Title
55513
    1DOPE     N    1   5.609   1.241  18.225 -0.2713 -0.5616 -0.5130
    1DOPE   HN1    2   5.540   1.264  18.151  0.1721 -0.1941 -0.8236
    1DOPE   HN2    3   5.600   1.294  18.315  0.2154 -3.1558  1.1752
    1DOPE   HN3    4   5.699   1.278  18.187  0.1255 -1.1714 -0.1923
    1DOPE   C12    5   5.609   1.094  18.240  0.1025  0.0853  0.3766
    1DOPE  H12A    6   5.534   1.062  18.314 -0.7926  0.4450 -0.3579
    1DOPE  H12B    7   5.712   1.066  18.273  0.5332  1.5628  0.3606
    1DOPE   C11    8   5.586   1.034  18.098 -0.0691 -0.1810  0.7156
    1DOPE  H11A    9   5.564   0.926  18.115  2.1168 -0.7872  0.0624
    1DOPE  H11B   10   5.677   1.042  18.035 -0.1334  0.6090  0.7181
    1DOPE     P   11   5.378   1.028  17.946 -0.0483  0.0044  0.2528
    1DOPE   O13   12   5.302   1.135  17.868  0.0132  0.4363 -0.4605
    1DOPE   O14   13   5.307   0.943  18.039 -0.1979  0.3927 -0.1576
    1DOPE   O11   14   5.460   0.938  17.852  0.3285 -0.6947 -0.4472
    1DOPE   O12   15   5.486   1.103  18.028 -0.0243 -0.1601 -0.0521
    1DOPE    C1   16   5.561   1.001  17.767  0.4199  0.2837 -0.6356
    1DOPE    HA   17   5.661   0.963  17.797 -0.9903 -1.5910  2.1650
    1DOPE    HB   18   5.567   1.111  17.783  1.2828 -0.1206  2.4553
    1DOPE    C2   19   5.537   0.968  17.621  0.1774  0.2374  0.1828
    1DOPE    HS   20   5.429   0.990  17.605  0.0091 -0.5647  0.1789
    1DOPE   O21   21   5.568   0.829  17.592 -0.1069 -0.1831 -0.2245
    1DOPE   C21   22   5.494   0.767  17.502 -0.5220 -0.6586  0.0133
    1DOPE   O22   23   5.398   0.818  17.441  0.5612 -0.3054 -0.1320
    1DOPE   C22   24   5.544   0.631  17.473 -0.3944  0.1225 -0.3072
    1DOPE   H2R   25   5.502   0.560  17.548 -0.5327  0.6602  0.1295
    1DOPE   H2S   26   5.654   0.630  17.461 -0.5136  0.1743 -1.5413
    1DOPE    C3   27   5.624   1.065  17.538 -0.0073  0.1447 -0.2284
    1DOPE    HX   28   5.731   1.035  17.543  0.0742  0.5224  0.4726
    1DOPE    HY   29   5.618   1.168  17.578  0.2868 -0.5824  1.8628
    1DOPE   O31   30   5.589   1.061  17.404  0.2988  0.3993 -0.2497
    1DOPE   C31   31   5.478   1.127  17.372  0.4076 -0.7550 -0.5476
    1DOPE   O32   32   5.417   1.207  17.445 -0.1975 -0.0984  0.4882
    1DOPE   C32   33   5.427   1.080  17.237  0.7308 -0.5073  0.4600
    1DOPE   H2X   34   5.432   0.970  17.227  1.1580 -0.3714 -1.1638
    1DOPE   H2Y   35   5.318   1.101  17.243  0.8384  0.0915  0.4538
    1DOPE   C23   36   5.508   0.571  17.331 -0.5279 -0.5928  0.7409
    1DOPE   H3R   37   5.401   0.579  17.303 -0.1228  0.8713 -0.6022
    1DOPE   H3S   38   5.537   0.464  17.335  3.4276  0.2616 -0.3244
    1DOPE   C24   39   5.588   0.643  17.226 -0.6326 -0.3985 -0.6173
    1DOPE   H4R   40   5.690   0.669  17.260 -0.5565 -2.2426  0.7095
    1DOPE   H4S   41   5.537   0.742  17.215 -0.2176  0.3036  2.6599
    1DOPE   C25   42   5.614   0.567  17.090  0.6308  0.5211  0.3014
    1DOPE   H5R   43   5.515   0.534  17.053  0.8443  1.6078 -1.3626
    1DOPE   H5S   44   5.681   0.480  17.107  2.1529  1.0955 -2.1459
    1DOPE   C26   45   5.667   0.664  16.984  0.1348 -0.0900 -0.3425
    1DOPE   H6R   46   5.749   0.716  17.038  0.3185  0.4224 -1.1067
    1DOPE   H6S   47   5.578   0.726  16.959 -0.3668  0.7028  2.8666
    1DOPE   C27   48   5.727   0.579  16.873 -0.3246 -0.1934 -0.1878
    1DOPE   H7R   49   5.640   0.539  16.818 -0.0975 -0.3546 -0.4353
    1DOPE   H7S   50   5.781   0.495  16.923 -2.1946 -0.5705  1.3484
    1DOPE   C28   51   5.825   0.657  16.784  0.4326 -0.3780 -0.1692
    1DOPE   H8R   52   5.907   0.676  16.856 -0.4623  1.7610  0.3673
    1DOPE   H8S   53   5.781   0.750  16.740  2.5723  0.6752 -0.1837
    1DOPE   C29   54   5.874   0.564  16.670  0.2759 -0.4088 -0.5392
    1DOPE   H9R   55   5.877   0.458  16.700 -1.8025 -0.7034 -1.2098
    1DOPE  C210   56   5.911   0.600  16.549 -0.0238  0.7361 -0.0835
    1DOPE  H10R   57   5.941   0.516  16.486 -0.4842  0.3902  0.1516
    1DOPE  C211   58   5.911   0.733  16.483 -0.7392  0.0114  0.8137
    1DOPE  H11R   59   6.009   0.738  16.432 -0.2412  0.2929  1.7836
    1DOPE  H11S   60   5.896   0.809  16.563 -1.3564 -1.4282  2.1005
    1DOPE  C212   61   5.795   0.751  16.384 -0.2733  0.8756 -0.0741
    1DOPE  H12R   62   5.800   0.848  16.330 -0.1094  1.0083  0.1771
    1DOPE  H12S   63   5.699   0.749  16.441 -1.1556  2.4698 -1.4241
    1DOPE  C213   64   5.797   0.633  16.281 -0.1517  0.1658  0.7546
    1DOPE  H13R   65   5.710   0.660  16.218 -0.8697 -2.0553  0.6914
    1DOPE  H13S   66   5.768   0.536  16.328  3.1174 -0.1263  2.4295
    1DOPE  C214   67   5.923   0.620  16.201 -0.4704 -0.5062 -0.1240
    1DOPE  H14R   68   6.000   0.598  16.278  0.3401  0.1855 -0.7266
    1DOPE  H14S   69   5.956   0.717  16.159 -1.2059 -0.0668  0.2807
    1DOPE  C215   70   5.917   0.509  16.103  0.6580 -0.4603 -0.1372
    1DOPE  H15R   71   5.892   0.423  16.170 -0.5820  0.8178  1.1111
    1DOPE  H15S   72   6.018   0.498  16.058  0.3608  0.8428 -1.1657
    1DOPE  C216   73   5.825   0.526  15.984 -0.4207 -0.2750  0.1025
    1DOPE  H16R   74   5.854   0.618  15.928 -2.7714  0.0670 -0.6729
    1DOPE  H16S   75   5.723   0.540  16.026 -0.3329 -0.2651  0.3115
    1DOPE  C217   76   5.836   0.402  15.895 -0.4511 -0.5544  0.0539
    1DOPE  H17R   77   5.806   0.324  15.968 -0.9384  0.0550  0.5273
    1DOPE  H17S   78   5.943   0.395  15.869 -0.4537  1.3648 -0.6823
    1DOPE  C218   79   5.745   0.403  15.779 -0.4321 -0.5874  0.2245
    1DOPE  H18R   80   5.775   0.465  15.692 -1.8077 -2.5162 -1.7328
    1DOPE  H18S   81   5.636   0.417  15.793 -0.3972 -1.7687  2.0770
    1DOPE  H18T   82   5.744   0.303  15.731 -0.2231 -0.0420 -0.9648
    1DOPE   C33   83   5.481   1.157  17.110  0.4841  0.3927 -0.4370
    1DOPE   H3X   84   5.590   1.136  17.103  0.1119 -1.5260 -1.1289
    1DOPE   H3Y   85   5.469   1.266  17.128  0.1074  0.0586  1.6486
    1DOPE   C34   86   5.412   1.123  16.980  0.6693 -0.3168  1.1026
    1DOPE   H4X   87   5.320   1.184  16.972  0.4691 -0.5757  1.4011
    1DOPE   H4Y   88   5.471   1.156  16.892  0.2748 -0.0426  0.9410
    1DOPE   C35   89   5.381   0.973  16.949 -0.1506 -0.5342  0.1624
    1DOPE   H5X   90   5.302   0.941  17.020 -0.1152  2.0503  1.4862
    1DOPE   H5Y   91   5.478   0.926  16.974  0.3551  1.7105  2.9250
    1DOPE   C36   92   5.323   0.952  16.804 -0.1910 -0.5687  0.7572
    1DOPE   H6X   93   5.240   1.024  16.789  0.1332 -0.7378 -2.8355
    1DOPE   H6Y   94   5.302   0.843  16.790  0.2213 -0.7617  1.5753
    1DOPE   C37   95   5.430   0.977  16.702  0.2795  0.1935  0.1417
    1DOPE   H7X   96   5.439   1.082  16.668 -2.8589  0.2302 -0.8482
    1DOPE   H7Y   97   5.529   0.960  16.750  0.1648  1.0257  0.6831
    1DOPE   C38   98   5.423   0.876  16.580 -0.1162 -0.4168 -0.4961
    1DOPE   H8X   99   5.425   0.772  16.621  0.6449 -0.4320 -0.5464
    1DOPE   H8Y  100   5.517   0.892  16.522 -1.6888  1.9632 -2.5788
    1DOPE   C39  101   5.302   0.904  16.499  0.0499  0.5643  0.4689
    1DOPE   H9X  102   5.203   0.885  16.544 -0.4906  2.2393  0.0440
    1DOPE  C310  103   5.293   0.947  16.372  1.0448  0.3492  0.3019
    1DOPE  H10X  104   5.194   0.937  16.324  1.9782 -0.9724 -1.5022
    1DOPE  C311  105   5.413   0.976  16.282  0.5160  0.5575 -0.0618
    1DOPE  H11X  106   5.391   1.064  16.218  0.8958  0.1825 -0.7214
    1DOPE  H11Y  107   5.508   0.993  16.337  2.6834 -0.6442 -3.1397
    1DOPE  C312  108   5.440   0.864  16.186  0.0810 -0.1821 -0.5077
    1DOPE  H12X  109   5.354   0.835  16.121  1.7661 -1.9062 -2.0735
    1DOPE  H12Y  110   5.458   0.767  16.236 -4.1119  0.8817  3.8735
    1DOPE  C313  111   5.556   0.900  16.094 -0.2639 -0.0684  0.5797
    1DOPE  H13X  112   5.533   0.998  16.047 -1.9745 -0.6032  0.2428
    1DOPE  H13Y  113   5.648   0.917  16.154 -0.8035  2.9853  0.7351
    1DOPE  C314  114   5.580   0.805  15.978  0.8460  0.2876 -0.1129
    1DOPE  H14X  115   5.580   0.711  16.038  0.2682  0.7307  0.5989
    1DOPE  H14Y  116   5.681   0.818  15.932  0.2786  1.1851 -1.1690
    1DOPE  C315  117   5.479   0.791  15.863 -0.1752 -0.6156  0.2617
    1DOPE  H15X  118   5.500   0.872  15.790 -1.3166 -0.8163 -0.3046
    1DOPE  H15Y  119   5.377   0.806  15.905  1.0416  1.7148  2.7089
    1DOPE  C316  120   5.506   0.651  15.798 -0.4510 -0.6616 -0.1482
    1DOPE  H16X  121   5.486   0.572  15.874 -1.6695 -0.3773 -0.1558
    1DOPE  H16Y  122   5.611   0.656  15.760 -0.4858  4.2742 -0.2055
    1DOPE  C317  123   5.429   0.618  15.674  0.1842  0.9207  0.2216
    1DOPE  H17X  124   5.327   0.655  15.699 -1.0055 -1.2939 -1.0367
    1DOPE  H17Y  125   5.480   0.651  15.581  1.8458 -1.1771  0.3233
    1DOPE  C318  126   5.414   0.467  15.656  0.3029  0.1392  0.1981
    1DOPE  H18X  127   5.321   0.433  15.606  0.2698 -1.2187  1.1032
    1DOPE  H18Y  128   5.490   0.427  15.586 -0.5571 -0.3964 -0.4533
    1DOPE  H18Z  129   5.414   0.410  15.752  0.2374  0.6288  0.4902
    2DOPE     N  130   4.640   0.386  17.887 -0.1710  0.7869  0.4116
    2DOPE   HN1  131   4.589   0.462  17.838  0.6335  0.8116 -0.4121
    2DOPE   HN2  132   4.568   0.320  17.922  1.2358 -0.9680  0.1371
    2DOPE   HN3  133   4.672   0.441  17.969  0.6622  1.8507 -0.5982
    2DOPE   C12  134   4.749   0.308  17.815 -0.3095 -0.3839 -0.5482
    2DOPE  H12A  135   4.812   0.385  17.765 -0.0946  1.0407  1.7699
    2DOPE  H12B  136   4.709   0.238  17.738 -1.4239 -0.1739 -0.1768
    2DOPE   C11  137   4.811   0.217  17.916 -0.7130 -0.3877 -0.4624
    2DOPE  H11A  138   4.901   0.163  17.878 -0.3946  0.4319 -0.8819
    2DOPE  H11B  139   4.740   0.136  17.945 -1.5317  0.3828 -0.2870
    2DOPE     P  140   4.983   0.362  18.058 -0.1083 -0.3391  0.2334
    2DOPE   O13  141   5.073   0.277  18.140 -0.3825 -0.5609  0.2272
    2DOPE   O14  142   4.939   0.491  18.112  0.2090 -0.4709 -0.5803
    2DOPE   O11  143   5.035   0.375  17.911  0.1119 -0.2809  0.4096
    2DOPE   O12  144   4.847   0.290  18.033  0.7227  0.2561 -0.4107
    2DOPE    C1  145   5.162   0.341  17.869 -0.2092 -0.1946  0.0432
    2DOPE    HA  146   5.222   0.271  17.932 -0.0444 -1.0280 -1.0051
    2DOPE    HB  147   5.229   0.429  17.867  0.2765 -0.5557  0.1445
    2DOPE    C2  148   5.155   0.296  17.720 -0.8190  0.1938  0.3081
    2DOPE    HS  149   5.071   0.353  17.675  0.0483  0.9869 -0.3079
    2DOPE   O21  150   5.124   0.154  17.720  0.0162 -0.4856  0.2290
    2DOPE   C21  151   5.028   0.118  17.636 -0.3071 -0.1542 -0.4077
    2DOPE   O22  152   4.961   0.192  17.564  0.6144 -0.4811 -0.0401
    2DOPE   C22  153   5.002  -0.028  17.655  0.4528  0.0915  0.5432
    2DOPE   H2R  154   4.895  -0.055  17.646  0.4324  0.5954 -0.9489
    2DOPE   H2S  155   5.028  -0.052  17.761  0.1379 -0.7413  0.4420
    2DOPE    C3  156   5.283   0.315  17.634  0.5875 -0.4901 -0.1906
    2DOPE    HX  157   5.356   0.242  17.676 -0.0806 -0.7473  0.5508
    2DOPE    HY  158   5.344   0.405  17.655  0.3563 -0.0435 -1.3779
    2DOPE   O31  159   5.268   0.296  17.489 -0.6018 -0.4456  0.2633
    2DOPE   C31  160   5.223   0.411  17.434  0.2772 -0.3965 -0.5521
    2DOPE   O32  161   5.206   0.516  17.493 -0.4114 -0.1927 -0.7126
    2DOPE   C32  162   5.201   0.394  17.287  0.0529  0.1738  0.6656
    2DOPE   H2X  163   5.092   0.373  17.275  0.4105 -2.8602  1.9427
    2DOPE   H2Y  164   5.215   0.499  17.254  0.3021 -0.2251 -0.5557
    2DOPE   C23  165   5.080  -0.120  17.560 -0.5478  0.2175  0.6898
    2DOPE   H3R  166   5.043  -0.218  17.597 -1.9938  0.1654 -0.7384
    2DOPE   H3S  167   5.186  -0.111  17.592 -0.6497  0.8505  0.8522
    2DOPE   C24  168   5.047  -0.095  17.422  0.1092 -0.8119  0.5262
    2DOPE   H4R  169   5.094   0.003  17.399  1.9395 -1.1008  2.6754
    2DOPE   H4S  170   4.939  -0.089  17.399  0.4352  1.4686 -0.6957
    2DOPE   C25  171   5.115  -0.186  17.323 -0.2528 -0.1857  0.0706
    2DOPE   H5R  172   5.060  -0.281  17.307  0.2552 -0.1982 -1.8558
    2DOPE   H5S  173   5.215  -0.212  17.363  1.6708  2.2795 -2.6801
    2DOPE   C26  174   5.148  -0.123  17.188  0.7378 -0.6323  0.3302
    2DOPE   H6R  175   5.194  -0.023  17.199  0.4080 -0.4614  0.1596
    2DOPE   H6S  176   5.055  -0.104  17.130  1.4801  3.0839  0.1568
    2DOPE   C27  177   5.226  -0.216  17.102  0.2098 -0.0391  0.5545
    2DOPE   H7R  178   5.179  -0.315  17.082 -1.0419  0.6852 -0.2213
    2DOPE   H7S  179   5.318  -0.237  17.161  0.7867  0.9998  0.0438
    2DOPE   C28  180   5.289  -0.146  16.979  0.5988 -0.4041  0.7342
    2DOPE   H8R  181   5.392  -0.178  16.953  0.9704  2.2470 -1.5346
    2DOPE   H8S  182   5.291  -0.036  16.987 -1.2019 -0.3316  0.6554
    2DOPE   C29  183   5.204  -0.171  16.867  0.9660  0.8414  0.2857
    2DOPE   H9R  184   5.098  -0.195  16.887  1.0766 -0.3867 -0.4845
    2DOPE  C210  185   5.246  -0.173  16.738 -0.1368 -0.7263 -0.2908
    2DOPE  H10R  186   5.169  -0.197  16.662 -3.4189  0.0873  2.5193
    2DOPE  C211  187   5.384  -0.128  16.692  0.0737 -0.0163 -0.6475
    2DOPE  H11R  188   5.458  -0.211  16.692  1.4845  1.1274 -2.8251
    2DOPE  H11S  189   5.439  -0.049  16.747 -0.1618 -1.7071  2.2192
    2DOPE  C212  190   5.374  -0.072  16.547  0.2517  0.6128  0.3777
    2DOPE  H12R  191   5.476  -0.035  16.523  0.3040 -1.0099 -2.2840
    2DOPE  H12S  192   5.309   0.018  16.535 -0.9300 -0.4448 -1.9105
    2DOPE  C213  193   5.330  -0.181  16.449  0.2999  0.6424 -0.4500
    2DOPE  H13R  194   5.224  -0.209  16.465  0.1934  0.0945 -1.9465
    2DOPE  H13S  195   5.397  -0.268  16.470 -0.4870  0.3381  0.9423
    2DOPE  C214  196   5.344  -0.138  16.301  0.0151  0.3663 -0.1061
    2DOPE  H14R  197   5.438  -0.080  16.297 -0.2624  0.9413  1.0535
    2DOPE  H14S  198   5.261  -0.068  16.276 -0.5897  0.1458  1.1632
    2DOPE  C215  199   5.344  -0.253  16.203 -0.3399  0.3213 -0.6170
    2DOPE  H15R  200   5.285  -0.334  16.251 -1.0296  0.5425 -1.0700
    2DOPE  H15S  201   5.447  -0.293  16.201 -0.5716 -0.2523 -1.9949
    2DOPE  C216  202   5.296  -0.228  16.057 -0.7745  0.0742  0.2105
    2DOPE  H16R  203   5.377  -0.182  15.997  1.4708 -2.9405  0.7068
    2DOPE  H16S  204   5.207  -0.161  16.054  1.0100  2.5553  0.0390
    2DOPE  C217  205   5.265  -0.355  15.981 -0.2603  0.0742  0.6220
    2DOPE  H17R  206   5.190  -0.417  16.035  0.4545 -1.4774 -0.0957
    2DOPE  H17S  207   5.348  -0.428  15.987  0.6204  1.0276  0.2683
    2DOPE  C218  208   5.212  -0.325  15.840 -0.1406 -1.0659  0.0922
    2DOPE  H18R  209   5.122  -0.261  15.854 -1.0610 -2.4606  0.7116
    2DOPE  H18S  210   5.171  -0.417  15.793 -1.6274 -0.3170 -0.1319
    2DOPE  H18T  211   5.284  -0.262  15.783 -0.4328 -0.7931  0.0172
    2DOPE   C33  212   5.303   0.297  17.218 -0.0929  0.5310  0.0410
    2DOPE   H3X  213   5.285   0.189  17.233  0.9128  0.2517 -0.6574
    2DOPE   H3Y  214   5.399   0.317  17.270  0.7858 -0.7875 -1.0189
    2DOPE   C34  215   5.313   0.327  17.066 -0.6281  0.2467 -0.3073
    2DOPE   H4X  216   5.322   0.437  17.055 -1.1887  0.2467 -0.7890
    2DOPE   H4Y  217   5.411   0.292  17.025 -0.8690  1.6144 -2.1707
    2DOPE   C35  218   5.190   0.270  16.997 -0.1885 -0.1445  0.4306
    2DOPE   H5X  219   5.104   0.306  17.058 -0.5025  2.0111 -1.1468
    2DOPE   H5Y  220   5.195   0.160  16.985  1.1457 -0.1073  0.4842
    2DOPE   C36  221   5.181   0.325  16.853 -0.6235  0.3803 -0.3739
    2DOPE   H6X  222   5.166   0.435  16.861 -0.8898  0.2460  1.4310
    2DOPE   H6Y  223   5.091   0.286  16.801 -0.1116 -1.1944 -0.1415
    2DOPE   C37  224   5.309   0.287  16.771  0.0176 -0.1818  0.6614
    2DOPE   H7X  225   5.386   0.360  16.801  0.5682 -0.3011 -0.4042
    2DOPE   H7Y  226   5.346   0.186  16.801  0.9567  0.1245  0.5667
    2DOPE   C38  227   5.279   0.286  16.621  0.0810 -0.1096 -0.4861
    2DOPE   H8X  228   5.198   0.210  16.608  0.7003 -0.9342  0.3189
    2DOPE   H8Y  229   5.365   0.242  16.566  0.8571 -2.3449  2.2609
    2DOPE   C39  230   5.230   0.422  16.571 -0.0318  0.1074  1.2265
    2DOPE   H9X  231   5.122   0.437  16.586 -0.8508 -1.5700 -2.0383
    2DOPE  C310  232   5.302   0.512  16.497  0.0311  0.1773  0.0006
    2DOPE  H10X  233   5.242   0.602  16.477 -2.3634 -1.0968  1.0595
    2DOPE  C311  234   5.439   0.501  16.436  0.7915  0.1384 -0.1838
    2DOPE  H11X  235   5.486   0.599  16.416  0.2348  0.0956 -1.8728
    2DOPE  H11Y  236   5.519   0.449  16.493 -0.7833 -0.3817  1.6855
    2DOPE  C312  237   5.441   0.416  16.312  0.4962  0.1099 -0.4306
    2DOPE  H12X  238   5.400   0.313  16.326 -1.2429  0.7743 -0.3925
    2DOPE  H12Y  239   5.550   0.398  16.300  0.2469 -3.1319  0.9238
    2DOPE  C313  240   5.375   0.486  16.192 -0.0185  0.6612 -0.1473
    2DOPE  H13X  241   5.269   0.511  16.216 -0.3273  0.0466 -0.8259
    2DOPE  H13Y  242   5.436   0.576  16.170 -2.1493  2.2319  0.0526
    2DOPE  C314  243   5.362   0.401  16.059  0.0613 -0.4683  0.3486
    2DOPE  H14X  244   5.461   0.371  16.019  1.3353 -0.4017  3.2244
    2DOPE  H14Y  245   5.324   0.464  15.976  2.6521 -1.4131 -1.7152
    2DOPE  C315  246   5.281   0.275  16.080  0.3235 -0.2062  0.4088
    2DOPE  H15X  247   5.186   0.314  16.122  0.9561  1.2517  0.5460
    2DOPE  H15Y  248   5.326   0.202  16.151  1.7836  0.1197 -0.1414
    2DOPE  C316  249   5.263   0.202  15.944 -0.3840 -0.3386 -0.1796
    2DOPE  H16X  250   5.216   0.273  15.872  3.8973  4.0538  0.8173
    2DOPE  H16Y  251   5.202   0.111  15.963 -0.5989 -0.3216 -0.7839
    2DOPE  C317  252   5.404   0.153  15.894  0.6060  0.1203  0.0112
    2DOPE  H17X  253   5.469   0.241  15.875  0.0725  0.3597 -0.7119
    2DOPE  H17Y  254   5.458   0.090  15.969 -0.1055  1.8890  2.1248
    2DOPE  C318  255   5.402   0.081  15.753  0.0724  0.8681  0.4735
    2DOPE  H18X  256   5.381   0.156  15.674  2.0723 -1.9661 -3.0520
    2DOPE  H18Y  257   5.507   0.047  15.737  0.0987  0.3266  1.6526
    2DOPE  H18Z  258   5.342  -0.011  15.739  1.9731  0.0159 -3.4517
    3DOPE     N  259   4.430   1.046  17.710  0.2423 -0.6920 -0.0589
    3DOPE   HN1  260   4.412   0.973  17.638  1.3832 -0.0250 -1.0608
    3DOPE   HN2  261   4.523   1.047  17.756 -0.0682  2.2967  0.7023
    3DOPE   HN3  262   4.360   1.031  17.786  2.9377  0.5747  2.8612
    3DOPE   C12  263   4.415   1.186  17.656  0.0634 -0.1737 -0.0461
    3DOPE  H12A  264   4.426   1.262  17.736 -0.3754  2.4554 -2.2934
    3DOPE  H12B  265   4.319   1.196  17.600  1.3262  1.0094 -2.1670
    3DOPE   C11  266   4.525   1.222  17.555 -0.0262 -0.2427  0.3087
    3DOPE  H11A  267   4.493   1.323  17.519  1.8905  0.1359 -0.4530
    3DOPE  H11B  268   4.531   1.168  17.459  4.2642  1.6944 -0.7641
    3DOPE     P  269   4.778   1.168  17.596 -0.1862 -0.4070  0.4252
    3DOPE   O13  270   4.811   1.096  17.721 -0.3679 -0.0387 -0.3108
    3DOPE   O14  271   4.870   1.277  17.557 -0.3454 -0.5691  0.7779
    3DOPE   O11  272   4.755   1.076  17.467 -0.0317  0.1057 -1.3115
    3DOPE   O12  273   4.641   1.245  17.620 -0.0699 -0.4552  0.2956
    3DOPE    C1  274   4.868   1.046  17.385 -0.0560  0.0153  0.3777
    3DOPE    HA  275   4.892   0.938  17.375 -1.6838 -0.5370  1.9464
    3DOPE    HB  276   4.967   1.088  17.414  0.1313 -0.4272  0.3857
    3DOPE    C2  277   4.846   1.083  17.236  0.2834  0.1958  0.5214
    3DOPE    HS  278   4.822   1.189  17.255  0.1146  0.0523  1.1434
    3DOPE   O21  279   4.731   1.009  17.190 -0.3322 -0.3925  0.7220
    3DOPE   C21  280   4.657   1.074  17.099  0.1097 -0.0434 -0.6045
    3DOPE   O22  281   4.683   1.185  17.056  0.1819  0.1276  0.1589
    3DOPE   C22  282   4.542   0.990  17.041 -0.1118  0.5328 -0.3789
    3DOPE   H2R  283   4.488   0.968  17.136  0.3934  0.9590  0.0084
    3DOPE   H2S  284   4.578   0.887  17.019  2.6991 -0.3249  6.0863
    3DOPE    C3  285   4.968   1.067  17.145  0.2121  0.0242  0.7065
    3DOPE    HX  286   5.009   0.965  17.165  2.2453  0.4660 -0.8639
    3DOPE    HY  287   5.046   1.134  17.188 -0.9840  2.3755 -0.6457
    3DOPE   O31  288   4.947   1.092  17.004 -0.1354 -0.3747  0.3227
    3DOPE   C31  289   4.954   1.217  16.956  0.1701 -0.3128 -0.7859
    3DOPE   O32  290   4.981   1.317  17.023  0.2409 -0.4336  0.5590
    3DOPE   C32  291   4.916   1.221  16.812 -0.3288  0.8653  0.0745
    3DOPE   H2X  292   4.933   1.120  16.769  1.6532  1.1220  0.1648
    3DOPE   H2Y  293   4.810   1.251  16.804 -0.4143  0.8054  0.9035
    3DOPE   C23  294   4.447   1.057  16.942 -0.4461 -0.4847  0.7994
    3DOPE   H3R  295   4.434   1.153  16.997  1.9796  0.3042  0.1234
    3DOPE   H3S  296   4.356   0.994  16.938 -0.7192 -0.0992  0.8567
    3DOPE   C24  297   4.503   1.084  16.801  0.2504 -0.2809 -1.0077
    3DOPE   H4R  298   4.553   0.999  16.750 -1.1073 -0.9062 -1.3478
    3DOPE   H4S  299   4.579   1.163  16.818  0.3043 -0.6021  0.4103
    3DOPE   C25  300   4.395   1.141  16.702 -0.5385  0.4937  0.2662
    3DOPE   H5R  301   4.388   1.250  16.724  3.0401  0.4918  2.0778
    3DOPE   H5S  302   4.296   1.090  16.705  0.6819 -2.0369  2.8417
    3DOPE   C26  303   4.442   1.116  16.559  0.3173 -0.5577  0.6127
    3DOPE   H6R  304   4.440   1.006  16.543 -0.9297 -0.7547  1.9018
    3DOPE   H6S  305   4.545   1.154  16.543  0.3367  0.1793  2.2492
    3DOPE   C27  306   4.344   1.194  16.476 -0.4582 -0.5264  0.7702
    3DOPE   H7R  307   4.342   1.298  16.513  1.9319 -0.4986  0.9990
    3DOPE   H7S  308   4.241   1.154  16.489 -0.0102 -1.3570  2.0677
    3DOPE   C28  309   4.382   1.192  16.332 -0.7140 -0.0425 -0.0881
    3DOPE   H8R  310   4.307   1.235  16.262 -0.0576  0.3489 -0.5626
    3DOPE   H8S  311   4.377   1.083  16.308 -0.3043  0.0609 -0.6956
    3DOPE   C29  312   4.516   1.260  16.305 -0.0559 -0.0443  0.7545
    3DOPE   H9R  313   4.506   1.369  16.317 -2.6136  0.0942 -1.5880
    3DOPE  C210  314   4.628   1.196  16.272  0.0492  0.6249 -0.2354
    3DOPE  H10R  315   4.723   1.248  16.251  0.2419  0.2708 -0.2476
    3DOPE  C211  316   4.642   1.044  16.264  0.2457 -0.2032 -0.4402
    3DOPE  H11R  317   4.590   0.993  16.348 -0.7374  2.6611  0.8480
    3DOPE  H11S  318   4.747   1.019  16.291 -0.3126 -1.1626  0.9721
    3DOPE  C212  319   4.602   0.976  16.129  0.2234  0.0426  0.5820
    3DOPE  H12R  320   4.493   0.982  16.112 -0.1475  2.6059  3.0859
    3DOPE  H12S  321   4.631   0.868  16.135  0.3843  0.1337  1.6519
    3DOPE  C213  322   4.664   1.040  15.999 -0.1568 -0.6723  0.7216
    3DOPE  H13R  323   4.772   1.018  16.011 -0.3659 -1.3977  1.3136
    3DOPE  H13S  324   4.645   1.149  16.009  1.6783  0.0913 -2.6764
    3DOPE  C214  325   4.605   0.977  15.870 -0.2694 -0.0295 -0.0632
    3DOPE  H14R  326   4.510   0.925  15.897  0.4595 -1.2948  0.1468
    3DOPE  H14S  327   4.683   0.902  15.844 -0.8463 -0.6922  0.0559
    3DOPE  C215  328   4.578   1.077  15.756  1.1213  0.7571  0.4433
    3DOPE  H15R  329   4.511   1.160  15.788  0.0551 -0.2562  0.9178
    3DOPE  H15S  330   4.520   1.011  15.687  0.3831  1.6042  0.2352
    3DOPE  C216  331   4.701   1.129  15.687  0.2112 -0.3501 -0.0356
    3DOPE  H16R  332   4.769   1.055  15.640  1.5215 -0.4265  1.8525
    3DOPE  H16S  333   4.762   1.174  15.768  2.3816 -3.2804  0.1426
    3DOPE  C217  334   4.671   1.223  15.572 -0.5718 -0.2521  0.8105
    3DOPE  H17R  335   4.765   1.279  15.550  0.3451 -1.6825  0.9378
    3DOPE  H17S  336   4.599   1.297  15.613 -0.0473  0.4222  0.5464
    3DOPE  C218  337   4.601   1.164  15.453  0.0825 -0.1065 -0.1806
    3DOPE  H18R  338   4.594   1.227  15.362  0.2095  0.2292  0.0439
    3DOPE  H18S  339   4.497   1.128  15.471 -0.9357  2.5391 -0.4043
    3DOPE  H18T  340   4.671   1.081  15.427  1.8014  1.1206  0.3910
    3DOPE   C33  341   4.992   1.328  16.734  0.1181 -0.2778 -0.1678
    3DOPE   H3X  342   5.098   1.294  16.745 -0.3411 -1.1460  2.1855
    3DOPE   H3Y  343   4.997   1.431  16.776 -0.6147  0.4110 -1.7192
    3DOPE   C34  344   4.964   1.329  16.583  0.6350 -0.1288 -0.8966
    3DOPE   H4X  345   4.949   1.222  16.555  0.2817  0.0722 -1.4986
    3DOPE   H4Y  346   4.878   1.396  16.558  1.0178 -0.0204 -1.9492
    3DOPE   C35  347   5.079   1.373  16.496 -0.0753  0.0933  1.3099
    3DOPE   H5X  348   5.170   1.309  16.501  0.3463 -0.2238 -4.1557
    3DOPE   H5Y  349   5.099   1.479  16.519 -4.2687  1.2955  0.3373
    3DOPE   C36  350   5.051   1.368  16.341  0.1121 -0.5342  0.0694
    3DOPE   H6X  351   5.136   1.407  16.282 -0.3834  0.7388  0.1648
    3DOPE   H6Y  352   4.963   1.431  16.315 -0.8961 -0.8719  2.3604
    3DOPE   C37  353   5.007   1.230  16.304 -0.3303  0.0976 -0.2456
    3DOPE   H7X  354   5.075   1.159  16.357 -2.3860 -1.2665  0.6725
    3DOPE   H7Y  355   4.911   1.201  16.352 -0.6765  2.8786  0.9473
    3DOPE   C38  356   5.005   1.189  16.153  0.7595 -0.5326  0.2104
    3DOPE   H8X  357   4.935   1.258  16.102  2.3917  1.8498  1.0410
    3DOPE   H8Y  358   4.962   1.086  16.154 -0.0754 -0.2109 -0.7269
    3DOPE   C39  359   5.139   1.192  16.088 -0.1515 -0.0078 -0.3822
    3DOPE   H9X  360   5.215   1.252  16.139 -0.5727 -0.2827  0.5834
    3DOPE  C310  361   5.173   1.126  15.975  0.0776  0.6751 -0.7489
    3DOPE  H10X  362   5.276   1.119  15.937 -0.3528 -0.9333 -1.7344
    3DOPE  C311  363   5.087   1.033  15.899 -0.5853  0.2015 -0.5518
    3DOPE  H11X  364   5.105   0.937  15.953  0.8229 -0.3744 -1.9700
    3DOPE  H11Y  365   4.978   1.050  15.915 -0.9847  0.1896 -2.9938
    3DOPE  C312  366   5.123   1.025  15.754  0.0894  0.4926  0.0600
    3DOPE  H12X  367   5.229   1.000  15.729 -0.3921  0.4104 -2.1374
    3DOPE  H12Y  368   5.098   1.118  15.697  1.2973  1.5893  1.2466
    3DOPE  C313  369   5.045   0.907  15.701  0.0877  0.2553 -0.5713
    3DOPE  H13X  370   5.076   0.806  15.736  1.5194  1.0891  0.6473
    3DOPE  H13Y  371   4.938   0.916  15.732  0.3041  2.3111 -0.3026
    3DOPE  C314  372   5.050   0.880  15.550 -0.2767  0.4224  0.1642
    3DOPE  H14X  373   5.015   0.974  15.501  2.9857  1.5577 -0.2765
    3DOPE  H14Y  374   4.984   0.792  15.535  1.2511 -0.7832  0.2995
    3DOPE  C315  375   5.183   0.843  15.484  0.7272  0.1729 -0.3607
    3DOPE  H15X  376   5.237   0.765  15.542  1.1963  1.2353  0.6705
    3DOPE  H15Y  377   5.249   0.931  15.494 -0.4466  1.1618 -0.9755
    3DOPE  C316  378   5.171   0.816  15.334 -0.2557  0.2192 -0.0718
    3DOPE  H16X  379   5.144   0.901  15.269 -0.9151  0.1806  0.1428
    3DOPE  H16Y  380   5.094   0.736  15.324  2.9803 -3.3110  0.5595
    3DOPE  C317  381   5.297   0.749  15.271 -0.3416  0.2854 -0.3596
    3DOPE  H17X  382   5.380   0.823  15.272  1.6086 -1.7327  2.4373
    3DOPE  H17Y  383   5.316   0.664  15.339 -3.7133  1.3185  2.1472
    3DOPE  C318  384   5.266   0.696  15.138  0.7369  0.2613  0.4541
    3DOPE  H18X  385   5.270   0.777  15.061 -1.2601  0.6307  0.6836
    3DOPE  H18Y  386   5.345   0.624  15.106 -0.0177 -0.8227  0.9779
    3DOPE  H18Z  387   5.162   0.659  15.129  0.6976  0.4000  0.3228
    4DOPE     N  388   3.807   4.363  17.794  0.2277  0.5613 -0.1096
    4DOPE   HN1  389   3.736   4.290  17.775 -0.4159  0.0626  3.4843
    4DOPE   HN2  390   3.819   4.432  17.716  1.1969  2.5802  1.7179
    4DOPE   HN3  391   3.898   4.312  17.804  0.1850  0.2747 -1.0302
    4DOPE   C12  392   3.772   4.445  17.913 -0.3059 -0.0922 -0.3316
    4DOPE  H12A  393   3.844   4.528  17.928  1.3486 -1.7771  1.9663
    4DOPE  H12B  394   3.767   4.376  18.001 -0.3971 -1.1706 -1.1657
    4DOPE   C11  395   3.637   4.516  17.881 -0.3078 -0.7337 -1.0019
    4DOPE  H11A  396   3.606   4.561  17.978  2.5981  3.6874 -1.7952
    4DOPE  H11B  397   3.556   4.441  17.868 -0.6290 -0.8853  1.4786
    4DOPE     P  398   3.652   4.760  17.801 -0.3980  0.1074  0.0771
    4DOPE   O13  399   3.763   4.790  17.901 -0.2593 -0.3288  0.7382
    4DOPE   O14  400   3.522   4.807  17.841  0.3712 -0.2241  0.1986
    4DOPE   O11  401   3.690   4.823  17.658 -0.2204  0.2978 -0.4616
    4DOPE   O12  402   3.637   4.605  17.772 -0.4138 -0.1743 -0.3093
    4DOPE    C1  403   3.663   4.750  17.543 -0.3951  0.1743 -0.1308
    4DOPE    HA  404   3.555   4.724  17.544 -0.4256 -0.0219  3.1952
    4DOPE    HB  405   3.729   4.661  17.546  0.3540  0.6478 -1.6935
    4DOPE    C2  406   3.701   4.838  17.418  0.5134  0.1384 -0.3142
    4DOPE    HS  407   3.695   4.772  17.328 -0.2408 -2.1451  1.3256
    4DOPE   O21  408   3.833   4.886  17.431 -0.0900  0.2184  0.2607
    4DOPE   C21  409   3.938   4.806  17.405  0.5946 -0.8849  0.4675
    4DOPE   O22  410   3.928   4.685  17.384  0.3590 -0.0337 -0.5019
    4DOPE   C22  411   4.067   4.877  17.389  0.1891  0.4381  0.7174
    4DOPE   H2R  412   4.144   4.808  17.348  1.6441  3.1379 -1.4465
    4DOPE   H2S  413   4.100   4.913  17.488 -0.5352 -1.0260  1.5210
    4DOPE    C3  414   3.592   4.956  17.409 -0.6933 -0.1246 -0.0687
    4DOPE    HX  415   3.603   5.031  17.490 -1.4083  0.5396 -0.5692
    4DOPE    HY  416   3.486   4.925  17.412 -0.8672  0.0339 -2.3957
    4DOPE   O31  417   3.619   5.029  17.289 -0.0393  0.1544 -0.4027
    4DOPE   C31  418   3.554   4.986  17.187 -0.0802  0.2657 -0.6622
    4DOPE   O32  419   3.468   4.895  17.192 -0.0051 -0.3431  0.6174
    4DOPE   C32  420   3.599   5.062  17.063 -0.1609 -0.0669  0.2000
    4DOPE   H2X  421   3.579   5.168  17.091 -2.0839 -0.5978  1.0131
    4DOPE   H2Y  422   3.710   5.056  17.059 -0.2020 -2.7822  0.6787
    4DOPE   C23  423   4.062   4.997  17.292  0.0006  0.3693 -0.1097
    4DOPE   H3R  424   4.159   5.051  17.292 -0.2301  0.8772 -2.7012
    4DOPE   H3S  425   3.984   5.073  17.315  0.2502  1.7242 -3.3128
    4DOPE   C24  426   4.052   4.949  17.151  0.1930  0.6867 -0.2589
    4DOPE   H4R  427   3.950   4.907  17.144 -0.0985  1.1396  1.0191
    4DOPE   H4S  428   4.128   4.869  17.140  0.9338  1.2379  0.7025
    4DOPE   C25  429   4.056   5.061  17.044 -0.7840  0.3777 -0.4518
    4DOPE   H5R  430   4.162   5.094  17.037 -0.0635 -1.7884 -0.7531
    4DOPE   H5S  431   3.996   5.152  17.064 -1.0621  0.1037 -0.0142
    4DOPE   C26  432   4.007   5.007  16.902 -0.1014 -0.0832  0.1123
    4DOPE   H6R  433   3.900   5.038  16.900 -0.0352  0.1806 -2.3212
    4DOPE   H6S  434   4.016   4.897  16.902  0.0226 -0.0767  0.7972
    4DOPE   C27  435   4.086   5.074  16.784 -0.0101  0.7997 -0.6256
    4DOPE   H7R  436   4.197   5.070  16.790  0.1627  0.4169 -3.0383
    4DOPE   H7S  437   4.070   5.184  16.776  0.1953  0.8055 -1.0087
    4DOPE   C28  438   4.053   4.989  16.654 -0.5528 -0.1885  0.2178
    4DOPE   H8R  439   4.077   4.881  16.659 -4.2492 -1.1351  1.0586
    4DOPE   H8S  440   4.122   5.031  16.578 -2.4066 -1.1051 -2.0979
    4DOPE   C29  441   3.912   5.019  16.614 -0.5998 -0.2811  0.3545
    4DOPE   H9R  442   3.827   4.954  16.640 -1.0179 -0.6870 -1.8670
    4DOPE  C210  443   3.875   5.120  16.524 -0.0406  0.6291  0.8394
    4DOPE  H10R  444   3.772   5.116  16.486  1.0462 -1.7598 -2.3018
    4DOPE  C211  445   3.974   5.217  16.453  0.3130 -0.5389 -0.2147
    4DOPE  H11R  446   4.079   5.194  16.481  0.4492 -1.5205 -1.4428
    4DOPE  H11S  447   3.953   5.321  16.486  0.6550 -1.2096  2.2629
    4DOPE  C212  448   3.969   5.232  16.300  0.1836  0.7788  0.6902
    4DOPE  H12R  449   3.995   5.338  16.276  2.4469  0.1194  0.0144
    4DOPE  H12S  450   3.871   5.208  16.256 -0.0529  1.1358  1.0152
    4DOPE  C213  451   4.064   5.123  16.240 -0.1199 -0.1353  0.2529
    4DOPE  H13R  452   4.036   5.016  16.236  0.8502 -0.4552  1.3324
    4DOPE  H13S  453   4.159   5.124  16.297  0.3649  3.1367 -0.4103
    4DOPE  C214  454   4.113   5.154  16.096  0.4661 -0.3440  0.7753
    4DOPE  H14R  455   4.207   5.097  16.082 -1.0374 -3.4118  2.0625
    4DOPE  H14S  456   4.149   5.258  16.083  1.1818 -0.7261 -0.5145
    4DOPE  C215  457   4.031   5.097  15.981 -0.6057  0.0581  1.4332
    4DOPE  H15R  458   3.936   5.153  15.995 -1.4812 -1.0655  0.1160
    4DOPE  H15S  459   4.020   4.987  15.995 -1.9847  0.0645  0.6259
    4DOPE  C216  460   4.089   5.122  15.841  0.0189  0.0565  0.0230
    4DOPE  H16R  461   4.169   5.047  15.820  3.5142  3.4785 -0.0031
    4DOPE  H16S  462   4.134   5.223  15.840  0.2427  0.0596  2.7551
    4DOPE  C217  463   3.988   5.106  15.726  0.5021 -0.1057  0.6020
    4DOPE  H17R  464   4.022   5.143  15.627  0.9808 -0.2953  0.6906
    4DOPE  H17S  465   3.897   5.164  15.749  0.5474 -0.3340  1.3820
    4DOPE  C218  466   3.946   4.958  15.701 -0.2352 -0.3584 -0.3774
    4DOPE  H18R  467   3.879   4.954  15.613  0.0352  0.7558 -0.6419
    4DOPE  H18S  468   3.899   4.911  15.790 -3.0206  2.2499 -0.3232
    4DOPE  H18T  469   4.024   4.887  15.666 -0.9696 -0.5208 -1.7476
    4DOPE   C33  470   3.511   5.016  16.940 -0.2469  0.0647 -0.0828
    4DOPE   H3X  471   3.524   5.083  16.852  1.0572 -0.3486 -0.2304
    4DOPE   H3Y  472   3.402   5.007  16.957 -0.3212  0.0249 -0.5648
    4DOPE   C34  473   3.558   4.876  16.892 -0.5955  0.5982 -0.2645
    4DOPE   H4X  474   3.667   4.888  16.874 -0.3497 -0.6421  0.3025
    4DOPE   H4Y  475   3.523   4.806  16.971  0.4301 -0.2118 -0.5067
    4DOPE   C35  476   3.486   4.836  16.768 -0.0867 -0.1243  0.3093
    4DOPE   H5X  477   3.379   4.843  16.797 -0.3773 -2.2201 -0.1261
    4DOPE   H5Y  478   3.522   4.735  16.740 -1.0092 -0.5834  0.7357
    4DOPE   C36  479   3.495   4.933  16.641 -0.2474  0.1351 -0.3020
    4DOPE   H6X  480   3.593   4.983  16.632  0.4504 -1.3526 -1.5357
    4DOPE   H6Y  481   3.424   5.016  16.662 -1.3264 -0.6326 -0.8424
    4DOPE   C37  482   3.459   4.859  16.507 -0.0010 -0.8710  0.2414
    4DOPE   H7X  483   3.547   4.792  16.494  1.2237 -0.1065  3.6429
    4DOPE   H7Y  484   3.374   4.790  16.529  0.5174 -1.5901  0.0435
    4DOPE   C38  485   3.426   4.945  16.383  0.3090 -0.1187 -0.2125
    4DOPE   H8X  486   3.319   4.972  16.399  0.0824 -2.5028  3.6270
    4DOPE   H8Y  487   3.411   4.877  16.297 -1.2651  2.2067 -1.8841
    4DOPE   C39  488   3.517   5.060  16.359  0.2405 -0.2061 -0.1023
    4DOPE   H9X  489   3.521   5.137  16.438 -0.2344  0.9243 -1.1499
    4DOPE  C310  490   3.577   5.095  16.245 -0.2468  0.5209  0.4363
    4DOPE  H10X  491   3.634   5.189  16.231  0.6416 -0.2635 -1.7240
    4DOPE  C311  492   3.580   5.003  16.125  0.2715  0.4799 -0.1772
    4DOPE  H11X  493   3.677   4.949  16.123 -0.5304 -1.0520  0.7828
    4DOPE  H11Y  494   3.509   4.919  16.117  3.1136 -1.9285 -2.9148
    4DOPE  C312  495   3.568   5.082  15.990  0.1966 -0.3601 -0.5769
    4DOPE  H12X  496   3.653   5.153  15.983 -0.4054  0.3377 -0.9502
    4DOPE  H12Y  497   3.475   5.142  15.994 -0.4927 -1.4846  1.8663
    4DOPE  C313  498   3.561   5.003  15.859 -0.5421 -0.4064 -0.1436
    4DOPE  H13X  499   3.664   4.965  15.841  0.1904  1.0313  0.8424
    4DOPE  H13Y  500   3.500   4.912  15.881 -0.1244 -0.6475  0.0234
    4DOPE  C314  501   3.521   5.086  15.743  0.0825  0.2705  0.2688
    4DOPE  H14X  502   3.593   5.170  15.733 -0.1542  0.2497 -2.8060
    4DOPE  H14Y  503   3.422   5.131  15.767  0.4877  0.0871  2.4376
    4DOPE  C315  504   3.502   4.999  15.616 -0.4457 -0.5685 -0.4424
    4DOPE  H15X  505   3.428   4.917  15.627 -0.7294 -0.6756 -2.8253
    4DOPE  H15Y  506   3.601   4.951  15.599  0.0640  0.0436  0.6499
    4DOPE  C316  507   3.476   5.062  15.483 -0.3892  0.2420 -0.0300
    4DOPE  H16X  508   3.534   5.151  15.454 -2.8898  2.0906  0.2931
    4DOPE  H16Y  509   3.367   5.085  15.485 -0.4366  0.1271  2.4188
    4DOPE  C317  510   3.497   4.965  15.365 -0.2264  0.1627 -0.2691
    4DOPE  H17X  511   3.426   4.879  15.374  0.5501 -0.4682 -0.0998
    4DOPE  H17Y  512   3.470   5.028  15.277  1.1556  1.3092  0.0886
    4DOPE  C318  513   3.644   4.922  15.349 -0.2031  0.1371 -0.3720
    4DOPE  H18X  514   3.661   4.836  15.417 -3.4815 -1.1614 -0.9822
    4DOPE  H18Y  515   3.679   4.889  15.248 -1.2756 -1.5574 -0.2348
    4DOPE  H18Z  516   3.717   5.001  15.373  0.2259 -0.1012 -0.8855
    5DOPE     N  517   3.309   1.827  17.258 -0.7656 -0.0718  0.2052
    5DOPE   HN1  518   3.244   1.749  17.277 -1.8860  1.1068  1.4995
    5DOPE   HN2  519   3.302   1.884  17.171 -0.5974 -1.3493 -0.6581
    5DOPE   HN3  520   3.402   1.782  17.269 -0.8526  0.1534  2.6142
    5DOPE   C12  521   3.291   1.921  17.373 -0.7544 -0.0428 -0.2420
    5DOPE  H12A  522   3.194   1.973  17.359 -0.6984 -0.0281 -0.5832
    5DOPE  H12B  523   3.369   1.999  17.374  0.1730 -0.9346 -0.6587
    5DOPE   C11  524   3.286   1.838  17.504  0.0548  0.4841  0.3894
    5DOPE  H11A  525   3.228   1.893  17.582  1.0562 -0.6178  1.9777
    5DOPE  H11B  526   3.393   1.831  17.531  0.8333 -1.4122 -2.7777
    5DOPE     P  527   3.217   1.628  17.629  0.0221 -0.1226  0.0999
    5DOPE   O13  528   3.121   1.712  17.708  0.2454 -0.5454 -0.6425
    5DOPE   O14  529   3.348   1.604  17.687 -0.1097  0.0183  0.3491
    5DOPE   O11  530   3.148   1.492  17.593  0.1817 -0.0919  0.1618
    5DOPE   O12  531   3.231   1.704  17.488  0.6650 -0.3953  0.3902
    5DOPE    C1  532   3.225   1.391  17.526 -0.2590 -0.0054  0.4165
    5DOPE    HA  533   3.189   1.290  17.555 -0.4362  0.3950  1.6529
    5DOPE    HB  534   3.332   1.386  17.555 -0.1839 -0.2849  0.0845
    5DOPE    C2  535   3.230   1.411  17.367 -0.6705 -0.5205 -1.1564
    5DOPE    HS  536   3.277   1.511  17.357  0.8750 -1.1034 -0.1853
    5DOPE   O21  537   3.097   1.407  17.317  0.7538 -0.1360  0.3537
    5DOPE   C21  538   3.072   1.489  17.220  0.1900  0.5812 -0.2671
    5DOPE   O22  539   3.144   1.585  17.190 -0.0860  0.2619  0.0481
    5DOPE   C22  540   2.943   1.457  17.149  0.1908 -0.1642  0.0503
    5DOPE   H2R  541   2.925   1.533  17.070 -0.2026 -0.4902 -0.1778
    5DOPE   H2S  542   2.862   1.482  17.221  0.0608  1.3784 -0.5997
    5DOPE    C3  543   3.322   1.311  17.298 -0.0294 -1.1542 -0.5096
    5DOPE    HX  544   3.271   1.213  17.311 -0.3825 -0.8019  0.9566
    5DOPE    HY  545   3.411   1.313  17.365 -0.4955 -1.2167  0.1184
    5DOPE   O31  546   3.348   1.345  17.158  0.0954  0.3663  0.5694
    5DOPE   C31  547   3.410   1.244  17.093  0.0197 -0.1908  0.3262
    5DOPE   O32  548   3.441   1.134  17.142  0.8139 -0.3523  0.1655
    5DOPE   C32  549   3.440   1.289  16.955 -0.3622 -0.0269 -0.7685
    5DOPE   H2X  550   3.388   1.381  16.922  2.0922  1.5728 -0.3985
    5DOPE   H2Y  551   3.544   1.329  16.952 -1.3559  2.8506  0.0804
    5DOPE   C23  552   2.927   1.314  17.103 -0.7778  0.5430 -0.0471
    5DOPE   H3R  553   2.819   1.293  17.085 -0.2915 -2.8430  0.3607
    5DOPE   H3S  554   2.963   1.243  17.180  0.3142  0.4434 -0.6303
    5DOPE   C24  555   2.999   1.284  16.968 -0.1695 -0.2476  0.7238
    5DOPE   H4R  556   2.952   1.198  16.916  1.6097 -1.5971  1.1995
    5DOPE   H4S  557   3.102   1.257  17.001  0.1346  1.0044  0.8418
    5DOPE   C25  558   3.008   1.395  16.862  0.1192 -1.1829 -0.2814
    5DOPE   H5R  559   3.066   1.484  16.894 -2.1340  0.6133 -0.9528
    5DOPE   H5S  560   2.905   1.434  16.853 -1.5113 -5.0611 -0.3943
    5DOPE   C26  561   3.056   1.334  16.734  0.2981  0.1392 -0.8141
    5DOPE   H6R  562   2.981   1.255  16.710 -0.0848 -1.0986  3.6197
    5DOPE   H6S  563   3.149   1.281  16.761 -1.1160 -2.1071 -0.0993
    5DOPE   C27  564   3.068   1.444  16.632 -0.4340  0.7958  0.0107
    5DOPE   H7R  565   3.139   1.407  16.555 -0.4294 -0.5955  0.6418
    5DOPE   H7S  566   3.093   1.545  16.669  0.7730  0.1298  1.0789
    5DOPE   C28  567   2.933   1.455  16.550  0.0399 -0.0813  0.0881
    5DOPE   H8R  568   2.857   1.494  16.622  0.1310  0.4927 -0.1219
    5DOPE   H8S  569   2.906   1.352  16.519 -1.7536  0.6924 -1.0366
    5DOPE   C29  570   2.941   1.551  16.433  0.2070 -0.2663  0.3233
    5DOPE   H9R  571   2.995   1.646  16.443  0.9152 -0.2290 -2.7089
    5DOPE  C210  572   2.899   1.520  16.310  0.3105 -0.0547 -0.2283
    5DOPE  H10R  573   2.914   1.595  16.230 -0.7106 -0.7393 -1.1025
    5DOPE  C211  574   2.838   1.390  16.270 -0.5580  0.6679  0.0532
    5DOPE  H11R  575   2.732   1.406  16.242 -1.2314 -0.6358  1.6151
    5DOPE  H11S  576   2.837   1.313  16.351  0.0355  1.0862  0.4653
    5DOPE  C212  577   2.909   1.329  16.147  0.2963 -0.4013 -0.4793
    5DOPE  H12R  578   2.862   1.231  16.127 -1.3660 -0.0345  1.2781
    5DOPE  H12S  579   3.017   1.306  16.162  0.5023  1.3790  1.3129
    5DOPE  C213  580   2.891   1.410  16.017  0.2103  0.6212 -0.1067
    5DOPE  H13R  581   2.961   1.496  16.008  1.7409 -0.5976 -0.2772
    5DOPE  H13S  582   2.787   1.450  16.020  0.2836  0.9243 -1.2166
    5DOPE  C214  583   2.885   1.324  15.887 -0.4541  1.4902 -1.0245
    5DOPE  H14R  584   2.794   1.261  15.892 -0.3208  1.4075  0.9726
    5DOPE  H14S  585   2.978   1.264  15.884 -0.8849  0.8264 -1.5728
    5DOPE  C215  586   2.889   1.410  15.762 -0.9205 -0.3400  0.3239
    5DOPE  H15R  587   2.989   1.459  15.756 -1.6501  1.3555  1.3276
    5DOPE  H15S  588   2.824   1.498  15.781  1.2608  1.5129 -0.3335
    5DOPE  C216  589   2.851   1.335  15.639  0.8018 -0.5669 -0.2684
    5DOPE  H16R  590   2.756   1.284  15.667 -0.3930 -0.5800 -3.8907
    5DOPE  H16S  591   2.929   1.257  15.626  1.0116 -0.2886 -0.6979
    5DOPE  C217  592   2.821   1.427  15.517 -0.2523  0.6857 -0.0760
    5DOPE  H17R  593   2.849   1.361  15.432  0.3014 -0.1122  0.7113
    5DOPE  H17S  594   2.891   1.514  15.519  0.7438 -0.1008 -0.3185
    5DOPE  C218  595   2.678   1.486  15.495 -0.1733  0.3946 -0.2025
    5DOPE  H18R  596   2.649   1.546  15.584  1.3944 -0.5621  1.0328
    5DOPE  H18S  597   2.602   1.406  15.505  0.3206 -0.0937 -0.2971
    5DOPE  H18T  598   2.660   1.535  15.397  0.1260 -1.8863 -1.4779
    5DOPE   C33  599   3.441   1.175  16.857  0.5216  0.6953 -0.0189
    5DOPE   H3X  600   3.333   1.172  16.830  0.7440 -0.7046 -0.8363
    5DOPE   H3Y  601   3.473   1.077  16.898 -2.5788 -0.0534  0.8770
    5DOPE   C34  602   3.523   1.188  16.731 -0.7206 -0.1788 -0.1995
    5DOPE   H4X  603   3.627   1.186  16.770  0.2790  1.8904 -2.5347
    5DOPE   H4Y  604   3.496   1.103  16.664 -0.1424 -1.7927  1.5326
    5DOPE   C35  605   3.513   1.311  16.636  0.0094  0.3108 -0.6136
    5DOPE   H5X  606   3.546   1.406  16.683 -0.8055  1.2877 -1.9435
    5DOPE   H5Y  607   3.406   1.324  16.607 -0.5032 -1.0735  0.5360
    5DOPE   C36  608   3.602   1.291  16.509 -0.0268  0.4229 -0.6004
    5DOPE   H6X  609   3.555   1.217  16.441  0.0237  2.1099 -2.5586
    5DOPE   H6Y  610   3.707   1.275  16.541 -0.6873  3.4391  4.1701
    5DOPE   C37  611   3.609   1.419  16.429 -0.1555  0.4495  0.5190
    5DOPE   H7X  612   3.516   1.442  16.372 -1.0898 -1.0885  1.3610
    5DOPE   H7Y  613   3.632   1.510  16.488 -1.5016  0.3907  1.1819
    5DOPE   C38  614   3.710   1.400  16.312  0.3023 -0.1183 -0.2062
    5DOPE   H8X  615   3.813   1.388  16.351  0.2359  2.0596  0.8396
    5DOPE   H8Y  616   3.705   1.502  16.269 -1.9563  1.2374  2.8591
    5DOPE   C39  617   3.674   1.292  16.211  0.5924  0.3788 -0.9638
    5DOPE   H9X  618   3.591   1.227  16.242  1.1012  0.1273 -0.0951
    5DOPE  C310  619   3.727   1.272  16.088  0.5684  0.5491  0.4343
    5DOPE  H10X  620   3.676   1.195  16.028  0.9128 -0.4207  1.3611
    5DOPE  C311  621   3.844   1.342  16.027 -0.5241  0.3144 -0.7285
    5DOPE  H11X  622   3.890   1.407  16.105 -0.8552 -1.3427  0.9288
    5DOPE  H11Y  623   3.919   1.265  15.999 -1.0162 -1.0322  1.4328
    5DOPE  C312  624   3.812   1.432  15.902  0.5188  0.5979  0.3360
    5DOPE  H12X  625   3.901   1.498  15.895  0.9813  0.0141  0.5987
    5DOPE  H12Y  626   3.719   1.492  15.916  1.1215  1.6487 -0.0354
    5DOPE  C313  627   3.813   1.337  15.776 -0.2975  0.3846  0.0718
    5DOPE  H13X  628   3.917   1.310  15.747  0.5180  1.6448  1.6253
    5DOPE  H13Y  629   3.766   1.239  15.800  0.5859  0.1726  1.0215
    5DOPE  C314  630   3.744   1.407  15.656 -0.2293 -0.1303 -0.4436
    5DOPE  H14X  631   3.813   1.483  15.614  0.9777 -0.0812  1.4804
    5DOPE  H14Y  632   3.643   1.444  15.684 -0.0832  0.4765 -0.7076
    5DOPE  C315  633   3.739   1.302  15.542  0.2849  0.6428 -0.1213
    5DOPE  H15X  634   3.699   1.208  15.585  1.3184  0.9927  1.7334
    5DOPE  H15Y  635   3.838   1.272  15.503 -0.8395 -1.0970 -1.8146
    5DOPE  C316  636   3.664   1.340  15.419 -0.1822  0.0212 -0.2002
    5DOPE  H16X  637   3.701   1.436  15.376  0.0986  0.2620  0.5638
    5DOPE  H16Y  638   3.557   1.359  15.438 -0.0287  1.6234 -0.7504
    5DOPE  C317  639   3.687   1.240  15.306 -0.4839  0.2197 -0.1140
    5DOPE  H17X  640   3.793   1.210  15.292 -0.8003 -1.5803  1.0165
    5DOPE  H17Y  641   3.640   1.144  15.339  2.6791 -1.2175  0.5530
    5DOPE  C318  642   3.630   1.273  15.169  0.2479  0.0119  0.2108
    5DOPE  H18X  643   3.522   1.290  15.185  0.2200 -1.0775  1.2592
    5DOPE  H18Y  644   3.672   1.366  15.124 -0.0784  0.5092  0.9264
    5DOPE  H18Z  645   3.639   1.191  15.094  1.8656  0.9665 -0.7011
    6DOPE     N  646   2.889   1.781  17.590 -0.0593 -0.3605  0.3569
    6DOPE   HN1  647   2.907   1.822  17.496 -3.8165  0.3129 -0.2075
    6DOPE   HN2  648   2.985   1.775  17.629  1.5376  0.0658 -3.1195
    6DOPE   HN3  649   2.850   1.686  17.572 -0.8331 -0.0284  0.2764
    6DOPE   C12  650   2.809   1.869  17.678 -0.5225 -0.3593 -0.1825
    6DOPE  H12A  651   2.782   1.814  17.771  0.7500  1.1830  1.1449
    6DOPE  H12B  652   2.721   1.899  17.617 -0.2933 -1.5203 -1.1292
    6DOPE   C11  653   2.892   1.998  17.719 -0.0191 -1.0214  0.0055
    6DOPE  H11A  654   2.969   1.965  17.792 -0.4453  0.2174  1.0484
    6DOPE  H11B  655   2.829   2.071  17.773 -0.3792 -1.9136  0.8106
    6DOPE     P  656   3.045   2.186  17.631 -0.2496  0.1510  0.5293
    6DOPE   O13  657   3.184   2.159  17.585  0.4209 -0.1454 -0.2101
    6DOPE   O14  658   3.026   2.228  17.774  0.0447 -0.2158  0.4805
    6DOPE   O11  659   2.979   2.294  17.531 -0.3323 -0.0107 -0.0114
    6DOPE   O12  660   2.959   2.059  17.606  0.1313  0.4726 -0.0102
    6DOPE    C1  661   2.855   2.275  17.469  0.5255 -0.2696  0.1494
    6DOPE    HA  662   2.808   2.374  17.452  2.5889  0.8897  0.8593
    6DOPE    HB  663   2.786   2.227  17.541 -0.2263  0.8904  0.2223
    6DOPE    C2  664   2.872   2.206  17.336  0.6646  0.4151  0.6350
    6DOPE    HS  665   2.972   2.158  17.329 -0.0777 -1.0726 -0.3044
    6DOPE   O21  666   2.854   2.303  17.236 -0.6012 -0.5537 -0.0780
    6DOPE   C21  667   2.935   2.293  17.138 -0.4684 -0.1727  0.1843
    6DOPE   O22  668   3.039   2.235  17.138 -0.3027  0.2325  0.9098
    6DOPE   C22  669   2.900   2.381  17.021 -0.3285 -1.0902 -0.4582
    6DOPE   H2R  670   2.950   2.479  17.038 -2.3909 -0.1270  0.3954
    6DOPE   H2S  671   2.793   2.413  17.026  0.4024  1.5075  0.8314
    6DOPE    C3  672   2.762   2.098  17.320 -0.2262 -0.0714 -0.5589
    6DOPE    HX  673   2.659   2.141  17.321  0.3052  1.3682  2.3236
    6DOPE    HY  674   2.779   2.045  17.416  1.9875  1.4176 -0.0500
    6DOPE   O31  675   2.779   2.013  17.207 -0.1761  0.3451  0.0595
    6DOPE   C31  676   2.836   1.892  17.226 -0.0087 -0.6270  1.3078
    6DOPE   O32  677   2.876   1.843  17.332  0.3704  0.0102 -0.2109
    6DOPE   C32  678   2.857   1.834  17.085  0.1757 -0.1693 -0.2248
    6DOPE   H2X  679   2.931   1.754  17.105 -1.5121 -1.8480 -0.4027
    6DOPE   H2Y  680   2.757   1.790  17.065 -0.7555 -0.1590  3.6177
    6DOPE   C23  681   2.921   2.322  16.888 -0.2839 -0.2001 -0.6328
    6DOPE   H3R  682   2.837   2.258  16.854 -0.9976  0.1650  0.3841
    6DOPE   H3S  683   3.016   2.265  16.889 -0.6556 -0.8910  1.8987
    6DOPE   C24  684   2.958   2.429  16.784 -0.6001  0.0448  0.0942
    6DOPE   H4R  685   3.032   2.504  16.817 -0.9821  0.0866  0.8779
    6DOPE   H4S  686   2.866   2.488  16.769  0.1963  1.2468 -0.1586
    6DOPE   C25  687   2.983   2.377  16.645 -0.2999 -0.2666  0.3211
    6DOPE   H5R  688   2.935   2.279  16.620 -0.6634 -0.3586  1.3353
    6DOPE   H5S  689   3.093   2.362  16.642  0.0057  1.7635  0.1611
    6DOPE   C26  690   2.943   2.473  16.532 -0.1067 -0.8963 -0.3320
    6DOPE   H6R  691   2.977   2.577  16.551 -0.3037 -1.0432  0.9303
    6DOPE   H6S  692   2.832   2.477  16.525 -0.3344  2.8050  2.3122
    6DOPE   C27  693   3.016   2.434  16.397  0.5493 -0.3793 -0.5128
    6DOPE   H7R  694   2.974   2.337  16.362 -1.1145  1.0566 -2.7430
    6DOPE   H7S  695   3.125   2.424  16.413  0.2547 -1.1200  1.3215
    6DOPE   C28  696   2.997   2.541  16.285  0.0435 -0.4191  0.0385
    6DOPE   H8R  697   3.069   2.516  16.205  0.9372  1.0484  0.3261
    6DOPE   H8S  698   3.039   2.634  16.330 -0.4301 -0.4964  0.6582
    6DOPE   C29  699   2.852   2.554  16.242  0.3409  0.3633 -0.0638
    6DOPE   H9R  700   2.790   2.613  16.312  2.9102 -0.3714  3.0965
    6DOPE  C210  701   2.785   2.472  16.154 -0.3388  0.0832  0.4236
    6DOPE  H10R  702   2.676   2.472  16.138 -0.1646 -0.2660 -0.8504
    6DOPE  C211  703   2.850   2.376  16.065  0.0534  0.7555 -0.3864
    6DOPE  H11R  704   2.791   2.282  16.050 -1.2674  1.6485 -0.9886
    6DOPE  H11S  705   2.935   2.328  16.118 -0.0139  0.7152 -0.3141
    6DOPE  C212  706   2.899   2.418  15.932 -0.3555  0.1865 -0.2111
    6DOPE  H12R  707   2.972   2.502  15.937 -1.8461  1.5199 -0.0047
    6DOPE  H12S  708   2.818   2.444  15.860 -1.4365 -2.5061 -0.0973
    6DOPE  C213  709   2.970   2.298  15.854 -0.0727  0.1387 -0.0918
    6DOPE  H13R  710   2.903   2.210  15.856  0.7788 -0.5170  0.0243
    6DOPE  H13S  711   3.061   2.270  15.911 -0.9632 -1.6869  0.4916
    6DOPE  C214  712   3.016   2.338  15.712  0.1696 -1.1839  0.1430
    6DOPE  H14R  713   2.934   2.392  15.661  0.8366 -1.6243 -1.4354
    6DOPE  H14S  714   3.033   2.244  15.656 -3.6248 -0.2335 -3.0255
    6DOPE  C215  715   3.133   2.429  15.706  0.0918  0.3166 -0.7207
    6DOPE  H15R  716   3.216   2.391  15.769 -0.2394  1.7525  0.6611
    6DOPE  H15S  717   3.100   2.522  15.757 -1.4780  0.5668 -2.0784
    6DOPE  C216  718   3.184   2.469  15.567 -0.3200  0.5398 -0.2298
    6DOPE  H16R  719   3.199   2.371  15.516 -0.0246  0.9301 -0.9130
    6DOPE  H16S  720   3.287   2.511  15.571 -0.4107  0.8043 -0.6245
    6DOPE  C217  721   3.090   2.546  15.485 -0.9396 -0.4743  0.2312
    6DOPE  H17R  722   3.046   2.625  15.551 -0.1408  0.1982 -0.0184
    6DOPE  H17S  723   3.003   2.481  15.463 -2.1327  0.5147  1.7419
    6DOPE  C218  724   3.141   2.603  15.347  0.2065  0.2785 -0.1745
    6DOPE  H18R  725   3.187   2.518  15.291 -2.1927 -1.5159  0.3985
    6DOPE  H18S  726   3.214   2.685  15.363  1.5042 -0.5968 -1.3281
    6DOPE  H18T  727   3.067   2.641  15.273 -1.7654 -3.1502 -0.1883
    6DOPE   C33  728   2.898   1.934  16.980  0.0570 -0.1527 -0.2367
    6DOPE   H3X  729   2.982   1.997  17.016  0.6983  0.2110 -2.2699
    6DOPE   H3Y  730   2.823   2.010  16.952  1.5673  1.1751 -0.8316
    6DOPE   C34  731   2.946   1.871  16.848  0.3175 -0.5926  0.3277
    6DOPE   H4X  732   3.045   1.829  16.873  1.1520  1.4047  0.5991
    6DOPE   H4Y  733   2.886   1.785  16.812 -0.2492  0.7375 -2.1549
    6DOPE   C35  734   2.960   1.984  16.736 -0.1994  0.0110  0.7197
    6DOPE   H5X  735   3.024   2.063  16.781  0.7195  0.9726 -2.0827
    6DOPE   H5Y  736   2.860   2.024  16.710  0.5651  0.7636 -1.2309
    6DOPE   C36  737   3.037   1.929  16.618  0.5011  0.5967  1.0426
    6DOPE   H6X  738   3.005   1.825  16.596  1.6778  0.5015 -0.3675
    6DOPE   H6Y  739   3.140   1.909  16.657 -0.1883 -1.9852  1.7652
    6DOPE   C37  740   3.034   2.009  16.484 -0.0765  0.2113  0.1637
    6DOPE   H7X  741   3.044   2.115  16.518 -0.8828 -0.4660  2.7121
    6DOPE   H7Y  742   3.130   1.997  16.430 -0.4265 -1.0270 -0.1987
    6DOPE   C38  743   2.912   1.981  16.403 -0.2248  0.1234  0.1963
    6DOPE   H8X  744   2.810   2.009  16.437 -1.3236 -2.9618 -0.2082
    6DOPE   H8Y  745   2.902   1.870  16.397 -1.3199  0.2952 -2.4733
    6DOPE   C39  746   2.941   2.054  16.280  0.2992 -1.0805  0.0212
    6DOPE   H9X  747   2.992   2.150  16.292 -2.1580  0.1607  1.1664
    6DOPE  C310  748   2.909   2.020  16.152  0.4512  0.4248  0.0560
    6DOPE  H10X  749   2.932   2.089  16.069 -1.2526  2.3432  1.0858
    6DOPE  C311  750   2.836   1.897  16.112 -0.0899 -0.1671  0.5268
    6DOPE  H11X  751   2.803   1.840  16.201  0.6955 -1.2464  0.1496
    6DOPE  H11Y  752   2.737   1.925  16.069  1.3702  2.1614 -1.5916
    6DOPE  C312  753   2.899   1.813  16.005 -0.1248 -0.1299 -0.1721
    6DOPE  H12X  754   2.835   1.722  15.998 -1.5270  0.6308  1.8714
    6DOPE  H12Y  755   2.994   1.769  16.042  0.9870  1.2618 -1.2854
    6DOPE  C313  756   2.913   1.885  15.875  0.5598 -0.2954 -0.1003
    6DOPE  H13X  757   2.810   1.919  15.850  0.7369  0.1031 -0.3045
    6DOPE  H13Y  758   2.976   1.976  15.886  0.6824 -0.5698  1.9281
    6DOPE  C314  759   2.962   1.793  15.770 -0.0357  0.5202  0.5868
    6DOPE  H14X  760   2.902   1.799  15.677  0.0205 -1.1561  0.4045
    6DOPE  H14Y  761   2.931   1.692  15.807 -0.5564  0.5069  0.1310
    6DOPE  C315  762   3.112   1.806  15.737  0.3122  0.2704  0.7066
    6DOPE  H15X  763   3.147   1.714  15.686 -0.4452 -0.7045  1.8942
    6DOPE  H15Y  764   3.175   1.799  15.828 -1.5235 -0.8168  1.9419
    6DOPE  C316  765   3.149   1.933  15.657  0.1151  0.9116  0.2898
    6DOPE  H16X  766   3.259   1.941  15.651  0.4148 -0.8654  2.1016
    6DOPE  H16Y  767   3.105   2.025  15.701 -1.4547 -0.3204  1.3985
    6DOPE  C317  768   3.098   1.920  15.510  0.5756  0.5180  0.2545
    6DOPE  H17X  769   3.136   1.823  15.471 -2.8085 -0.5531 -0.7287
    6DOPE  H17Y  770   2.987   1.920  15.513  0.4653 -3.1188  0.5417
    6DOPE  C318  771   3.141   2.043  15.427 -0.5756  0.0357  0.0494
    6DOPE  H18X  772   3.124   2.141  15.477  2.0710  0.4862  0.1976
    6DOPE  H18Y  773   3.250   2.035  15.409 -0.3999 -2.2713  1.7492
    6DOPE  H18Z  774   3.097   2.049  15.325  2.1221  1.2587 -1.1484
    7DOPE     N  775   5.565   2.001  17.456 -0.4690  0.9655 -0.1354
    7DOPE   HN1  776   5.581   1.958  17.549 -0.8167 -2.9614 -1.7125
    7DOPE   HN2  777   5.464   2.005  17.432 -0.3342  0.9092 -0.7428
    7DOPE   HN3  778   5.612   1.931  17.394  1.2166 -0.0104  2.0951
    7DOPE   C12  779   5.629   2.134  17.435 -0.7634  0.1765 -0.1739
    7DOPE  H12A  780   5.599   2.167  17.334 -2.2722  0.2975  0.2898
    7DOPE  H12B  781   5.740   2.130  17.425 -0.4433  0.9242  2.2546
    7DOPE   C11  782   5.610   2.235  17.550  0.7314 -0.5123 -0.3183
    7DOPE  H11A  783   5.659   2.333  17.535 -0.3158  0.0764 -0.0007
    7DOPE  H11B  784   5.656   2.204  17.646 -4.1128 -1.0220  2.1979
    7DOPE     P  785   5.398   2.368  17.520  0.0137 -0.3618  0.0191
    7DOPE   O13  786   5.463   2.488  17.584  0.5677 -0.4264 -0.1806
    7DOPE   O14  787   5.256   2.349  17.527  0.3178  0.6554 -0.0608
    7DOPE   O11  788   5.441   2.366  17.367  0.1229  0.3182 -0.2829
    7DOPE   O12  789   5.474   2.242  17.579  0.0116 -0.0101  0.2494
    7DOPE    C1  790   5.460   2.492  17.306  0.4107 -0.1628 -0.5876
    7DOPE    HA  791   5.525   2.559  17.367  0.9880 -0.8901 -0.3802
    7DOPE    HB  792   5.359   2.536  17.294  0.9228  0.9454 -1.0253
    7DOPE    C2  793   5.527   2.486  17.170 -0.2664 -0.4985 -0.2373
    7DOPE    HS  794   5.460   2.422  17.109  0.1724 -0.7277 -0.4913
    7DOPE   O21  795   5.655   2.432  17.184  0.4410 -0.4644  0.1685
    7DOPE   C21  796   5.749   2.500  17.248  0.0567 -0.4294  0.4794
    7DOPE   O22  797   5.730   2.607  17.303 -0.1641 -0.1463  0.6434
    7DOPE   C22  798   5.878   2.428  17.251  0.0414 -0.0759 -0.5202
    7DOPE   H2R  799   5.906   2.394  17.353  0.0550  0.2850 -0.4014
    7DOPE   H2S  800   5.960   2.495  17.219  0.4978 -0.0518  0.6352
    7DOPE    C3  801   5.528   2.627  17.096  0.0343  0.2150  0.2466
    7DOPE    HX  802   5.575   2.708  17.156 -0.0497  1.0365 -0.7699
    7DOPE    HY  803   5.423   2.659  17.082  0.2465  1.7854  1.8996
    7DOPE   O31  804   5.593   2.626  16.971 -0.0018 -0.4982  0.3013
    7DOPE   C31  805   5.526   2.601  16.856 -0.1202  0.1187 -0.3198
    7DOPE   O32  806   5.408   2.583  16.850  0.8061 -0.1179  0.0325
    7DOPE   C32  807   5.630   2.581  16.742 -0.0825 -0.5388  0.4116
    7DOPE   H2X  808   5.692   2.674  16.745 -1.3390  0.3493 -0.0883
    7DOPE   H2Y  809   5.678   2.483  16.757 -0.4452 -1.1884 -2.3286
    7DOPE   C23  810   5.898   2.314  17.148 -0.1094 -0.3086 -0.0245
    7DOPE   H3R  811   5.824   2.237  17.176  0.0100  0.1271  1.5870
    7DOPE   H3S  812   6.000   2.275  17.169  0.0929 -0.2629 -0.8588
    7DOPE   C24  813   5.913   2.352  16.999 -0.1564  0.3350 -0.3000
    7DOPE   H4R  814   6.001   2.417  16.982 -0.9924  1.7363  0.4783
    7DOPE   H4S  815   5.825   2.414  16.971 -1.3076 -0.5914  1.0759
    7DOPE   C25  816   5.912   2.220  16.915  0.1191 -0.5101  0.7818
    7DOPE   H5R  817   5.823   2.154  16.912  0.9856 -1.6829 -1.0070
    7DOPE   H5S  818   6.003   2.159  16.934 -1.2042 -2.9115 -0.0715
    7DOPE   C26  819   5.946   2.262  16.766  0.2224  0.2402  0.6480
    7DOPE   H6R  820   6.017   2.345  16.789  0.3762 -0.3871  2.6707
    7DOPE   H6S  821   5.861   2.306  16.710 -0.0348 -1.0317  0.0158
    7DOPE   C27  822   6.017   2.161  16.678  0.4627  0.3479 -0.0305
    7DOPE   H7R  823   5.958   2.070  16.652 -0.8923  0.4667  2.2717
    7DOPE   H7S  824   6.108   2.128  16.731  1.4866  0.7711 -1.4777
    7DOPE   C28  825   6.078   2.222  16.552 -0.3736  0.2648  0.7474
    7DOPE   H8R  826   6.155   2.152  16.512 -1.9381 -1.5844  0.8186
    7DOPE   H8S  827   6.140   2.307  16.586  1.2317 -0.7502  0.4750
    7DOPE   C29  828   5.983   2.271  16.446  0.2114 -0.6034  0.6033
    7DOPE   H9R  829   5.907   2.342  16.482 -0.9316 -1.8590  0.7537
    7DOPE  C210  830   5.974   2.255  16.309 -0.0716  0.2391 -0.4703
    7DOPE  H10R  831   5.923   2.337  16.256  1.3325  2.4934  1.4137
    7DOPE  C211  832   6.058   2.170  16.220  0.1461  0.1734 -0.1038
    7DOPE  H11R  833   6.060   2.067  16.264  1.7818  1.6975  3.8574
    7DOPE  H11S  834   6.163   2.205  16.228  0.3256 -0.0870 -1.1845
    7DOPE  C212  835   6.006   2.162  16.074  0.2965 -0.3883  0.2470
    7DOPE  H12R  836   5.986   2.261  16.027 -1.3478 -0.9312 -0.2634
    7DOPE  H12S  837   5.914   2.100  16.068 -0.5903  1.0030 -1.4953
    7DOPE  C213  838   6.108   2.083  15.993  0.6174 -0.5133  0.0924
    7DOPE  H13R  839   6.110   1.976  16.021  0.2477 -0.5298  0.0703
    7DOPE  H13S  840   6.208   2.131  15.999  0.5947 -0.1334 -1.9074
    7DOPE  C214  841   6.080   2.074  15.840  0.3211 -0.6978  0.2659
    7DOPE  H14R  842   5.983   2.022  15.826  0.1233 -0.1461 -0.5227
    7DOPE  H14S  843   6.167   2.013  15.804  0.4951 -1.2849  1.6313
    7DOPE  C215  844   6.072   2.211  15.764 -0.3384 -0.8510 -0.1869
    7DOPE  H15R  845   6.162   2.276  15.765 -1.3271  0.5586  0.0223
    7DOPE  H15S  846   5.984   2.264  15.804  0.7356  0.4801  0.4820
    7DOPE  C216  847   6.055   2.182  15.611  0.5386  0.1092 -0.7269
    7DOPE  H16R  848   5.953   2.141  15.598  0.3598  0.4383 -0.3712
    7DOPE  H16S  849   6.137   2.117  15.573  2.7478  1.2582  1.7378
    7DOPE  C217  850   6.054   2.307  15.523 -0.3308 -0.7208 -0.1178
    7DOPE  H17R  851   6.155   2.346  15.546 -0.3972 -1.0008  0.6574
    7DOPE  H17S  852   5.977   2.380  15.554  0.5499  0.3772 -0.4407
    7DOPE  C218  853   6.036   2.280  15.377  0.2498  0.2093 -0.1088
    7DOPE  H18R  854   6.023   2.371  15.315 -2.1656  0.7494  1.0718
    7DOPE  H18S  855   5.970   2.191  15.366  2.2482 -1.3415 -0.1854
    7DOPE  H18T  856   6.134   2.240  15.346  0.5842  0.5443  0.4968
    7DOPE   C33  857   5.564   2.570  16.601  0.3796  0.3426 -0.5449
    7DOPE   H3X  858   5.507   2.662  16.575  1.3274  1.3182  0.7249
    7DOPE   H3Y  859   5.490   2.488  16.602  0.4374  0.2968  0.6816
    7DOPE   C34  860   5.667   2.555  16.490 -0.7724 -0.1729 -0.2186
    7DOPE   H4X  861   5.743   2.634  16.510 -2.6264  0.9978  2.8239
    7DOPE   H4Y  862   5.715   2.457  16.512  0.5617  0.9691  2.4151
    7DOPE   C35  863   5.596   2.556  16.353 -0.4670 -0.4107  0.1354
    7DOPE   H5X  864   5.527   2.641  16.331  2.0153  1.2697 -1.7420
    7DOPE   H5Y  865   5.552   2.462  16.315  0.4314 -0.6541 -0.3181
    7DOPE   C36  866   5.705   2.586  16.243 -0.6061 -0.0754 -0.2010
    7DOPE   H6X  867   5.770   2.496  16.236  0.3579  0.4287  1.6130
    7DOPE   H6Y  868   5.761   2.678  16.271 -2.6919  1.0560  0.5012
    7DOPE   C37  869   5.629   2.604  16.111 -0.7169 -0.0317  0.3268
    7DOPE   H7X  870   5.549   2.527  16.116  0.2004 -0.9600  3.5877
    7DOPE   H7Y  871   5.581   2.704  16.113 -1.6111 -0.4477  0.2392
    7DOPE   C38  872   5.726   2.585  15.990  0.0713 -0.0660  0.0734
    7DOPE   H8X  873   5.776   2.486  15.985  1.7769  0.7091  0.7909
    7DOPE   H8Y  874   5.803   2.665  16.005 -0.0316  0.1372 -0.4599
    7DOPE   C39  875   5.636   2.623  15.877  0.0522  0.7566  0.0049
    7DOPE   H9X  876   5.546   2.682  15.898 -1.3111 -0.8133 -1.2794
    7DOPE  C310  877   5.676   2.619  15.749  0.5440  0.3714  0.1893
    7DOPE  H10X  878   5.600   2.643  15.673  2.1096  0.0650 -1.5457
    7DOPE  C311  879   5.804   2.582  15.684 -0.1589 -0.6685  0.2516
    7DOPE  H11X  880   5.888   2.583  15.757 -1.7751 -0.4914  2.1966
    7DOPE  H11Y  881   5.798   2.478  15.645 -0.6906  0.2233 -2.2080
    7DOPE  C312  882   5.851   2.664  15.560  0.1371  0.1528  0.7305
    7DOPE  H12X  883   5.954   2.624  15.543 -0.3268 -0.9134  0.3854
    7DOPE  H12Y  884   5.861   2.771  15.591  1.7218 -0.1076  1.2481
    7DOPE  C313  885   5.758   2.654  15.436  0.1529 -0.2315  0.4215
    7DOPE  H13X  886   5.737   2.545  15.437  2.4084 -0.7235  0.5714
    7DOPE  H13Y  887   5.669   2.715  15.463  1.1361  1.4574 -0.0532
    7DOPE  C314  888   5.821   2.723  15.316 -0.0411  0.3538 -0.3326
    7DOPE  H14X  889   5.918   2.669  15.309 -0.9618 -1.4386  0.3369
    7DOPE  H14Y  890   5.841   2.831  15.334  1.5346  0.2111 -1.0496
    7DOPE  C315  891   5.735   2.720  15.189 -0.6548 -0.1596 -0.2540
    7DOPE  H15X  892   5.644   2.782  15.202 -0.6157 -0.3491  1.0394
    7DOPE  H15Y  893   5.712   2.616  15.158  1.7587 -0.0816 -2.7596
    7DOPE  C316  894   5.811   2.780  15.069 -0.0810 -0.0229  0.3742
    7DOPE  H16X  895   5.896   2.711  15.048 -0.2537 -0.0289 -0.3115
    7DOPE  H16Y  896   5.850   2.880  15.097 -2.4276  0.9822  0.2706
    7DOPE  C317  897   5.737   2.779  14.932  0.0014  0.0573 -0.8042
    7DOPE  H17X  898   5.801   2.847  14.872 -0.1858  0.4613 -0.5526
    7DOPE  H17Y  899   5.743   2.675  14.894 -0.7301 -1.0357  1.8282
    7DOPE  C318  900   5.583   2.824  14.939 -0.4709  0.0489  0.3199
    7DOPE  H18X  901   5.559   2.886  15.028 -0.7889  1.6351 -0.8383
    7DOPE  H18Y  902   5.560   2.888  14.851  1.5038 -0.9900 -1.0432
    7DOPE  H18Z  903   5.519   2.734  14.949  2.4183 -2.2733 -0.4111
    8DOPE     N  904   1.562   2.042  17.895  0.0337 -0.3395  0.2910
    8DOPE   HN1  905   1.533   2.062  17.797 -1.7055  1.3002  1.0570
    8DOPE   HN2  906   1.665   2.029  17.901 -0.0324 -1.3406 -0.4826
    8DOPE   HN3  907   1.521   1.949  17.917 -0.1225 -0.1637  0.7546
    8DOPE   C12  908   1.511   2.153  17.981  0.5001 -0.4770 -0.3143
    8DOPE  H12A  909   1.551   2.249  17.941  0.5202 -0.0674  0.6757
    8DOPE  H12B  910   1.557   2.153  18.082 -0.5704  0.7952  0.2033
    8DOPE   C11  911   1.360   2.169  17.990  0.6460  0.3456 -0.5283
    8DOPE  H11A  912   1.316   2.078  18.035  0.9570  0.6687  0.4454
    8DOPE  H11B  913   1.336   2.173  17.881  1.9806 -0.2319 -0.8617
    8DOPE     P  914   1.171   2.334  18.080 -0.0098 -0.0967 -0.4837
    8DOPE   O13  915   1.181   2.463  18.158 -0.0411  0.2078 -0.5091
    8DOPE   O14  916   1.083   2.228  18.134  0.2179 -0.2322  0.3936
    8DOPE   O11  917   1.140   2.364  17.929  0.3496 -0.1766  0.3350
    8DOPE   O12  918   1.317   2.280  18.072  0.2314 -0.0887  0.3652
    8DOPE    C1  919   1.015   2.324  17.875 -0.6734  0.0803  0.1577
    8DOPE    HA  920   1.000   2.400  17.795 -1.7765  1.7921  1.9187
    8DOPE    HB  921   0.933   2.347  17.946 -0.1847  1.5714  0.2775
    8DOPE    C2  922   1.012   2.188  17.814  0.3980 -0.8308 -0.2011
    8DOPE    HS  923   1.098   2.122  17.834  1.1415  0.1805 -0.0076
    8DOPE   O21  924   0.980   2.201  17.670  0.0161 -0.0367 -0.0135
    8DOPE   C21  925   1.086   2.186  17.594 -0.0571 -0.6172  0.0985
    8DOPE   O22  926   1.200   2.179  17.637 -0.3059 -0.3423 -0.5333
    8DOPE   C22  927   1.040   2.196  17.450  0.5865 -0.2526  0.4683
    8DOPE   H2R  928   1.021   2.303  17.428  2.3805 -0.0956 -0.4905
    8DOPE   H2S  929   0.940   2.148  17.441 -0.9328  2.9365 -1.6936
    8DOPE    C3  930   0.898   2.106  17.876  0.0796 -0.2527  0.5624
    8DOPE    HX  931   0.803   2.163  17.872  0.2076  0.1045  2.0385
    8DOPE    HY  932   0.923   2.120  17.983  1.3791  1.6758  0.0409
    8DOPE   O31  933   0.902   1.969  17.843 -0.6816 -0.2159 -0.3978
    8DOPE   C31  934   0.781   1.925  17.799 -0.4649 -0.0447 -0.5384
    8DOPE   O32  935   0.676   1.988  17.798  0.2403  0.3997 -0.5837
    8DOPE   C32  936   0.802   1.782  17.745  0.2384  0.3831 -0.1417
    8DOPE   H2X  937   0.905   1.784  17.705  0.8566 -0.7227  1.3056
    8DOPE   H2Y  938   0.782   1.714  17.831  0.0059  2.4119  1.5028
    8DOPE   C23  939   1.134   2.123  17.341 -0.0926  0.1603 -0.7157
    8DOPE   H3R  940   1.147   2.016  17.365 -0.6311  0.3067  0.2833
    8DOPE   H3S  941   1.238   2.162  17.345 -0.2288  0.4150  2.5427
    8DOPE   C24  942   1.085   2.127  17.199  0.0653 -0.9561  0.0531
    8DOPE   H4R  943   1.083   2.234  17.169 -0.0799 -0.8752  0.3457
    8DOPE   H4S  944   0.979   2.101  17.174  0.0814  0.2292 -1.3665
    8DOPE   C25  945   1.181   2.044  17.110 -0.3131  0.3439 -1.1434
    8DOPE   H5R  946   1.155   1.938  17.131  0.1858  0.1086 -1.6870
    8DOPE   H5S  947   1.286   2.059  17.143  0.1537  1.2613 -2.9321
    8DOPE   C26  948   1.177   2.087  16.960  0.1464 -0.5860  0.1507
    8DOPE   H6R  949   1.216   2.187  16.931 -1.5823  1.0816  3.1438
    8DOPE   H6S  950   1.067   2.087  16.941 -0.0259  0.8762  1.0523
    8DOPE   C27  951   1.254   1.994  16.862 -0.1216 -0.0675 -0.6251
    8DOPE   H7R  952   1.242   1.893  16.908  0.9614 -0.4877 -1.2316
    8DOPE   H7S  953   1.361   2.025  16.863 -0.8335  2.6209  0.2767
    8DOPE   C28  954   1.213   1.989  16.716 -0.1460  0.7011  0.5571
    8DOPE   H8R  955   1.280   1.916  16.666 -2.0557  0.4442 -1.8192
    8DOPE   H8S  956   1.228   2.088  16.668 -0.6544 -0.6137 -2.6028
    8DOPE   C29  957   1.072   1.934  16.695  0.2517  0.1621 -0.1030
    8DOPE   H9R  958   1.033   1.885  16.785 -1.8181  0.6648 -0.6576
    8DOPE  C210  959   0.989   1.965  16.592 -0.7325  0.5066 -0.4113
    8DOPE  H10R  960   0.889   1.918  16.588  0.0832 -1.3739 -0.1144
    8DOPE  C211  961   1.030   2.053  16.475  0.6651  0.1347  0.5279
    8DOPE  H11R  962   1.115   2.122  16.491 -0.4588  1.0591  2.9232
    8DOPE  H11S  963   0.947   2.124  16.454  0.6401 -0.1575 -0.4370
    8DOPE  C212  964   1.051   1.995  16.333 -0.7646  0.0047  0.3270
    8DOPE  H12R  965   0.956   1.946  16.302 -0.1106 -0.9705 -0.1953
    8DOPE  H12S  966   1.119   1.909  16.350  1.1852  1.1783 -1.0851
    8DOPE  C213  967   1.105   2.086  16.222 -1.0626 -0.1527  0.0321
    8DOPE  H13R  968   1.132   2.024  16.134  2.2770 -0.6648  1.2634
    8DOPE  H13S  969   1.195   2.133  16.267 -0.5928 -1.7088  0.7805
    8DOPE  C214  970   1.007   2.200  16.196  0.5959 -0.2696  0.4451
    8DOPE  H14R  971   1.017   2.245  16.297  0.4259 -1.1710  0.8814
    8DOPE  H14S  972   0.901   2.171  16.180  1.2098 -2.2790 -0.2857
    8DOPE  C215  973   1.053   2.312  16.098 -0.0466 -0.6315 -0.0988
    8DOPE  H15R  974   1.160   2.341  16.109  1.0588 -3.7661 -1.3577
    8DOPE  H15S  975   0.988   2.399  16.119  0.1040 -0.5992  0.2367
    8DOPE  C216  976   1.037   2.268  15.955  0.3804  0.4765  0.0082
    8DOPE  H16R  977   0.939   2.248  15.907  0.1340 -2.6437  1.5299
    8DOPE  H16S  978   1.092   2.171  15.953 -0.7832 -0.2437  1.0609
    8DOPE  C217  979   1.120   2.362  15.859  0.3898  0.8312 -0.2973
    8DOPE  H17R  980   1.223   2.369  15.899  0.9025 -2.1758 -0.8715
    8DOPE  H17S  981   1.074   2.460  15.884 -2.2037 -0.1636 -0.8007
    8DOPE  C218  982   1.109   2.327  15.713 -0.3229 -0.1378  0.2616
    8DOPE  H18R  983   1.168   2.236  15.689 -0.8607  0.2816 -3.0299
    8DOPE  H18S  984   1.142   2.411  15.647 -0.5211  0.9530  1.4916
    8DOPE  H18T  985   1.006   2.297  15.686 -1.3852  2.6432  0.8548
    8DOPE   C33  986   0.714   1.749  17.627 -0.0546 -1.0220  0.1841
    8DOPE   H3X  987   0.607   1.780  17.633  0.5616  1.3763 -0.4563
    8DOPE   H3Y  988   0.708   1.638  17.621  1.1476 -1.0626 -0.6089
    8DOPE   C34  989   0.771   1.817  17.497  0.8018 -0.1472 -0.4147
    8DOPE   H4X  990   0.772   1.928  17.504 -0.5657 -0.1357 -0.2332
    8DOPE   H4Y  991   0.871   1.775  17.472  1.3272  0.6988  0.2052
    8DOPE   C35  992   0.680   1.778  17.379  0.0024  0.1565 -0.0315
    8DOPE   H5X  993   0.575   1.809  17.399  0.9683  3.0541  1.1295
    8DOPE   H5Y  994   0.693   1.670  17.359 -0.2465 -0.0749  1.0091
    8DOPE   C36  995   0.701   1.851  17.242  0.1709 -0.5590 -0.1272
    8DOPE   H6X  996   0.685   1.961  17.246  0.7002 -0.4219 -1.2118
    8DOPE   H6Y  997   0.624   1.804  17.178 -1.5496  2.3763 -0.3990
    8DOPE   C37  998   0.842   1.828  17.177 -0.2075 -0.6914  0.1937
    8DOPE   H7X  999   0.894   1.913  17.225 -2.1877 -0.8554  2.8475
    8DOPE   H7Y 1000   0.868   1.729  17.222  2.6203 -0.3741 -0.5417
    8DOPE   C38 1001   0.852   1.819  17.025 -0.5221 -0.1352  0.5591
    8DOPE   H8X 1002   0.803   1.721  17.008  0.5337 -0.8721  1.6276
    8DOPE   H8Y 1003   0.956   1.805  16.988 -1.0411 -1.1015 -0.6029
    8DOPE   C39 1004   0.805   1.931  16.941 -0.1174 -0.0428  0.3914
    8DOPE   H9X 1005   0.846   2.030  16.966 -1.5910  0.2187  1.9562
    8DOPE  C310 1006   0.712   1.915  16.842  0.2109 -0.4268 -0.2543
    8DOPE  H10X 1007   0.692   2.001  16.777 -1.9437  0.0255  0.9013
    8DOPE  C311 1008   0.667   1.782  16.784 -0.2208 -0.1988 -0.7611
    8DOPE  H11X 1009   0.752   1.711  16.792  1.7569  2.1957  0.8771
    8DOPE  H11Y 1010   0.584   1.743  16.847  1.7241  0.3517  2.3957
    8DOPE  C312 1011   0.614   1.800  16.642  0.7235  0.5969  0.2752
    8DOPE  H12X 1012   0.677   1.862  16.574  1.9375 -0.4472  0.4116
    8DOPE  H12Y 1013   0.509   1.837  16.637  0.4344 -0.3255 -1.0262
    8DOPE  C313 1014   0.599   1.662  16.572  0.5911 -0.4115  0.1572
    8DOPE  H13X 1015   0.697   1.610  16.570  0.8483  0.0760 -0.1162
    8DOPE  H13Y 1016   0.529   1.594  16.625 -0.5385  1.2560  0.9025
    8DOPE  C314 1017   0.559   1.681  16.425 -0.4974 -0.2543  0.2632
    8DOPE  H14X 1018   0.492   1.769  16.426 -0.3457 -0.1277  1.7518
    8DOPE  H14Y 1019   0.489   1.600  16.394 -2.0879  0.6489  1.3548
    8DOPE  C315 1020   0.686   1.705  16.336  0.3098  0.0579 -0.0102
    8DOPE  H15X 1021   0.728   1.602  16.326 -0.3767 -0.1338 -1.1138
    8DOPE  H15Y 1022   0.759   1.775  16.383  0.8919  0.3319 -1.2910
    8DOPE  C316 1023   0.654   1.766  16.202 -0.6854 -0.3021 -0.2492
    8DOPE  H16X 1024   0.572   1.701  16.166  0.0526 -1.4355  0.0367
    8DOPE  H16Y 1025   0.728   1.749  16.121 -0.9416  0.3950 -0.6344
    8DOPE  C317 1026   0.628   1.914  16.205 -0.5329 -0.0837  0.1069
    8DOPE  H17X 1027   0.565   1.939  16.294  0.1209 -1.4964  1.0008
    8DOPE  H17Y 1028   0.718   1.977  16.216 -0.4126 -0.0881 -0.8104
    8DOPE  C318 1029   0.556   1.962  16.080  0.5491  0.1377  0.0110
    8DOPE  H18X 1030   0.449   1.937  16.062  0.2435  2.5919 -2.0987
    8DOPE  H18Y 1031   0.603   1.918  15.990 -2.8225 -0.4144 -1.6742
    8DOPE  H18Z 1032   0.559   2.073  16.075  0.1142  0.1070 -1.3493
    9DOPE     N 1033   2.804   1.195  17.696  0.5242  0.5641  0.6263
    9DOPE   HN1 1034   2.760   1.112  17.740  0.3687  0.7067  0.7417
    9DOPE   HN2 1035   2.835   1.254  17.776 -0.3090  0.2940  1.1513
    9DOPE   HN3 1036   2.733   1.238  17.633 -0.1006  0.0622  0.9804
    9DOPE   C12 1037   2.920   1.166  17.609  0.1257 -0.3619  0.4293
    9DOPE  H12A 1038   3.009   1.203  17.663  0.1182  0.6906 -0.2491
    9DOPE  H12B 1039   2.907   1.217  17.511 -0.5026 -0.7553  0.2982
    9DOPE   C11 1040   2.927   1.016  17.583  0.1740  0.0727 -0.0771
    9DOPE  H11A 1041   3.029   0.991  17.547  1.1318 -1.8348  3.5085
    9DOPE  H11B 1042   2.856   1.003  17.499  1.0175 -2.9525 -0.4266
    9DOPE     P 1043   2.989   0.812  17.731 -0.3091 -0.0197 -0.1010
    9DOPE   O13 1044   2.908   0.724  17.822 -0.4187  0.0638  0.2704
    9DOPE   O14 1045   3.125   0.847  17.767 -0.0306 -0.9710  0.0685
    9DOPE   O11 1046   3.008   0.730  17.594  0.0410 -0.2437 -0.1072
    9DOPE   O12 1047   2.899   0.935  17.694 -0.8920  0.8064 -0.0224
    9DOPE    C1 1048   2.890   0.677  17.531 -0.3449  0.7451  0.1733
    9DOPE    HA 1049   2.800   0.740  17.549  0.3567  2.3227 -1.4465
    9DOPE    HB 1050   2.868   0.577  17.572 -0.8492 -0.2254 -2.2924
    9DOPE    C2 1051   2.899   0.653  17.379 -0.0576  0.8455 -0.1008
    9DOPE    HS 1052   2.982   0.582  17.360  0.4318  1.9409 -2.4784
    9DOPE   O21 1053   2.919   0.768  17.300 -0.1252  0.5622  0.0515
    9DOPE   C21 1054   3.048   0.799  17.266  0.0952  0.4679  0.1635
    9DOPE   O22 1055   3.138   0.729  17.311  0.5407  0.3938  0.5421
    9DOPE   C22 1056   3.059   0.927  17.187 -0.5952  0.1251 -0.0864
    9DOPE   H2R 1057   3.107   0.992  17.263 -3.3101 -0.9507  2.7533
    9DOPE   H2S 1058   2.959   0.974  17.171 -0.3882  1.4067  2.0655
    9DOPE    C3 1059   2.774   0.580  17.329 -0.2630 -0.0399  0.1028
    9DOPE    HX 1060   2.683   0.639  17.355 -1.7006 -1.4665 -1.4628
    9DOPE    HY 1061   2.778   0.483  17.382 -0.4301  1.0650  2.2462
    9DOPE   O31 1062   2.787   0.568  17.185 -0.1968 -0.2143 -0.0768
    9DOPE   C31 1063   2.706   0.475  17.132  0.3798 -0.3765 -0.4784
    9DOPE   O32 1064   2.628   0.403  17.193 -0.1269 -0.5626  0.5623
    9DOPE   C32 1065   2.738   0.462  16.988 -0.5363 -0.6249 -0.3975
    9DOPE   H2X 1066   2.842   0.423  16.988  0.4119  1.6999  0.3317
    9DOPE   H2Y 1067   2.662   0.402  16.934 -2.3841  0.2133  1.1558
    9DOPE   C23 1068   3.138   0.908  17.061  0.2115 -0.0263  0.5501
    9DOPE   H3R 1069   3.237   0.859  17.073  0.3389 -0.1257 -0.7057
    9DOPE   H3S 1070   3.164   1.008  17.022 -2.2921  0.1594 -0.8706
    9DOPE   C24 1071   3.051   0.831  16.961 -0.0828 -0.2893  0.7288
    9DOPE   H4R 1072   2.952   0.877  16.944 -0.3255 -1.4840 -1.5334
    9DOPE   H4S 1073   3.018   0.735  17.005 -0.1748 -0.5509  0.1094
    9DOPE   C25 1074   3.121   0.818  16.823  0.3536 -0.1866  0.2789
    9DOPE   H5R 1075   3.076   0.728  16.776  0.8842 -1.4969  2.1360
    9DOPE   H5S 1076   3.225   0.790  16.853 -0.0986 -1.3716  0.8116
    9DOPE   C26 1077   3.124   0.944  16.737  0.4556  0.2933 -0.3908
    9DOPE   H6R 1078   3.156   1.033  16.795  0.4391 -0.5713  0.9826
    9DOPE   H6S 1079   3.019   0.961  16.706  0.7093  1.3016 -0.7563
    9DOPE   C27 1080   3.231   0.948  16.622  0.3162 -0.2579 -0.7150
    9DOPE   H7R 1081   3.212   0.847  16.579 -3.1832  0.6727 -1.7114
    9DOPE   H7S 1082   3.335   0.965  16.656 -0.2813  1.8248  0.2501
    9DOPE   C28 1083   3.211   1.062  16.517  0.5133 -0.0446  0.2184
    9DOPE   H8R 1084   3.276   1.050  16.428  1.1661 -1.7431  0.8899
    9DOPE   H8S 1085   3.232   1.155  16.573 -1.5884  0.0064  1.0513
    9DOPE   C29 1086   3.071   1.066  16.469  0.2409 -0.1437 -0.5162
    9DOPE   H9R 1087   3.003   1.142  16.511 -0.9970 -1.4419 -0.0836
    9DOPE  C210 1088   3.025   1.010  16.360  0.3332 -0.3092  0.1175
    9DOPE  H10R 1089   2.922   1.032  16.327 -0.5894 -1.3576  2.1709
    9DOPE  C211 1090   3.112   0.925  16.277 -0.2907  0.6176 -0.8530
    9DOPE  H11R 1091   3.060   0.832  16.243 -0.6724  1.3952 -2.4835
    9DOPE  H11S 1092   3.208   0.890  16.320 -1.4916 -2.6042 -0.5170
    9DOPE  C212 1093   3.139   0.993  16.138 -0.1955 -0.4854  0.1124
    9DOPE  H12R 1094   3.180   1.095  16.156 -1.2495 -0.4305  2.5047
    9DOPE  H12S 1095   3.046   1.002  16.079  1.8551 -0.0331 -3.3424
    9DOPE  C213 1096   3.238   0.913  16.049 -0.0216 -0.3577 -0.1457
    9DOPE  H13R 1097   3.204   0.808  16.032  0.9989 -0.6370 -0.5038
    9DOPE  H13S 1098   3.323   0.896  16.118  0.5186 -0.0648 -0.7363
    9DOPE  C214 1099   3.272   0.984  15.913 -0.1597 -0.6131 -0.5108
    9DOPE  H14R 1100   3.348   1.059  15.943 -1.4194 -0.5612  3.0284
    9DOPE  H14S 1101   3.182   1.040  15.879 -1.2515 -2.2531 -0.4324
    9DOPE  C215 1102   3.313   0.885  15.805 -0.2712 -0.4722 -0.2195
    9DOPE  H15R 1103   3.235   0.806  15.818 -0.0190 -0.7494 -0.3760
    9DOPE  H15S 1104   3.408   0.832  15.828  0.0730  0.6202  0.9612
    9DOPE  C216 1105   3.311   0.954  15.666 -0.3347 -0.4279  0.2029
    9DOPE  H16R 1106   3.400   1.022  15.664 -0.0226 -0.8375 -0.2327
    9DOPE  H16S 1107   3.219   1.015  15.652  1.6456  2.5315 -1.1604
    9DOPE  C217 1108   3.319   0.847  15.558 -0.1361  0.3681 -0.2957
    9DOPE  H17R 1109   3.411   0.791  15.586  0.3244  1.6799  0.9678
    9DOPE  H17S 1110   3.355   0.900  15.467  1.6092  1.7094  1.0912
    9DOPE  C218 1111   3.197   0.759  15.535 -0.0945 -0.3902 -0.7439
    9DOPE  H18R 1112   3.222   0.680  15.462 -3.0210 -2.5326  0.3845
    9DOPE  H18S 1113   3.107   0.809  15.494  0.1296  0.6662  0.0153
    9DOPE  H18T 1114   3.167   0.705  15.628  1.5357 -0.5312 -0.2512
    9DOPE   C33 1115   2.717   0.597  16.914  1.0444 -0.3899 -0.0481
    9DOPE   H3X 1116   2.803   0.658  16.948  0.2207  0.0959  1.2572
    9DOPE   H3Y 1117   2.627   0.649  16.953  0.5183 -1.5516  0.3490
    9DOPE   C34 1118   2.710   0.588  16.764  1.0479  0.6888 -0.2967
    9DOPE   H4X 1119   2.611   0.547  16.737  0.3148  1.9352  0.4058
    9DOPE   H4Y 1120   2.702   0.690  16.722  0.7207 -0.1464 -2.4268
    9DOPE   C35 1121   2.813   0.500  16.691 -0.1412 -0.4626  0.3769
    9DOPE   H5X 1122   2.776   0.400  16.661  1.2040 -0.5121 -1.2660
    9DOPE   H5Y 1123   2.908   0.486  16.747 -0.1597 -1.5060  0.1721
    9DOPE   C36 1124   2.868   0.578  16.572 -0.3932 -0.6596 -0.5867
    9DOPE   H6X 1125   2.930   0.510  16.510 -1.2628 -0.0277 -2.2001
    9DOPE   H6Y 1126   2.929   0.663  16.610 -1.7270 -0.4124  1.1300
    9DOPE   C37 1127   2.765   0.623  16.466  0.4875  0.0864 -0.2270
    9DOPE   H7X 1128   2.705   0.536  16.429 -1.7265  2.4811 -2.7478
    9DOPE   H7Y 1129   2.696   0.689  16.523  0.1314 -0.6026  0.1607
    9DOPE   C38 1130   2.825   0.691  16.344  0.4546  1.1169 -0.2683
    9DOPE   H8X 1131   2.898   0.769  16.375  0.4322  1.1584 -0.3185
    9DOPE   H8Y 1132   2.743   0.750  16.296  0.0015  0.9410  0.2826
    9DOPE   C39 1133   2.889   0.608  16.230 -0.5413 -0.0221 -0.2285
    9DOPE   H9X 1134   2.958   0.528  16.261  0.6012 -0.3488 -3.2263
    9DOPE  C310 1135   2.865   0.605  16.101  0.1145  0.3845 -0.1352
    9DOPE  H10X 1136   2.929   0.539  16.041 -0.5552 -0.1774 -0.2413
    9DOPE  C311 1137   2.761   0.684  16.026  0.6611  0.0053  0.1326
    9DOPE  H11X 1138   2.697   0.622  15.960 -0.0356 -0.6780  1.4126
    9DOPE  H11Y 1139   2.697   0.730  16.104 -0.4928 -0.8999 -0.2513
    9DOPE  C312 1140   2.812   0.801  15.928  0.3606  0.3449 -0.1025
    9DOPE  H12X 1141   2.860   0.880  15.990 -1.1920  0.8349  0.5221
    9DOPE  H12Y 1142   2.719   0.847  15.889  1.0924 -0.6028 -3.2382
    9DOPE  C313 1143   2.902   0.763  15.807  0.7614 -0.2708  0.1882
    9DOPE  H13X 1144   3.007   0.794  15.830  1.2512 -2.5229  1.2946
    9DOPE  H13Y 1145   2.899   0.652  15.806  2.8029 -0.3616 -0.0078
    9DOPE  C314 1146   2.863   0.834  15.676  0.2721  0.1145 -0.0845
    9DOPE  H14X 1147   2.946   0.823  15.603  0.5031  0.2705  0.1525
    9DOPE  H14Y 1148   2.847   0.942  15.693 -0.4589  0.7748 -4.0094
    9DOPE  C315 1149   2.729   0.788  15.622  0.5117 -0.1301 -0.4960
    9DOPE  H15X 1150   2.705   0.865  15.547 -1.2960  0.6267  0.7834
    9DOPE  H15Y 1151   2.653   0.805  15.702  0.7756  2.1668 -0.6761
    9DOPE  C316 1152   2.712   0.648  15.567 -0.5700  0.0275  0.0862
    9DOPE  H16X 1153   2.751   0.567  15.633  0.2107  0.0898 -0.2965
    9DOPE  H16Y 1154   2.765   0.646  15.469 -0.3732  0.7707  0.1755
    9DOPE  C317 1155   2.570   0.593  15.536 -0.0518 -0.5213 -0.2019
    9DOPE  H17X 1156   2.585   0.494  15.488  0.7249 -0.1628 -0.7134
    9DOPE  H17Y 1157   2.526   0.571  15.635 -0.1712 -1.6630 -0.4864
    9DOPE  C318 1158   2.486   0.701  15.465  0.2602  0.6218  0.3767
    9DOPE  H18X 1159   2.387   0.656  15.440  1.1042 -0.5197 -1.0593
    9DOPE  H18Y 1160   2.472   0.797  15.519 -1.9020  1.0887 -0.8902
    9DOPE  H18Z 1161   2.537   0.732  15.372 -0.5607  1.4264  0.1821
   10DOPE     N 1162   2.310   1.569  17.720 -0.1091 -0.3779 -0.3022
   10DOPE   HN1 1163   2.315   1.661  17.672  0.0646 -0.6588 -0.8314
   10DOPE   HN2 1164   2.333   1.496  17.649  4.1138  0.5032 -0.1312
   10DOPE   HN3 1165   2.214   1.559  17.759  0.1018  0.4323  0.4483
   10DOPE   C12 1166   2.419   1.571  17.812 -0.2628  0.4809  0.0237
   10DOPE  H12A 1167   2.392   1.502  17.894 -0.3873  1.1780  0.5695
   10DOPE  H12B 1168   2.434   1.672  17.855 -1.8896  0.6888  0.1595
   10DOPE   C11 1169   2.545   1.508  17.757  0.1341 -0.0136  0.2514
   10DOPE  H11A 1170   2.535   1.397  17.763 -1.8441  0.1379  0.5158
   10DOPE  H11B 1171   2.630   1.538  17.821  1.0744 -0.7408 -0.6210
   10DOPE     P 1172   2.665   1.488  17.516 -0.0168  0.5592 -0.2069
   10DOPE   O13 1173   2.635   1.345  17.516 -0.1608  0.0943  0.8975
   10DOPE   O14 1174   2.802   1.541  17.534  0.0928  0.1572  0.0337
   10DOPE   O11 1175   2.615   1.546  17.383 -0.1354  0.1002 -0.5696
   10DOPE   O12 1176   2.574   1.556  17.621  0.4763  0.0162 -0.2831
   10DOPE    C1 1177   2.483   1.563  17.337  0.1785 -0.7311 -0.6593
   10DOPE    HA 1178   2.405   1.551  17.415 -0.8520 -1.9436 -1.8327
   10DOPE    HB 1179   2.454   1.489  17.259 -2.0685  0.2543 -0.8398
   10DOPE    C2 1180   2.457   1.705  17.275  0.5601 -0.0293  1.4066
   10DOPE    HS 1181   2.348   1.706  17.254  0.8202 -0.8879 -0.1671
   10DOPE   O21 1182   2.525   1.718  17.145  0.1889 -0.2186 -0.2828
   10DOPE   C21 1183   2.463   1.675  17.039  0.4629 -0.2795 -0.1766
   10DOPE   O22 1184   2.346   1.634  17.036 -0.0940 -0.1457  0.1644
   10DOPE   C22 1185   2.546   1.699  16.914 -0.8317  1.0920 -0.5367
   10DOPE   H2R 1186   2.595   1.601  16.899 -1.7260  1.0804 -4.5145
   10DOPE   H2S 1187   2.614   1.787  16.925  0.4032  0.1763 -0.6914
   10DOPE    C3 1188   2.499   1.831  17.359 -0.2250  0.1890  0.2039
   10DOPE    HX 1189   2.609   1.820  17.376 -0.0616  1.6346  0.1912
   10DOPE    HY 1190   2.456   1.838  17.461 -1.5118 -2.1199 -0.1070
   10DOPE   O31 1191   2.495   1.954  17.276 -0.6181  0.1565  0.0547
   10DOPE   C31 1192   2.364   2.003  17.273 -0.8222 -0.2221  0.0950
   10DOPE   O32 1193   2.280   1.971  17.357 -0.4634  0.1015 -0.2801
   10DOPE   C32 1194   2.348   2.100  17.156  0.3117 -0.6685 -1.0088
   10DOPE   H2X 1195   2.271   2.052  17.091  0.2341 -3.0202  0.6728
   10DOPE   H2Y 1196   2.323   2.202  17.191  1.0914 -1.4108  2.0348
   10DOPE   C23 1197   2.476   1.731  16.779  0.1883 -0.1882  0.2404
   10DOPE   H3R 1198   2.434   1.834  16.784 -0.7157 -0.5731  0.6991
   10DOPE   H3S 1199   2.391   1.662  16.766 -0.3698  0.6991 -1.1012
   10DOPE   C24 1200   2.569   1.730  16.648 -0.0445  0.5161 -0.6055
   10DOPE   H4R 1201   2.606   1.626  16.635 -0.5510  0.4233 -1.3547
   10DOPE   H4S 1202   2.666   1.784  16.659 -0.0219  0.0804  1.8474
   10DOPE   C25 1203   2.498   1.773  16.517  0.0095  0.0831  0.3647
   10DOPE   H5R 1204   2.512   1.882  16.505  1.0909 -0.0263  0.5573
   10DOPE   H5S 1205   2.387   1.763  16.517  0.0129 -0.1794 -1.2251
   10DOPE   C26 1206   2.550   1.689  16.391  0.4604 -0.1796 -0.0637
   10DOPE   H6R 1207   2.556   1.583  16.427 -0.5177  0.0163  0.7222
   10DOPE   H6S 1208   2.654   1.719  16.367  0.2715 -0.0786 -0.7601
   10DOPE   C27 1209   2.445   1.684  16.276 -0.1910  1.0825  0.4799
   10DOPE   H7R 1210   2.436   1.788  16.236  0.6252  1.3686  1.0179
   10DOPE   H7S 1211   2.346   1.642  16.306 -0.3778 -1.2013 -2.8784
   10DOPE   C28 1212   2.485   1.591  16.157  0.5091 -0.4761  0.4660
   10DOPE   H8R 1213   2.507   1.489  16.195 -4.1281 -2.2895 -1.0558
   10DOPE   H8S 1214   2.582   1.632  16.122  0.1796 -1.0400 -1.2039
   10DOPE   C29 1215   2.375   1.587  16.052 -0.0931  0.3757 -0.6640
   10DOPE   H9R 1216   2.285   1.536  16.091 -0.3131 -0.1111 -1.7511
   10DOPE  C210 1217   2.384   1.629  15.922 -0.0945  0.7690  0.0084
   10DOPE  H10R 1218   2.295   1.613  15.859 -1.0784 -0.4732  1.6436
   10DOPE  C211 1219   2.497   1.700  15.859  0.7723  0.4907 -1.2831
   10DOPE  H11R 1220   2.533   1.634  15.777 -1.4144  0.1648 -2.0483
   10DOPE  H11S 1221   2.578   1.707  15.935  0.5821  1.4544 -1.1551
   10DOPE  C212 1222   2.460   1.832  15.798  0.3578  0.4882 -0.4179
   10DOPE  H12R 1223   2.542   1.902  15.774 -1.5732  1.8770 -3.6497
   10DOPE  H12S 1224   2.408   1.895  15.873  1.5587 -0.4187  1.2454
   10DOPE  C213 1225   2.361   1.820  15.684  0.3245  0.0420  0.4029
   10DOPE  H13R 1226   2.266   1.783  15.727  0.5847 -1.9012 -0.5726
   10DOPE  H13S 1227   2.401   1.760  15.599  1.4208  1.6302 -0.2523
   10DOPE  C214 1228   2.326   1.955  15.619 -0.7427  0.1007 -0.1128
   10DOPE  H14R 1229   2.413   1.994  15.562 -0.7694  0.7041  0.2601
   10DOPE  H14S 1230   2.292   2.030  15.692 -0.0058  0.8346 -0.5104
   10DOPE  C215 1231   2.223   1.957  15.505 -0.3603  0.6398  0.0658
   10DOPE  H15R 1232   2.150   2.034  15.538  0.6459  0.9020  1.8086
   10DOPE  H15S 1233   2.179   1.855  15.504  1.6214 -0.2864  1.3838
   10DOPE  C216 1234   2.281   1.989  15.367  0.7290  0.4832 -0.1533
   10DOPE  H16R 1235   2.364   1.918  15.349  1.2471  0.6892  1.3311
   10DOPE  H16S 1236   2.335   2.086  15.368  1.2198  0.2164 -0.3118
   10DOPE  C217 1237   2.178   1.976  15.251 -0.5993  0.4835  0.9941
   10DOPE  H17R 1238   2.087   2.038  15.269  0.0767  2.1459 -0.8841
   10DOPE  H17S 1239   2.152   1.868  15.244  0.5552  0.1797  1.2115
   10DOPE  C218 1240   2.236   2.025  15.116 -0.2725  0.0383  0.2978
   10DOPE  H18R 1241   2.240   2.136  15.122 -0.9268  0.0856 -0.0530
   10DOPE  H18S 1242   2.166   2.012  15.031  1.1825 -1.1694 -0.7589
   10DOPE  H18T 1243   2.336   1.991  15.081 -0.7706 -1.2970  0.1461
   10DOPE   C33 1244   2.473   2.112  17.063  0.4061 -0.9154  0.2908
   10DOPE   H3X 1245   2.549   2.033  17.079  1.2559 -0.4296 -1.1633
   10DOPE   H3Y 1246   2.520   2.212  17.072  1.2715 -1.0949 -1.6513
   10DOPE   C34 1247   2.436   2.114  16.911 -0.3131  0.2236 -0.3163
   10DOPE   H4X 1248   2.372   2.025  16.896 -0.6044  0.1421  1.1984
   10DOPE   H4Y 1249   2.364   2.191  16.874 -1.2408 -0.7864 -0.6518
   10DOPE   C35 1250   2.562   2.105  16.825  0.5001 -0.0109  0.5913
   10DOPE   H5X 1251   2.619   2.013  16.851  0.5938 -0.1072  0.0461
   10DOPE   H5Y 1252   2.626   2.192  16.848 -0.1426  0.2843  1.3367
   10DOPE   C36 1253   2.528   2.112  16.669 -0.0654  0.0164 -0.4661
   10DOPE   H6X 1254   2.461   2.024  16.654  0.1090 -0.6610  2.2418
   10DOPE   H6Y 1255   2.627   2.085  16.627  0.1630 -2.7298  1.5482
   10DOPE   C37 1256   2.467   2.240  16.615  0.4708  0.2014 -0.1367
   10DOPE   H7X 1257   2.371   2.260  16.669  0.3667 -0.6922  0.0304
   10DOPE   H7Y 1258   2.521   2.332  16.646  0.9347  0.0214 -0.4050
   10DOPE   C38 1259   2.435   2.232  16.465 -0.0188 -0.2537 -0.0949
   10DOPE   H8X 1260   2.385   2.322  16.423 -0.7632  0.2290  1.7564
   10DOPE   H8Y 1261   2.376   2.141  16.442  1.5297 -1.7976  1.6782
   10DOPE   C39 1262   2.565   2.229  16.385 -0.1614 -0.3131  0.2076
   10DOPE   H9X 1263   2.656   2.256  16.440  2.0064 -1.2267 -2.6504
   10DOPE  C310 1264   2.571   2.168  16.269 -0.3215  0.1844 -0.0762
   10DOPE  H10X 1265   2.669   2.179  16.220 -0.5285  1.0978 -0.3149
   10DOPE  C311 1266   2.464   2.105  16.182  0.0995  0.3800 -0.7039
   10DOPE  H11X 1267   2.452   1.997  16.204 -1.7251  0.8322  0.7884
   10DOPE  H11Y 1268   2.366   2.145  16.214 -0.7292 -1.6334 -0.5931
   10DOPE  C312 1269   2.484   2.133  16.034  0.7899 -0.2190 -0.1686
   10DOPE  H12X 1270   2.405   2.082  15.976  0.2569  2.7182 -2.1724
   10DOPE  H12Y 1271   2.585   2.088  16.018  1.9572  1.4001  2.0190
   10DOPE  C313 1272   2.489   2.280  15.984 -0.2101 -0.7703 -0.1407
   10DOPE  H13X 1273   2.402   2.337  16.024  2.1064  2.6633  0.4926
   10DOPE  H13Y 1274   2.576   2.330  16.033 -0.2380 -0.1997 -0.6605
   10DOPE  C314 1275   2.480   2.295  15.830 -0.1017  0.0179  0.2598
   10DOPE  H14X 1276   2.497   2.401  15.800 -0.8246  0.0912  0.0769
   10DOPE  H14Y 1277   2.375   2.273  15.799  0.6623 -1.8701 -1.1293
   10DOPE  C315 1278   2.564   2.207  15.744 -0.4525  0.1836  0.6006
   10DOPE  H15X 1279   2.518   2.106  15.755  2.4235 -1.5327 -1.5048
   10DOPE  H15Y 1280   2.666   2.206  15.789 -1.6747  0.4017  3.6421
   10DOPE  C316 1281   2.571   2.250  15.597 -1.1216  0.3676  0.4614
   10DOPE  H16X 1282   2.564   2.360  15.583 -2.3714  0.0942 -1.5386
   10DOPE  H16Y 1283   2.499   2.204  15.525 -0.3381 -0.5065  0.2055
   10DOPE  C317 1284   2.705   2.207  15.533  0.5108  0.1538  0.5655
   10DOPE  H17X 1285   2.701   2.244  15.429  0.2444 -2.7933 -0.5416
   10DOPE  H17Y 1286   2.789   2.249  15.592 -1.1325  0.4356  2.8556
   10DOPE  C318 1287   2.721   2.056  15.529  0.0165 -0.3344 -0.9792
   10DOPE  H18X 1288   2.822   2.025  15.495 -0.1316 -1.6518 -0.2758
   10DOPE  H18Y 1289   2.712   2.012  15.630 -1.6152 -1.7284 -1.6831
   10DOPE  H18Z 1290   2.633   2.008  15.481 -2.3466  2.2649  0.4250
   11DOPE     N 1291   2.781   4.850  18.101  0.2744  0.1334 -0.1602
   11DOPE   HN1 1292   2.723   4.918  18.155 -0.6570 -0.9447  0.2574
   11DOPE   HN2 1293   2.717   4.789  18.046  0.4672  0.4337 -0.7219
   11DOPE   HN3 1294   2.821   4.790  18.176 -2.7733 -1.5806  0.2897
   11DOPE   C12 1295   2.872   4.923  18.004 -0.1792  0.2775 -0.1107
   11DOPE  H12A 1296   2.932   4.996  18.063 -2.0527 -0.1465  2.5038
   11DOPE  H12B 1297   2.809   4.976  17.929  0.6237  3.0022  1.0092
   11DOPE   C11 1298   2.968   4.819  17.935 -0.3300 -0.5193 -0.0441
   11DOPE  H11A 1299   3.034   4.770  18.010  1.1082  0.9137 -0.3453
   11DOPE  H11B 1300   3.028   4.882  17.866  1.5291  0.8802  2.6626
   11DOPE     P 1301   2.839   4.735  17.722 -0.1556 -0.1203  0.5325
   11DOPE   O13 1302   2.725   4.828  17.726 -0.2741 -0.6159 -0.3417
   11DOPE   O14 1303   2.821   4.599  17.663  0.2257  0.2769  0.6251
   11DOPE   O11 1304   2.951   4.810  17.635 -0.5689 -0.1631 -0.1089
   11DOPE   O12 1305   2.902   4.721  17.864  0.2985 -0.0416  0.3779
   11DOPE    C1 1306   2.926   4.936  17.570 -0.0035 -0.6432  0.3826
   11DOPE    HA 1307   3.014   5.003  17.557  0.2772 -1.3326 -1.6279
   11DOPE    HB 1308   2.851   4.998  17.624  0.7710 -0.6177  1.4646
   11DOPE    C2 1309   2.864   4.920  17.435  0.1974  0.5448  0.6795
   11DOPE    HS 1310   2.779   4.849  17.429 -0.6007  1.6387 -2.7321
   11DOPE   O21 1311   2.974   4.873  17.350 -0.0359 -0.0955  0.4534
   11DOPE   C21 1312   2.945   4.789  17.250 -0.0748 -0.3103 -0.9794
   11DOPE   O22 1313   2.832   4.751  17.232 -0.0766  0.4810 -0.1152
   11DOPE   C22 1314   3.070   4.748  17.178  0.3410  0.2949 -0.1536
   11DOPE   H2R 1315   3.113   4.666  17.239 -1.4848 -0.2654  0.4523
   11DOPE   H2S 1316   3.144   4.831  17.171  1.8029 -0.9734 -0.3779
   11DOPE    C3 1317   2.813   5.055  17.366 -0.0284 -0.3439 -0.3504
   11DOPE    HX 1318   2.905   5.117  17.362  0.6592 -1.3648 -0.7823
   11DOPE    HY 1319   2.738   5.108  17.428 -0.0502  1.7506 -2.0494
   11DOPE   O31 1320   2.769   5.032  17.233  0.2539  0.6013  0.0053
   11DOPE   C31 1321   2.640   5.011  17.211 -0.1704  0.7542 -0.1255
   11DOPE   O32 1322   2.562   4.983  17.304  0.2445 -0.1252  0.3429
   11DOPE   C32 1323   2.601   5.031  17.066 -0.2677 -0.1988  0.0560
   11DOPE   H2X 1324   2.528   4.959  17.025 -3.5277  2.6349  0.4538
   11DOPE   H2Y 1325   2.548   5.128  17.072  1.4261  0.7995 -0.3046
   11DOPE   C23 1326   3.030   4.688  17.041  0.3971 -0.0094 -0.0571
   11DOPE   H3R 1327   2.974   4.765  16.983  1.6381  1.2383  0.3321
   11DOPE   H3S 1328   2.958   4.606  17.063 -0.0092  0.6117  1.0496
   11DOPE   C24 1329   3.145   4.634  16.951  0.1160 -0.0033 -0.2279
   11DOPE   H4R 1330   3.209   4.564  17.010 -1.6539 -2.8507 -1.4580
   11DOPE   H4S 1331   3.201   4.724  16.919 -1.7366  1.8039  1.3334
   11DOPE   C25 1332   3.114   4.560  16.825  0.0756  0.2166  0.6152
   11DOPE   H5R 1333   3.015   4.511  16.819  0.2523 -0.1050  0.3356
   11DOPE   H5S 1334   3.187   4.477  16.813  2.1988  1.9951  0.6728
   11DOPE   C26 1335   3.130   4.648  16.694  0.2631  0.6803 -0.2009
   11DOPE   H6R 1336   3.235   4.682  16.681  0.0315  1.5556  0.1503
   11DOPE   H6S 1337   3.075   4.742  16.714  0.7600  1.8906 -3.7864
   11DOPE   C27 1338   3.072   4.589  16.567  0.1033  0.5263 -0.1373
   11DOPE   H7R 1339   2.965   4.563  16.582  0.3616 -1.0087 -0.8100
   11DOPE   H7S 1340   3.118   4.491  16.542 -1.2553 -0.0751 -0.3866
   11DOPE   C28 1341   3.093   4.682  16.452 -0.7481 -0.0785  0.2281
   11DOPE   H8R 1342   3.202   4.704  16.447 -0.6524 -0.1927  1.4614
   11DOPE   H8S 1343   3.047   4.775  16.493  2.9541  0.9582  2.4655
   11DOPE   C29 1344   3.018   4.625  16.334 -0.0004  0.6434  0.0470
   11DOPE   H9R 1345   2.932   4.561  16.357 -0.5473  0.8882 -1.2282
   11DOPE  C210 1346   3.057   4.654  16.206  0.3155  0.3050 -0.3015
   11DOPE  H10R 1347   3.006   4.599  16.125  1.4724 -2.0458  0.4625
   11DOPE  C211 1348   3.172   4.746  16.172 -0.7843 -0.2668 -0.0221
   11DOPE  H11R 1349   3.257   4.728  16.241  0.1792  1.0713 -0.7965
   11DOPE  H11S 1350   3.151   4.852  16.195 -0.2247  0.2986 -1.8980
   11DOPE  C212 1351   3.230   4.733  16.031  0.1470 -0.2812  0.6835
   11DOPE  H12R 1352   3.269   4.629  16.016  1.2971 -0.6483  5.0010
   11DOPE  H12S 1353   3.316   4.803  16.029 -1.1658  1.4345  1.9444
   11DOPE  C213 1354   3.132   4.780  15.925  0.4390 -0.4478 -0.0142
   11DOPE  H13R 1355   3.063   4.861  15.956  2.2661  1.5837 -0.9866
   11DOPE  H13S 1356   3.069   4.689  15.916 -1.0782  0.6136 -0.6226
   11DOPE  C214 1357   3.204   4.839  15.803 -0.6281 -1.0503 -0.1192
   11DOPE  H14R 1358   3.264   4.758  15.756 -0.0755  0.1039 -1.4802
   11DOPE  H14S 1359   3.270   4.922  15.837 -0.0560 -1.1010 -1.0801
   11DOPE  C215 1360   3.116   4.891  15.688 -0.2580 -0.3457 -0.5624
   11DOPE  H15R 1361   3.173   4.954  15.616  1.1190 -2.6287 -1.5714
   11DOPE  H15S 1362   3.031   4.949  15.730 -0.2352 -0.2241 -0.6820
   11DOPE  C216 1363   3.049   4.777  15.605 -0.4596  0.6436  0.2070
   11DOPE  H16R 1364   2.967   4.819  15.543 -0.8827  3.2601  2.3829
   11DOPE  H16S 1365   3.012   4.691  15.664  1.9951 -1.0490 -0.5630
   11DOPE  C217 1366   3.144   4.715  15.503 -0.8679  0.4014 -0.0992
   11DOPE  H17R 1367   3.224   4.667  15.563 -1.4635 -0.8762 -0.2879
   11DOPE  H17S 1368   3.191   4.789  15.436  0.6607  1.7297  2.2938
   11DOPE  C218 1369   3.074   4.611  15.416  0.1496  0.6924  0.2545
   11DOPE  H18R 1370   3.145   4.551  15.355  1.3291  1.1526  1.1393
   11DOPE  H18S 1371   3.001   4.661  15.348 -0.8910  0.2781  1.0366
   11DOPE  H18T 1372   3.012   4.539  15.475 -1.0878  1.4452 -0.0818
   11DOPE   C33 1373   2.719   5.045  16.970 -0.3729 -0.3132  0.1221
   11DOPE   H3X 1374   2.766   4.944  16.967 -1.9932 -1.0847 -2.5131
   11DOPE   H3Y 1375   2.798   5.117  17.001  0.8932 -0.5427 -2.3959
   11DOPE   C34 1376   2.679   5.075  16.828 -0.0029 -0.2978  0.3021
   11DOPE   H4X 1377   2.591   5.012  16.805 -0.5472  0.7688 -0.6119
   11DOPE   H4Y 1378   2.655   5.184  16.827 -1.4667 -0.6017 -0.6381
   11DOPE   C35 1379   2.783   5.040  16.723 -0.5376 -0.7234 -0.1476
   11DOPE   H5X 1380   2.796   4.930  16.723 -1.6655 -0.8942  1.7194
   11DOPE   H5Y 1381   2.883   5.088  16.735 -0.5439 -0.8624  0.4636
   11DOPE   C36 1382   2.734   5.076  16.581  0.7996 -0.1192  0.0416
   11DOPE   H6X 1383   2.722   5.186  16.573  1.5580 -0.0674 -0.4946
   11DOPE   H6Y 1384   2.634   5.032  16.562  0.8359 -0.1677 -0.0342
   11DOPE   C37 1385   2.826   5.019  16.466 -0.0479 -0.5547 -1.0999
   11DOPE   H7X 1386   2.933   5.046  16.477 -0.1939  0.0567 -1.1652
   11DOPE   H7Y 1387   2.822   4.908  16.470  1.2259 -0.5859 -0.1773
   11DOPE   C38 1388   2.779   5.070  16.333  0.5159  0.1578  0.4208
   11DOPE   H8X 1389   2.672   5.039  16.325  0.1840  1.4316 -0.2664
   11DOPE   H8Y 1390   2.843   5.026  16.254  1.1933  0.7138  0.6474
   11DOPE   C39 1391   2.796   5.218  16.317  0.0845  0.7485 -0.1622
   11DOPE   H9X 1392   2.899   5.255  16.325  0.3820 -0.4647  2.9213
   11DOPE  C310 1393   2.702   5.290  16.257  0.2910 -0.6913  0.1992
   11DOPE  H10X 1394   2.726   5.395  16.236 -0.3728 -0.8303 -1.4334
   11DOPE  C311 1395   2.563   5.245  16.206 -0.6726 -0.0832 -0.1703
   11DOPE  H11X 1396   2.535   5.138  16.211 -0.5082 -0.1133  0.1455
   11DOPE  H11Y 1397   2.477   5.303  16.249 -1.6753 -0.1445 -1.9790
   11DOPE  C312 1398   2.565   5.276  16.054  0.2243  0.3159  0.4525
   11DOPE  H12X 1399   2.592   5.383  16.043 -0.0048  0.3361  0.0905
   11DOPE  H12Y 1400   2.462   5.258  16.017  1.0031  0.1049 -1.7466
   11DOPE  C313 1401   2.652   5.183  15.970 -0.6667  0.0316 -0.6275
   11DOPE  H13X 1402   2.749   5.182  16.023 -0.8487 -1.9289 -0.2327
   11DOPE  H13Y 1403   2.606   5.082  15.976  1.9348 -1.1879 -0.0559
   11DOPE  C314 1404   2.663   5.231  15.831 -0.1413  0.0174 -0.0340
   11DOPE  H14X 1405   2.699   5.335  15.824  1.7384 -0.4268  1.9021
   11DOPE  H14Y 1406   2.559   5.237  15.793  0.6383  0.2480 -2.2730
   11DOPE  C315 1407   2.754   5.151  15.744 -0.1263 -0.9590 -0.0056
   11DOPE  H15X 1408   2.708   5.055  15.713  0.7978 -1.1847 -0.7012
   11DOPE  H15Y 1409   2.854   5.147  15.793  0.2890 -3.3289 -0.9129
   11DOPE  C316 1410   2.768   5.231  15.610 -0.2260 -0.5206 -0.1133
   11DOPE  H16X 1411   2.805   5.335  15.628 -0.7341 -0.2648 -0.5225
   11DOPE  H16Y 1412   2.663   5.238  15.576 -0.6617 -0.8923  1.0882
   11DOPE  C317 1413   2.862   5.161  15.514 -0.5233  0.2790 -0.2364
   11DOPE  H17X 1414   2.850   5.051  15.524  0.5670  0.0184 -1.4897
   11DOPE  H17Y 1415   2.828   5.184  15.411 -0.3313 -1.7960 -0.7923
   11DOPE  C318 1416   3.006   5.207  15.529  0.0657  0.8908  0.2243
   11DOPE  H18X 1417   3.005   5.310  15.489  0.3611  0.2151 -1.6155
   11DOPE  H18Y 1418   3.046   5.209  15.633 -1.2762 -0.4792  0.8105
   11DOPE  H18Z 1419   3.077   5.151  15.464 -0.9473  1.4287 -1.3841
   12DOPE     N 1420   5.169   2.297  17.243  0.6033 -0.1974  0.9258
   12DOPE   HN1 1421   5.169   2.386  17.190 -3.8597  0.2494  1.3115
   12DOPE   HN2 1422   5.223   2.315  17.330  1.7665 -1.4869  0.5084
   12DOPE   HN3 1423   5.214   2.219  17.192  0.0146 -0.3933  0.7004
   12DOPE   C12 1424   5.023   2.264  17.277 -0.4511  0.1376  0.4488
   12DOPE  H12A 1425   4.965   2.310  17.194 -0.5869 -0.8212  0.0017
   12DOPE  H12B 1426   4.994   2.310  17.374 -0.4152  0.9808  0.0673
   12DOPE   C11 1427   5.005   2.114  17.275 -0.1301  0.0534  0.0485
   12DOPE  H11A 1428   5.048   2.086  17.176  2.0060  0.1921  0.8755
   12DOPE  H11B 1429   4.897   2.090  17.281 -0.1197  0.1167  0.5337
   12DOPE     P 1430   5.187   1.938  17.364  0.1802  0.1900 -0.1847
   12DOPE   O13 1431   5.154   1.830  17.461 -0.3512 -0.0301 -0.7008
   12DOPE   O14 1432   5.322   2.000  17.382  0.2116  0.2148 -0.2727
   12DOPE   O11 1433   5.170   1.878  17.220  0.4467  0.7773  0.0775
   12DOPE   O12 1434   5.073   2.054  17.382 -0.6023 -0.0537 -0.6276
   12DOPE    C1 1435   5.141   1.740  17.200  0.5315  0.2046  0.6733
   12DOPE    HA 1436   5.036   1.714  17.224  0.4189  1.4167  1.5843
   12DOPE    HB 1437   5.191   1.667  17.268  1.7905 -1.2099 -1.6303
   12DOPE    C2 1438   5.185   1.690  17.055 -0.6251 -0.3506  0.0794
   12DOPE    HS 1439   5.155   1.584  17.049 -0.0827 -0.8612  3.8516
   12DOPE   O21 1440   5.331   1.707  17.030  0.3838 -0.2609 -0.0768
   12DOPE   C21 1441   5.405   1.601  17.063  0.6682 -0.4978  0.5678
   12DOPE   O22 1442   5.365   1.499  17.113 -1.1128  0.3527  0.0386
   12DOPE   C22 1443   5.547   1.615  17.004 -0.1550 -0.5736 -0.2024
   12DOPE   H2R 1444   5.628   1.561  17.056 -0.1269 -1.1446 -0.8212
   12DOPE   H2S 1445   5.570   1.723  17.018  1.5884 -0.6090 -2.2650
   12DOPE    C3 1446   5.109   1.774  16.949  0.5018 -0.5736  0.4825
   12DOPE    HX 1447   5.108   1.881  16.979  0.4110 -0.0189 -1.3806
   12DOPE    HY 1448   5.004   1.735  16.945 -0.2512  1.3948 -0.0861
   12DOPE   O31 1449   5.168   1.756  16.820 -0.0400  0.1530  0.2100
   12DOPE   C31 1450   5.102   1.786  16.714  0.0677 -0.0891  0.3083
   12DOPE   O32 1451   4.991   1.840  16.710 -0.5350 -0.3239  0.6556
   12DOPE   C32 1452   5.187   1.751  16.593 -0.0918 -0.6367  0.4053
   12DOPE   H2X 1453   5.290   1.793  16.595  0.7008 -2.2635 -2.0988
   12DOPE   H2Y 1454   5.200   1.641  16.600  2.1228 -0.4098  0.2740
   12DOPE   C23 1455   5.563   1.580  16.849 -0.3521  0.2928 -0.3950
   12DOPE   H3R 1456   5.657   1.618  16.804  0.4231 -0.3699  0.6170
   12DOPE   H3S 1457   5.483   1.644  16.807  0.6357  1.6781 -0.2353
   12DOPE   C24 1458   5.529   1.437  16.816  0.6150 -0.7013  0.0295
   12DOPE   H4R 1459   5.445   1.402  16.880  2.0380 -0.1742  2.3228
   12DOPE   H4S 1460   5.618   1.371  16.826  0.7295 -0.2245  2.8085
   12DOPE   C25 1461   5.472   1.407  16.674 -0.0119 -0.3880  0.2045
   12DOPE   H5R 1462   5.370   1.447  16.660  0.0952  0.1198  0.8446
   12DOPE   H5S 1463   5.459   1.297  16.679 -2.5131 -0.0856  2.0303
   12DOPE   C26 1464   5.558   1.461  16.554 -0.4810  0.5039  0.1374
   12DOPE   H6R 1465   5.653   1.404  16.558  0.2207  1.6564  0.4896
   12DOPE   H6S 1466   5.578   1.570  16.559  0.1977  0.3867  0.0196
   12DOPE   C27 1467   5.506   1.443  16.415  0.1476 -0.1765  0.6387
   12DOPE   H7R 1468   5.399   1.472  16.412 -0.3449 -1.8692  0.5007
   12DOPE   H7S 1469   5.506   1.334  16.393 -1.3078 -0.7770  3.2132
   12DOPE   C28 1470   5.587   1.526  16.318 -0.3802 -0.1706 -0.8006
   12DOPE   H8R 1471   5.680   1.470  16.296  0.6143  1.1515 -0.1033
   12DOPE   H8S 1472   5.620   1.624  16.358 -1.6948  0.5591 -1.4204
   12DOPE   C29 1473   5.512   1.545  16.182  0.3161  0.8317 -0.4966
   12DOPE   H9R 1474   5.443   1.630  16.169 -1.4362 -0.6256 -1.1436
   12DOPE  C210 1475   5.501   1.451  16.088 -0.4399  0.2194 -0.4458
   12DOPE  H10R 1476   5.424   1.455  16.009 -1.4417  0.3766  0.5205
   12DOPE  C211 1477   5.597   1.337  16.063  0.0562 -0.3498  0.4247
   12DOPE  H11R 1478   5.561   1.234  16.086 -0.6540 -0.0129  0.8860
   12DOPE  H11S 1479   5.683   1.342  16.132 -0.2610 -2.3640  1.0406
   12DOPE  C212 1480   5.656   1.343  15.916  0.5677  0.2146  0.1905
   12DOPE  H12R 1481   5.757   1.300  15.904  0.7791  0.9332 -0.7303
   12DOPE  H12S 1482   5.650   1.440  15.861 -0.6613  0.3645  0.5484
   12DOPE  C213 1483   5.574   1.245  15.823  0.3412  1.2267 -1.1483
   12DOPE  H13R 1484   5.471   1.286  15.831 -1.6873 -3.0817 -2.3208
   12DOPE  H13S 1485   5.570   1.146  15.873  1.4640  2.4457  1.5651
   12DOPE  C214 1486   5.626   1.239  15.676 -0.1416  0.3690  0.2087
   12DOPE  H14R 1487   5.730   1.201  15.669 -1.4209 -3.2595 -1.1811
   12DOPE  H14S 1488   5.629   1.342  15.634  1.3406  0.2061 -0.1428
   12DOPE  C215 1489   5.541   1.148  15.592 -0.7345  0.8291 -0.2844
   12DOPE  H15R 1490   5.431   1.154  15.606 -0.8627 -0.9508 -0.2901
   12DOPE  H15S 1491   5.568   1.041  15.605 -0.6187  0.8309 -0.4948
   12DOPE  C216 1492   5.568   1.166  15.439  0.3509  0.5770  0.0112
   12DOPE  H16R 1493   5.678   1.155  15.439  0.3177 -0.2161  1.7285
   12DOPE  H16S 1494   5.552   1.275  15.421  0.1644  0.7708  1.2434
   12DOPE  C217 1495   5.485   1.075  15.343 -0.0089  0.6730  0.2806
   12DOPE  H17R 1496   5.379   1.110  15.338 -0.0684  0.3961 -0.7293
   12DOPE  H17S 1497   5.481   0.977  15.395 -0.2158  1.1369  1.1570
   12DOPE  C218 1498   5.554   1.061  15.203 -0.5092  0.6995  0.4226
   12DOPE  H18R 1499   5.574   1.167  15.174 -0.4226  0.3841 -0.6853
   12DOPE  H18S 1500   5.485   1.015  15.130  0.4913 -2.0702  1.1186
   12DOPE  H18T 1501   5.642   0.994  15.211  1.1535  2.7436  0.1756
   12DOPE   C33 1502   5.119   1.781  16.459  0.6964  0.1172  0.9202
   12DOPE   H3X 1503   5.125   1.889  16.431  0.5131 -0.5437 -1.9445
   12DOPE   H3Y 1504   5.016   1.738  16.454  0.2532  1.1415  0.9638
   12DOPE   C34 1505   5.192   1.713  16.343  0.5312  0.2826 -0.0440
   12DOPE   H4X 1506   5.284   1.774  16.328  0.1662  1.0287  0.7132
   12DOPE   H4Y 1507   5.220   1.609  16.372  0.3670  0.5499  1.0753
   12DOPE   C35 1508   5.101   1.704  16.220 -1.1071 -0.1903  0.3589
   12DOPE   H5X 1509   5.066   1.807  16.196  1.5496  0.8472  0.5402
   12DOPE   H5Y 1510   5.018   1.633  16.241 -1.4145 -0.4909 -1.6413
   12DOPE   C36 1511   5.171   1.651  16.098  0.1473  0.1924 -0.9394
   12DOPE   H6X 1512   5.220   1.555  16.127 -2.1160 -0.2680  1.7488
   12DOPE   H6Y 1513   5.246   1.728  16.068 -0.2096  0.3030 -1.5530
   12DOPE   C37 1514   5.070   1.623  15.990 -0.2645  0.3835 -0.4714
   12DOPE   H7X 1515   4.973   1.581  16.024  0.1696 -1.1071 -1.0247
   12DOPE   H7Y 1516   5.040   1.719  15.942 -0.6203  0.6584  0.2856
   12DOPE   C38 1517   5.120   1.538  15.871 -0.2615 -0.8698 -0.1584
   12DOPE   H8X 1518   5.032   1.513  15.809 -1.1926 -4.6595  2.2955
   12DOPE   H8Y 1519   5.155   1.437  15.903  1.0227 -1.1576 -2.2991
   12DOPE   C39 1520   5.239   1.612  15.801  0.6731  0.2727  0.3519
   12DOPE   H9X 1521   5.265   1.707  15.849 -1.7489  0.8886  0.5752
   12DOPE  C310 1522   5.304   1.565  15.694  0.3916 -0.0846  0.4994
   12DOPE  H10X 1523   5.362   1.633  15.630 -0.5005 -0.1911 -0.4467
   12DOPE  C311 1524   5.284   1.427  15.629  0.0594 -0.7452  0.0865
   12DOPE  H11X 1525   5.373   1.393  15.572  0.5985  1.9922 -0.8563
   12DOPE  H11Y 1526   5.261   1.349  15.705 -1.7960  0.3763  0.7596
   12DOPE  C312 1527   5.168   1.454  15.534 -0.0161  0.1729  0.5613
   12DOPE  H12X 1528   5.171   1.550  15.479 -2.1954  0.5631  1.0339
   12DOPE  H12Y 1529   5.067   1.460  15.580 -2.0369 -2.0192 -3.1137
   12DOPE  C313 1530   5.167   1.338  15.426  0.1687  0.1775 -0.3336
   12DOPE  H13X 1531   5.241   1.363  15.347 -0.5778 -0.3799 -1.2381
   12DOPE  H13Y 1532   5.194   1.240  15.470  0.2047  0.5580  0.5029
   12DOPE  C314 1533   5.040   1.323  15.356  0.0420  0.0549  0.2096
   12DOPE  H14X 1534   5.022   1.404  15.283 -1.5327  1.9017  2.5031
   12DOPE  H14Y 1535   4.955   1.312  15.428  0.2135  0.5816  0.4908
   12DOPE  C315 1536   5.042   1.198  15.274 -0.2816  0.2585 -0.2767
   12DOPE  H15X 1537   5.066   1.113  15.341  1.2187  1.6725  1.0854
   12DOPE  H15Y 1538   5.117   1.200  15.192 -0.7711 -2.3776 -0.8685
   12DOPE  C316 1539   4.914   1.157  15.201 -0.0850  0.5578 -0.3018
   12DOPE  H16X 1540   4.835   1.150  15.279 -1.5216  2.1419 -1.5652
   12DOPE  H16Y 1541   4.939   1.058  15.155  1.2830  0.2621  0.9633
   12DOPE  C317 1542   4.879   1.263  15.095  0.2506  0.9398 -0.1454
   12DOPE  H17X 1543   4.858   1.352  15.159  0.8783 -0.4508  2.1374
   12DOPE  H17Y 1544   4.961   1.287  15.025  0.7327  1.5524  0.6224
   12DOPE  C318 1545   4.749   1.226  15.021 -0.2467 -0.3625  0.2300
   12DOPE  H18X 1546   4.705   1.321  14.984 -0.2127  0.6830  2.7029
   12DOPE  H18Y 1547   4.774   1.160  14.935 -0.7058  0.1194 -0.2860
   12DOPE  H18Z 1548   4.677   1.176  15.090 -0.6511 -1.0964 -0.6998
   13DOPE     N 1549   3.754   2.669  17.028  0.6510 -0.1408 -0.1395
   13DOPE   HN1 1550   3.740   2.599  16.952  0.9836 -1.4055  0.9282
   13DOPE   HN2 1551   3.829   2.636  17.091  0.2443  2.5084  1.9043
   13DOPE   HN3 1552   3.668   2.666  17.087 -0.4475  2.0040 -1.4840
   13DOPE   C12 1553   3.780   2.801  16.982  0.3269 -0.6010  0.0845
   13DOPE  H12A 1554   3.683   2.856  16.982 -0.3960 -1.8494 -0.0698
   13DOPE  H12B 1555   3.815   2.800  16.876 -0.6570  0.7815 -0.2958
   13DOPE   C11 1556   3.858   2.888  17.075 -0.1392 -0.6506 -0.4129
   13DOPE  H11A 1557   3.852   2.993  17.038 -1.4345 -0.2767  0.7929
   13DOPE  H11B 1558   3.961   2.846  17.082  1.1431  2.2066 -0.6220
   13DOPE     P 1559   3.847   2.963  17.328  0.2246 -0.4677  0.0156
   13DOPE   O13 1560   3.961   3.057  17.293 -0.5053 -0.0293  0.1310
   13DOPE   O14 1561   3.876   2.868  17.438 -0.1966  0.2501 -0.1749
   13DOPE   O11 1562   3.712   3.046  17.360  0.1967 -0.8939 -0.2903
   13DOPE   O12 1563   3.808   2.867  17.210  0.1091 -0.5240  1.0927
   13DOPE    C1 1564   3.636   3.109  17.266  0.0521  0.3937 -0.2181
   13DOPE    HA 1565   3.533   3.071  17.278 -0.1296  0.3708 -1.6859
   13DOPE    HB 1566   3.668   3.081  17.163 -1.9886  0.9630 -1.0429
   13DOPE    C2 1567   3.637   3.263  17.276 -0.2381  0.4408 -0.9733
   13DOPE    HS 1568   3.558   3.297  17.206 -1.4462  0.0372  0.1569
   13DOPE   O21 1569   3.771   3.310  17.247 -0.0005 -0.4445  0.1743
   13DOPE   C21 1570   3.785   3.327  17.112 -0.9245  0.5848  0.0093
   13DOPE   O22 1571   3.711   3.281  17.024  0.2698  0.0096 -0.3196
   13DOPE   C22 1572   3.897   3.425  17.083  0.1794  0.3817 -0.3614
   13DOPE   H2R 1573   3.999   3.385  17.102  0.4779  1.3153  0.0988
   13DOPE   H2S 1574   3.880   3.510  17.153  0.9164 -1.4693  2.1891
   13DOPE    C3 1575   3.620   3.316  17.421 -0.2756 -0.2237  0.4844
   13DOPE    HX 1576   3.716   3.311  17.477 -0.1588 -1.0110  0.2209
   13DOPE    HY 1577   3.545   3.258  17.479 -1.8370 -0.8319 -2.0105
   13DOPE   O31 1578   3.563   3.451  17.411 -0.0082 -0.4652  0.1549
   13DOPE   C31 1579   3.649   3.548  17.435 -0.4487 -0.0248 -0.5724
   13DOPE   O32 1580   3.770   3.536  17.464 -0.2112  0.2229  0.1276
   13DOPE   C32 1581   3.586   3.684  17.410 -0.3257 -0.0895 -0.2573
   13DOPE   H2X 1582   3.477   3.677  17.389  0.0478  1.4133 -3.3461
   13DOPE   H2Y 1583   3.601   3.762  17.487  1.3876 -0.9174  0.2833
   13DOPE   C23 1584   3.892   3.497  16.947 -0.1491 -0.2496  0.9227
   13DOPE   H3R 1585   3.829   3.586  16.924  0.8100 -0.0809 -1.2536
   13DOPE   H3S 1586   3.865   3.422  16.870  3.2598 -0.4147 -0.3101
   13DOPE   C24 1587   4.030   3.545  16.901 -0.7614 -0.4609  0.1255
   13DOPE   H4R 1588   4.090   3.454  16.878 -2.3030 -1.3198 -0.7094
   13DOPE   H4S 1589   4.086   3.588  16.986  0.6079  0.6594 -1.2845
   13DOPE   C25 1590   4.033   3.650  16.792 -0.3293  0.4677 -0.6778
   13DOPE   H5R 1591   3.992   3.745  16.832 -0.4647 -0.2558  0.9858
   13DOPE   H5S 1592   3.983   3.623  16.697  1.1041  1.2452 -1.7033
   13DOPE   C26 1593   4.181   3.674  16.749  0.1687  0.1070 -0.6721
   13DOPE   H6R 1594   4.218   3.593  16.683 -1.2628  0.6708 -2.2357
   13DOPE   H6S 1595   4.249   3.682  16.836 -0.5169  0.7128 -0.1783
   13DOPE   C27 1596   4.200   3.815  16.678 -0.1340 -0.3425  0.3193
   13DOPE   H7R 1597   4.306   3.847  16.678 -0.6241  1.3832 -0.7594
   13DOPE   H7S 1598   4.146   3.893  16.735 -0.1123  0.4299 -0.6902
   13DOPE   C28 1599   4.129   3.817  16.536  0.1633  0.1977 -0.4486
   13DOPE   H8R 1600   4.114   3.923  16.508 -1.5424 -0.1028 -0.7722
   13DOPE   H8S 1601   4.028   3.770  16.540  0.6146 -0.9775 -1.9423
   13DOPE   C29 1602   4.213   3.739  16.441 -0.1671 -0.9206  0.1087
   13DOPE   H9R 1603   4.250   3.646  16.487  0.0095 -0.9263 -0.0405
   13DOPE  C210 1604   4.251   3.779  16.319  0.6051 -0.5540  0.6198
   13DOPE  H10R 1605   4.301   3.702  16.258  1.0818  0.5113 -0.3778
   13DOPE  C211 1606   4.215   3.908  16.245  0.1848 -0.1750  0.2700
   13DOPE  H11R 1607   4.279   3.995  16.269  0.1188 -0.4023  1.2957
   13DOPE  H11S 1608   4.107   3.933  16.252 -0.2041 -2.0159  1.8265
   13DOPE  C212 1609   4.238   3.883  16.090  0.3218  0.6613 -0.2310
   13DOPE  H12R 1610   4.192   3.968  16.035  0.0145 -0.3917 -1.6636
   13DOPE  H12S 1611   4.166   3.802  16.066 -0.6333  0.7026  2.2238
   13DOPE  C213 1612   4.379   3.865  16.033 -0.3132 -0.4099 -0.0994
   13DOPE  H13R 1613   4.421   3.771  16.075 -1.9027 -1.0063  0.2715
   13DOPE  H13S 1614   4.445   3.950  16.056  0.3655 -0.6249 -1.2231
   13DOPE  C214 1615   4.373   3.851  15.878  0.4571 -0.0700 -0.5723
   13DOPE  H14R 1616   4.304   3.765  15.864 -0.0643  0.4781 -1.4086
   13DOPE  H14S 1617   4.476   3.824  15.847  0.9517  1.1451 -0.0620
   13DOPE  C215 1618   4.341   3.983  15.804  0.7602  0.6268 -0.3050
   13DOPE  H15R 1619   4.410   4.061  15.844  0.6934  0.8851 -0.6842
   13DOPE  H15S 1620   4.235   4.009  15.826  0.6285 -0.2274  0.0760
   13DOPE  C216 1621   4.373   3.978  15.650  0.1620  0.1638  0.0211
   13DOPE  H16R 1622   4.301   3.902  15.613  0.2211  1.4565 -3.0661
   13DOPE  H16S 1623   4.476   3.939  15.639 -0.0211  0.4706 -4.0852
   13DOPE  C217 1624   4.342   4.103  15.575  0.3029 -0.2433  0.1205
   13DOPE  H17R 1625   4.416   4.182  15.595  0.2562  0.2850 -1.6036
   13DOPE  H17S 1626   4.245   4.144  15.611  0.3936 -0.0517  0.1449
   13DOPE  C218 1627   4.328   4.071  15.424 -0.3487 -0.2570  0.2735
   13DOPE  H18R 1628   4.433   4.053  15.395  0.1041 -0.1528  1.7598
   13DOPE  H18S 1629   4.286   4.150  15.359 -2.4913 -1.1529  0.4529
   13DOPE  H18T 1630   4.267   3.979  15.407  0.2307 -0.3093 -1.7087
   13DOPE   C33 1631   3.638   3.748  17.273  0.8540 -0.9239 -0.0519
   13DOPE   H3X 1632   3.747   3.769  17.268  0.7164  0.2400  1.2715
   13DOPE   H3Y 1633   3.597   3.850  17.254  4.0967  0.8410  1.4843
   13DOPE   C34 1634   3.579   3.660  17.157  0.1818  0.3046 -0.6766
   13DOPE   H4X 1635   3.633   3.564  17.167 -1.1977 -0.3675  0.7802
   13DOPE   H4Y 1636   3.470   3.638  17.166  0.6446 -1.7782  0.3514
   13DOPE   C35 1637   3.601   3.741  17.026 -0.6484 -0.5389  0.3166
   13DOPE   H5X 1638   3.706   3.768  17.004 -1.0435 -1.8906 -4.0946
   13DOPE   H5Y 1639   3.533   3.828  17.040 -0.5228 -0.6556  1.7773
   13DOPE   C36 1640   3.555   3.663  16.900 -0.3064 -0.0133  0.8158
   13DOPE   H6X 1641   3.445   3.646  16.907 -0.3798  0.4886  0.9709
   13DOPE   H6Y 1642   3.607   3.566  16.885 -1.6774 -0.5731 -0.5655
   13DOPE   C37 1643   3.576   3.756  16.779 -0.6749 -0.2189 -0.3677
   13DOPE   H7X 1644   3.531   3.855  16.803 -0.6826 -0.4199  0.4675
   13DOPE   H7Y 1645   3.685   3.769  16.763 -0.3748 -1.8301  0.2256
   13DOPE   C38 1646   3.528   3.719  16.638 -0.0603 -0.1313  0.5266
   13DOPE   H8X 1647   3.557   3.801  16.569  0.1044 -1.2968 -0.8232
   13DOPE   H8Y 1648   3.418   3.704  16.634  0.1375 -1.3035 -2.0599
   13DOPE   C39 1649   3.592   3.588  16.599 -0.1674  0.0061  0.5232
   13DOPE   H9X 1650   3.564   3.502  16.662  1.5962 -0.9585  0.0344
   13DOPE  C310 1651   3.681   3.571  16.495  0.1671  0.3725  0.3410
   13DOPE  H10X 1652   3.728   3.472  16.500  0.4326  0.5291  1.2668
   13DOPE  C311 1653   3.744   3.669  16.403 -0.3505  0.0123  0.0500
   13DOPE  H11X 1654   3.699   3.770  16.391 -0.4479 -0.0897 -0.5099
   13DOPE  H11Y 1655   3.847   3.694  16.437  0.8348 -1.4847 -2.1760
   13DOPE  C312 1656   3.742   3.608  16.263  0.0482 -0.0303  0.2951
   13DOPE  H12X 1657   3.637   3.609  16.227  0.6479  0.2290 -1.5409
   13DOPE  H12Y 1658   3.782   3.506  16.245 -1.2417 -0.5102  0.0219
   13DOPE  C313 1659   3.809   3.708  16.174  0.3686 -0.1296 -0.0045
   13DOPE  H13X 1660   3.735   3.789  16.159  0.3588 -0.4244 -1.7842
   13DOPE  H13Y 1661   3.898   3.754  16.222  0.4390  0.7297 -0.9191
   13DOPE  C314 1662   3.855   3.645  16.042  0.3594  0.2516  0.4690
   13DOPE  H14X 1663   3.765   3.592  16.001 -1.3829  1.3158  2.7106
   13DOPE  H14Y 1664   3.942   3.578  16.057  0.0687 -0.6600 -1.5327
   13DOPE  C315 1665   3.898   3.764  15.951  0.4195  0.6743  0.5366
   13DOPE  H15X 1666   3.980   3.821  16.001  0.4879  0.6052  0.5034
   13DOPE  H15Y 1667   3.813   3.835  15.954 -0.3760 -0.2819  2.7513
   13DOPE  C316 1668   3.939   3.733  15.807  0.2423  0.3016  0.0809
   13DOPE  H16X 1669   4.029   3.668  15.806  1.5287  1.9995 -1.2121
   13DOPE  H16Y 1670   3.972   3.825  15.754 -0.1544  0.9443  0.9289
   13DOPE  C317 1671   3.832   3.650  15.730  0.4603  0.6947 -0.0523
   13DOPE  H17X 1672   3.787   3.566  15.786 -0.2431  0.2681 -1.2183
   13DOPE  H17Y 1673   3.749   3.719  15.708 -0.0500 -0.1772 -0.9841
   13DOPE  C318 1674   3.889   3.592  15.599  0.4705  0.8393 -0.6897
   13DOPE  H18X 1675   3.815   3.551  15.527 -0.2069  3.3049 -1.5096
   13DOPE  H18Y 1676   3.928   3.675  15.536 -1.7331  1.0825 -1.8008
   13DOPE  H18Z 1677   3.959   3.510  15.624  1.2281  1.4548 -0.7359
   14DOPE     N 1678   5.642   0.294  18.195  0.8787 -0.2244 -0.2397
   14DOPE   HN1 1679   5.671   0.209  18.247 -2.5894 -0.4385  1.5991
   14DOPE   HN2 1680   5.540   0.305  18.214  0.8459  1.6384 -1.2040
   14DOPE   HN3 1681   5.637   0.262  18.096 -1.6168  0.3095 -0.3554
   14DOPE   C12 1682   5.710   0.426  18.213  0.1404  0.5246 -0.4514
   14DOPE  H12A 1683   5.727   0.442  18.322 -0.7681  0.3037 -0.2666
   14DOPE  H12B 1684   5.641   0.500  18.167 -0.1398  0.0957 -0.7231
   14DOPE   C11 1685   5.846   0.427  18.133 -0.3978  0.7659 -0.2919
   14DOPE  H11A 1686   5.917   0.363  18.189 -1.4240 -0.6075 -0.4996
   14DOPE  H11B 1687   5.869   0.535  18.140  1.4712  0.4484 -0.9082
   14DOPE     P 1688   5.957   0.359  17.903  0.2857 -0.0673 -0.0990
   14DOPE   O13 1689   5.916   0.299  17.773 -0.0736 -0.3661 -0.6253
   14DOPE   O14 1690   6.063   0.280  17.981  0.4921 -0.3697 -0.3599
   14DOPE   O11 1691   5.999   0.512  17.880  0.3708 -0.0987  0.7334
   14DOPE   O12 1692   5.829   0.378  17.996  0.8490  0.3405 -0.6566
   14DOPE    C1 1693   5.930   0.600  17.790 -0.1038 -0.0983 -0.0356
   14DOPE    HA 1694   5.918   0.702  17.831  0.4133 -0.6542  1.5790
   14DOPE    HB 1695   5.831   0.555  17.765 -0.5821  2.0014 -2.2617
   14DOPE    C2 1696   6.004   0.601  17.654  0.5869  0.2986  0.3567
   14DOPE    HS 1697   6.009   0.493  17.627  1.2532  0.6777 -1.0973
   14DOPE   O21 1698   6.138   0.639  17.676 -0.3540 -0.6212 -0.5939
   14DOPE   C21 1699   6.235   0.594  17.603 -1.1186  0.0946  0.5238
   14DOPE   O22 1700   6.219   0.529  17.502  0.2629 -0.0153 -0.4424
   14DOPE   C22 1701   6.369   0.622  17.680 -0.5398 -0.1959  0.1801
   14DOPE   H2R 1702   6.368   0.578  17.782  0.3762  3.3747  1.8733
   14DOPE   H2S 1703   6.374   0.730  17.704 -0.1529  0.0632 -1.0011
   14DOPE    C3 1704   5.924   0.685  17.546  0.1065  0.8509 -0.2151
   14DOPE    HX 1705   5.930   0.791  17.579  2.4407  0.7445 -0.0999
   14DOPE    HY 1706   5.820   0.648  17.538  0.3530  0.4249 -1.9059
   14DOPE   O31 1707   5.987   0.677  17.420  0.6130 -0.0976 -0.7059
   14DOPE   C31 1708   5.959   0.569  17.353 -0.1806  0.5043  0.1804
   14DOPE   O32 1709   5.879   0.482  17.389  0.5693 -0.5316 -0.6483
   14DOPE   C32 1710   6.032   0.565  17.215 -0.4526  0.4099 -0.1766
   14DOPE   H2X 1711   5.981   0.646  17.158 -0.9239  0.6966  0.6244
   14DOPE   H2Y 1712   6.138   0.591  17.233 -0.2060  0.4451 -1.5573
   14DOPE   C23 1713   6.494   0.589  17.608  0.3468 -0.4404 -0.0940
   14DOPE   H3R 1714   6.496   0.480  17.587 -0.9019 -0.3977 -0.5333
   14DOPE   H3S 1715   6.588   0.611  17.664 -0.5719 -1.2188  1.8337
   14DOPE   C24 1716   6.511   0.665  17.468 -0.6500 -0.3347  0.4244
   14DOPE   H4R 1717   6.504   0.775  17.482 -2.1279 -0.4880  1.0796
   14DOPE   H4S 1718   6.439   0.630  17.390  1.4985 -2.6518 -0.6571
   14DOPE   C25 1719   6.649   0.637  17.407 -0.5143 -0.1435  0.9615
   14DOPE   H5R 1720   6.681   0.531  17.404 -2.3055 -0.7758  2.5956
   14DOPE   H5S 1721   6.725   0.690  17.469  3.3534 -0.9361 -2.6216
   14DOPE   C26 1722   6.695   0.700  17.273  0.7868  0.2649 -0.5016
   14DOPE   H6R 1723   6.803   0.693  17.249  0.7656 -2.0763 -0.1386
   14DOPE   H6S 1724   6.674   0.808  17.288  2.3389  0.4474  0.5891
   14DOPE   C27 1725   6.613   0.625  17.154 -0.1638  0.1015 -0.6470
   14DOPE   H7R 1726   6.505   0.641  17.172 -0.5706  0.5916 -3.1506
   14DOPE   H7S 1727   6.629   0.516  17.171  1.3337  0.0720 -2.0096
   14DOPE   C28 1728   6.657   0.677  17.014 -0.2277  0.3272 -0.6348
   14DOPE   H8R 1729   6.766   0.697  17.014 -0.1023 -0.0685  1.7827
   14DOPE   H8S 1730   6.608   0.776  17.010 -0.1432  0.6267  2.7845
   14DOPE   C29 1731   6.608   0.572  16.917  0.2787  0.2624  0.3982
   14DOPE   H9R 1732   6.512   0.524  16.940  0.4585 -1.8512 -2.6778
   14DOPE  C210 1733   6.662   0.541  16.799 -0.0607  0.1389 -0.2802
   14DOPE  H10R 1734   6.614   0.463  16.738 -1.5373  1.3688 -0.7215
   14DOPE  C211 1735   6.791   0.591  16.742  0.3470 -0.0482 -0.6046
   14DOPE  H11R 1736   6.837   0.512  16.679  0.5397 -0.2803 -0.1809
   14DOPE  H11S 1737   6.855   0.615  16.829 -2.0309 -0.7577  1.4535
   14DOPE  C212 1738   6.763   0.694  16.635 -0.2647  0.6519 -0.9085
   14DOPE  H12R 1739   6.859   0.746  16.614  0.1507  1.1213  1.7281
   14DOPE  H12S 1740   6.701   0.776  16.679  0.8060 -0.0154  2.1328
   14DOPE  C213 1741   6.713   0.638  16.500 -1.0880  0.3872 -0.3544
   14DOPE  H13R 1742   6.672   0.722  16.439 -1.9266  0.1676 -0.1099
   14DOPE  H13S 1743   6.643   0.555  16.525  0.1470 -0.2560  1.1798
   14DOPE  C214 1744   6.833   0.583  16.421  1.0397 -0.4781 -0.0353
   14DOPE  H14R 1745   6.877   0.491  16.464 -0.3590 -1.8084 -1.3260
   14DOPE  H14S 1746   6.912   0.661  16.419 -1.6207  2.4415  1.3181
   14DOPE  C215 1747   6.795   0.565  16.269  0.3414 -0.6838  0.1243
   14DOPE  H15R 1748   6.739   0.655  16.234  1.3257  0.6114  1.7360
   14DOPE  H15S 1749   6.718   0.487  16.256  1.1953 -1.5187 -0.0172
   14DOPE  C216 1750   6.915   0.534  16.177 -0.4323  0.3656 -0.2321
   14DOPE  H16R 1751   7.000   0.600  16.203 -1.4183  2.8059 -2.7043
   14DOPE  H16S 1752   6.897   0.567  16.073  3.2944  0.1277 -1.0770
   14DOPE  C217 1753   6.959   0.389  16.193  0.7031 -0.1710  0.2428
   14DOPE  H17R 1754   6.881   0.322  16.153  0.6542 -0.2083  0.4014
   14DOPE  H17S 1755   6.970   0.361  16.300 -1.1590 -0.4001  0.4044
   14DOPE  C218 1756   7.078   0.350  16.113 -0.2352  0.1214  0.6818
   14DOPE  H18R 1757   7.175   0.356  16.167  0.6771 -1.6596 -0.6311
   14DOPE  H18S 1758   7.089   0.419  16.026  1.3892  2.2681  2.4900
   14DOPE  H18T 1759   7.068   0.248  16.070  1.3417 -0.6388  2.0205
   14DOPE   C33 1760   6.032   0.434  17.141  0.1687 -0.4351  0.2362
   14DOPE   H3X 1761   5.925   0.412  17.124  0.3556 -0.4316 -1.0063
   14DOPE   H3Y 1762   6.077   0.354  17.205  0.5957  1.8435  3.0282
   14DOPE   C34 1763   6.112   0.452  17.019  0.2559  0.0924 -0.0242
   14DOPE   H4X 1764   6.053   0.517  16.952 -1.4033 -1.0227  0.2872
   14DOPE   H4Y 1765   6.212   0.497  17.035  0.0501  0.3569  0.5747
   14DOPE   C35 1766   6.130   0.307  16.958 -0.2168  0.2050  0.2412
   14DOPE   H5X 1767   6.032   0.272  16.918 -0.1436  0.6813 -0.3744
   14DOPE   H5Y 1768   6.162   0.239  17.040  2.1119  0.2008 -0.6018
   14DOPE   C36 1769   6.237   0.298  16.847  0.2464  0.5531 -0.2469
   14DOPE   H6X 1770   6.246   0.191  16.819 -2.1148  0.3938 -0.5895
   14DOPE   H6Y 1771   6.332   0.328  16.896  1.1162 -1.6813 -0.4806
   14DOPE   C37 1772   6.197   0.386  16.728  0.3893  0.2582 -0.0284
   14DOPE   H7X 1773   6.093   0.359  16.700  0.0294  1.0393  0.4917
   14DOPE   H7Y 1774   6.195   0.493  16.760  0.6599  0.1295  0.4347
   14DOPE   C38 1775   6.291   0.379  16.605 -0.1793 -1.0813  0.0138
   14DOPE   H8X 1776   6.395   0.395  16.641 -0.3384  1.9581 -0.6477
   14DOPE   H8Y 1777   6.261   0.460  16.536  1.3377 -0.1111  0.4284
   14DOPE   C39 1778   6.275   0.242  16.552 -0.0232  0.2925  0.0912
   14DOPE   H9X 1779   6.180   0.193  16.579  0.1589  0.6458  1.4764
   14DOPE  C310 1780   6.365   0.182  16.479  0.7806 -0.7220 -0.2782
   14DOPE  H10X 1781   6.353   0.079  16.442  0.7399 -0.1188 -2.0005
   14DOPE  C311 1782   6.498   0.231  16.430 -0.2745  0.5821  0.1564
   14DOPE  H11X 1783   6.498   0.320  16.363 -3.2480 -0.7251 -1.7763
   14DOPE  H11Y 1784   6.557   0.258  16.521 -1.6753  0.6583  1.0842
   14DOPE  C312 1785   6.568   0.122  16.343  0.1673  0.2716  0.3813
   14DOPE  H12X 1786   6.587   0.023  16.389 -2.6122 -0.4381  0.2054
   14DOPE  H12Y 1787   6.664   0.168  16.312  0.4252  0.4115  1.3678
   14DOPE  C313 1788   6.509   0.098  16.199 -0.0166 -0.2372  0.5159
   14DOPE  H13X 1789   6.584   0.025  16.162 -1.3577 -1.5666  0.3022
   14DOPE  H13Y 1790   6.412   0.044  16.207  0.1616 -0.5369  0.6990
   14DOPE  C314 1791   6.514   0.224  16.105 -0.4727 -0.0988 -0.6674
   14DOPE  H14X 1792   6.600   0.291  16.130 -1.7615  0.7160  1.9310
   14DOPE  H14Y 1793   6.429   0.294  16.118  1.7266  2.7110 -0.3221
   14DOPE  C315 1794   6.528   0.172  15.960 -0.7124 -0.1692  0.7239
   14DOPE  H15X 1795   6.624   0.117  15.952 -0.0989  0.4771  2.9135
   14DOPE  H15Y 1796   6.534   0.259  15.891 -3.5366 -1.4316 -1.3013
   14DOPE  C316 1797   6.416   0.081  15.913 -0.0352  0.5295  0.3408
   14DOPE  H16X 1798   6.319   0.123  15.948  0.6646  3.0710 -0.5768
   14DOPE  H16Y 1799   6.440  -0.017  15.961 -1.6083  1.2859  2.8867
   14DOPE  C317 1800   6.398   0.061  15.764  0.0948 -0.3631 -0.5625
   14DOPE  H17X 1801   6.289   0.059  15.743 -0.1200 -0.1297  0.4883
   14DOPE  H17Y 1802   6.440   0.150  15.711  0.0639  0.1818  0.3083
   14DOPE  C318 1803   6.482  -0.065  15.717  0.0487 -0.0920 -0.5210
   14DOPE  H18X 1804   6.430  -0.155  15.755 -1.2405  0.2237 -1.4554
   14DOPE  H18Y 1805   6.480  -0.084  15.607  0.8461 -0.6458 -0.4485
   14DOPE  H18Z 1806   6.585  -0.046  15.756 -0.2723  1.9209 -0.5255
   15DOPE     N 1807   2.571   4.512  17.646 -0.0466  0.6684  0.4676
   15DOPE   HN1 1808   2.659   4.568  17.643  0.2306  0.2445  0.6382
   15DOPE   HN2 1809   2.491   4.577  17.660  0.6624  1.7871 -0.5295
   15DOPE   HN3 1810   2.571   4.452  17.731  1.8959 -0.5741 -0.3300
   15DOPE   C12 1811   2.554   4.428  17.518  0.0608  0.0693 -0.5757
   15DOPE  H12A 1812   2.603   4.332  17.544 -1.0531 -0.4596 -0.3414
   15DOPE  H12B 1813   2.606   4.482  17.436  1.8851 -0.1785  0.3653
   15DOPE   C11 1814   2.407   4.410  17.488 -0.2772  0.0692  0.1453
   15DOPE  H11A 1815   2.395   4.373  17.385  1.4021 -1.9158  0.5956
   15DOPE  H11B 1816   2.355   4.508  17.495 -0.0255  0.1158  2.3291
   15DOPE     P 1817   2.205   4.252  17.566  0.0026 -0.0280 -0.2225
   15DOPE   O13 1818   2.100   4.359  17.576 -0.3796  0.2877 -0.0761
   15DOPE   O14 1819   2.198   4.137  17.661  0.5350 -0.2310 -0.7361
   15DOPE   O11 1820   2.233   4.194  17.423 -0.4563  0.2752  0.3613
   15DOPE   O12 1821   2.345   4.322  17.584 -0.6230  0.4933 -0.4096
   15DOPE    C1 1822   2.339   4.105  17.401 -0.4061  0.4415 -0.2371
   15DOPE    HA 1823   2.334   4.016  17.467 -0.4481  0.7896  0.2331
   15DOPE    HB 1824   2.436   4.156  17.421  0.1858 -0.7365 -0.0081
   15DOPE    C2 1825   2.331   4.042  17.252 -0.6406  0.4511 -0.6736
   15DOPE    HS 1826   2.419   3.976  17.238 -1.8146 -1.0493 -1.2799
   15DOPE   O21 1827   2.319   4.139  17.142 -0.3842  0.7060  0.6655
   15DOPE   C21 1828   2.438   4.210  17.139 -0.4416  0.7682  0.1262
   15DOPE   O22 1829   2.541   4.180  17.190 -0.2127  0.2973  0.2691
   15DOPE   C22 1830   2.406   4.331  17.049 -0.5338 -0.1958  0.0512
   15DOPE   H2R 1831   2.339   4.405  17.097  1.1168  2.5066 -1.5375
   15DOPE   H2S 1832   2.353   4.296  16.958  0.3654  2.0033 -1.3908
   15DOPE    C3 1833   2.211   3.939  17.258 -0.6134 -0.5184  0.6818
   15DOPE    HX 1834   2.125   4.001  17.292  0.7052  1.2196  1.0238
   15DOPE    HY 1835   2.226   3.861  17.336  2.3391 -0.2149  0.5450
   15DOPE   O31 1836   2.184   3.878  17.131 -0.0373 -0.5784 -0.5773
   15DOPE   C31 1837   2.239   3.756  17.107  0.1892 -0.8419  0.4568
   15DOPE   O32 1838   2.309   3.697  17.188  0.2059 -0.1745  0.4661
   15DOPE   C32 1839   2.208   3.720  16.960 -0.5976  0.2503  0.0067
   15DOPE   H2X 1840   2.109   3.763  16.931 -0.6192  0.4781  0.4158
   15DOPE   H2Y 1841   2.285   3.768  16.896  0.4699  0.8858  1.6889
   15DOPE   C23 1842   2.536   4.400  17.007  0.6510 -0.2505 -0.2444
   15DOPE   H3R 1843   2.606   4.320  16.975  1.0633 -0.1156  0.3031
   15DOPE   H3S 1844   2.576   4.453  17.097 -1.2171  0.0965  0.4366
   15DOPE   C24 1845   2.515   4.498  16.890  0.5129 -0.4516 -0.3647
   15DOPE   H4R 1846   2.437   4.574  16.914 -0.1259 -1.5354  1.1491
   15DOPE   H4S 1847   2.465   4.440  16.809  0.3942 -0.3608 -0.3578
   15DOPE   C25 1848   2.646   4.571  16.856  0.2815 -0.4575  0.2988
   15DOPE   H5R 1849   2.727   4.497  16.835  0.2127 -0.7751  1.1159
   15DOPE   H5S 1850   2.686   4.634  16.939  0.5609  0.0214 -0.1893
   15DOPE   C26 1851   2.629   4.654  16.732  0.1062 -0.5167 -0.0073
   15DOPE   H6R 1852   2.726   4.706  16.718  0.0326 -0.7426 -1.5729
   15DOPE   H6S 1853   2.543   4.724  16.743 -0.2249 -0.8531 -0.4137
   15DOPE   C27 1854   2.617   4.560  16.614  0.3332  0.4284  0.2888
   15DOPE   H7R 1855   2.515   4.517  16.618  0.3216  0.4247 -0.0126
   15DOPE   H7S 1856   2.684   4.472  16.620 -1.6139 -1.2097 -0.7029
   15DOPE   C28 1857   2.639   4.634  16.475 -0.5651 -0.0351  0.8356
   15DOPE   H8R 1858   2.743   4.674  16.480 -0.8566  1.7971 -3.5140
   15DOPE   H8S 1859   2.577   4.726  16.473 -1.3589 -0.5686 -1.4063
   15DOPE   C29 1860   2.605   4.539  16.363 -0.0498  0.0968  0.5690
   15DOPE   H9R 1861   2.591   4.435  16.396 -2.2980  1.0799  3.0769
   15DOPE  C210 1862   2.597   4.573  16.227 -0.2122  0.6573 -0.0159
   15DOPE  H10R 1863   2.575   4.496  16.152  0.8778 -0.1644  0.4927
   15DOPE  C211 1864   2.622   4.711  16.180  0.1004  0.3268 -0.2970
   15DOPE  H11R 1865   2.655   4.774  16.265  0.3414  1.1885 -1.0196
   15DOPE  H11S 1866   2.533   4.765  16.140 -0.6678 -1.1617 -0.7123
   15DOPE  C212 1867   2.722   4.716  16.067  0.3593  0.5210  0.1383
   15DOPE  H12R 1868   2.808   4.659  16.108 -0.4104 -0.6858  0.1094
   15DOPE  H12S 1869   2.752   4.822  16.053  0.6719  0.4224  0.0552
   15DOPE  C213 1870   2.671   4.658  15.935 -0.3571 -0.3873  0.1352
   15DOPE  H13R 1871   2.604   4.738  15.895  0.0997 -0.7816 -1.5285
   15DOPE  H13S 1872   2.615   4.564  15.949 -0.4711 -0.2505  0.6184
   15DOPE  C214 1873   2.774   4.632  15.826  0.7393 -0.2864  0.6054
   15DOPE  H14R 1874   2.842   4.553  15.865  2.1811  0.7480  0.2916
   15DOPE  H14S 1875   2.843   4.719  15.823 -1.5871  1.6982  1.4425
   15DOPE  C215 1876   2.719   4.600  15.687 -0.0741  0.1270  0.3153
   15DOPE  H15R 1877   2.675   4.498  15.690  0.4972 -0.2140 -1.6824
   15DOPE  H15S 1878   2.802   4.597  15.613 -1.7016 -2.0310 -1.5391
   15DOPE  C216 1879   2.625   4.708  15.629  0.6197 -0.0222 -0.1730
   15DOPE  H16R 1880   2.664   4.808  15.657  0.1755  0.3061 -0.6995
   15DOPE  H16S 1881   2.530   4.692  15.686  1.1385 -1.2232  0.3716
   15DOPE  C217 1882   2.588   4.698  15.480 -0.3671 -0.1997 -0.8764
   15DOPE  H17R 1883   2.683   4.683  15.423  1.2383  0.1625  1.5447
   15DOPE  H17S 1884   2.541   4.796  15.459 -0.4839  0.3893  1.7787
   15DOPE  C218 1885   2.497   4.579  15.451 -0.3525  0.3642  0.1306
   15DOPE  H18R 1886   2.398   4.591  15.501 -0.2598 -0.2348  0.4654
   15DOPE  H18S 1887   2.548   4.482  15.465  0.2857  0.8627  1.3818
   15DOPE  H18T 1888   2.483   4.583  15.341  2.0722 -0.9844 -0.2879
   15DOPE   C33 1889   2.217   3.564  16.933 -0.4821 -0.5078 -0.0171
   15DOPE   H3X 1890   2.149   3.507  17.001 -1.1768 -1.3755 -1.3986
   15DOPE   H3Y 1891   2.323   3.530  16.937 -1.1936 -2.8228  2.2954
   15DOPE   C34 1892   2.172   3.527  16.798 -0.5922 -0.2952  0.6864
   15DOPE   H4X 1893   2.188   3.419  16.776  0.5233  0.3469 -2.1367
   15DOPE   H4Y 1894   2.061   3.529  16.790 -0.7812  0.2024  2.8297
   15DOPE   C35 1895   2.235   3.609  16.683 -0.2519 -0.0234  0.1539
   15DOPE   H5X 1896   2.344   3.615  16.704 -0.2331  2.3043 -0.3944
   15DOPE   H5Y 1897   2.203   3.715  16.685  0.0486  0.0879  2.9195
   15DOPE   C36 1898   2.197   3.562  16.545  0.5886 -0.1989  0.1872
   15DOPE   H6X 1899   2.087   3.544  16.545 -0.0571  3.2090  0.4111
   15DOPE   H6Y 1900   2.254   3.467  16.537  0.4758 -0.2626  0.1375
   15DOPE   C37 1901   2.234   3.654  16.429  0.9254  0.4111 -0.1002
   15DOPE   H7X 1902   2.185   3.752  16.443 -1.3392 -1.1056  5.6575
   15DOPE   H7Y 1903   2.345   3.661  16.438  0.8496  1.0173  0.3932
   15DOPE   C38 1904   2.211   3.586  16.296  0.3655  0.1503  0.8611
   15DOPE   H8X 1905   2.100   3.589  16.282  0.3828  2.1603  0.8025
   15DOPE   H8Y 1906   2.245   3.480  16.293 -2.0926 -0.6848 -0.2166
   15DOPE   C39 1907   2.289   3.650  16.184  0.1066 -0.6804  0.3814
   15DOPE   H9X 1908   2.370   3.711  16.227 -0.2863  0.4846 -0.4887
   15DOPE  C310 1909   2.301   3.619  16.057 -0.3201  0.2923 -0.2190
   15DOPE  H10X 1910   2.363   3.680  15.989 -1.2392  1.9195  0.3394
   15DOPE  C311 1911   2.223   3.501  16.003  0.3807  0.6810 -0.4762
   15DOPE  H11X 1912   2.297   3.419  15.992 -0.2768 -0.7613  3.7777
   15DOPE  H11Y 1913   2.145   3.457  16.070  0.3435 -1.0362 -1.5967
   15DOPE  C312 1914   2.158   3.527  15.873  0.2870  0.1971  0.3275
   15DOPE  H12X 1915   2.077   3.603  15.879 -1.5403 -1.6546  0.0826
   15DOPE  H12Y 1916   2.101   3.432  15.870  0.0869  0.2136  2.1215
   15DOPE  C313 1917   2.256   3.546  15.754 -0.6292  0.5941 -0.2446
   15DOPE  H13X 1918   2.330   3.628  15.769  1.2724 -1.0354 -0.4201
   15DOPE  H13Y 1919   2.318   3.457  15.732 -1.0098  0.4987 -0.9646
   15DOPE  C314 1920   2.184   3.592  15.625  0.1699 -0.3429 -0.2194
   15DOPE  H14X 1921   2.116   3.675  15.654  1.0160 -0.1645  1.4051
   15DOPE  H14Y 1922   2.103   3.519  15.602 -0.4373  0.1362  0.3503
   15DOPE  C315 1923   2.289   3.619  15.518  0.3275  0.1918  0.2473
   15DOPE  H15X 1924   2.340   3.521  15.506 -1.9021 -1.1296  0.9033
   15DOPE  H15Y 1925   2.354   3.702  15.553  0.7256  0.4646 -1.1131
   15DOPE  C316 1926   2.228   3.660  15.382 -0.0565  0.0032 -0.1980
   15DOPE  H16X 1927   2.316   3.696  15.323 -0.6662 -0.4931 -1.4546
   15DOPE  H16Y 1928   2.160   3.746  15.398  2.0327  1.7026  0.0744
   15DOPE  C317 1929   2.166   3.548  15.296  0.1278  0.8474 -0.3970
   15DOPE  H17X 1930   2.237   3.466  15.276 -0.1636  0.5988 -0.4201
   15DOPE  H17Y 1931   2.077   3.510  15.351  1.5876 -0.7223  0.9968
   15DOPE  C318 1932   2.122   3.599  15.160 -0.2087  0.7612  0.3963
   15DOPE  H18X 1933   2.052   3.685  15.172 -0.1197  0.6798  1.5724
   15DOPE  H18Y 1934   2.207   3.633  15.097 -0.4806 -0.3517 -0.5996
   15DOPE  H18Z 1935   2.086   3.517  15.094  2.5545  0.4497 -0.8783
   16DOPE     N 1936   3.234   0.622  17.545 -0.1222 -0.9486  0.1257
   16DOPE   HN1 1937   3.255   0.643  17.645  0.6156  0.3140 -0.2735
   16DOPE   HN2 1938   3.289   0.697  17.499 -1.1533 -0.1934  0.0825
   16DOPE   HN3 1939   3.134   0.640  17.523  0.5041  0.5662 -1.7985
   16DOPE   C12 1940   3.277   0.487  17.503  0.1833  0.1455 -0.1950
   16DOPE  H12A 1941   3.387   0.477  17.520  0.3287  1.4064 -0.2809
   16DOPE  H12B 1942   3.247   0.483  17.396  0.8514  0.4920 -0.4058
   16DOPE   C11 1943   3.205   0.384  17.579  0.1777 -0.0395  0.5067
   16DOPE  H11A 1944   3.229   0.394  17.687  1.5396 -2.3013  0.4774
   16DOPE  H11B 1945   3.245   0.286  17.544  0.1919 -0.8869  2.7516
   16DOPE     P 1946   2.958   0.284  17.594  0.0102  0.1320 -0.3459
   16DOPE   O13 1947   2.825   0.340  17.576 -0.5384  0.3500  0.6551
   16DOPE   O14 1948   2.996   0.232  17.732 -0.1413 -0.6176 -0.1496
   16DOPE   O11 1949   2.977   0.170  17.486 -0.0835  1.1376 -0.0949
   16DOPE   O12 1950   3.066   0.389  17.541  0.2780 -0.0699 -0.1669
   16DOPE    C1 1951   2.989   0.195  17.348  0.5867 -0.3638  0.0449
   16DOPE    HA 1952   3.093   0.191  17.310 -0.0328  1.7348 -2.1205
   16DOPE    HB 1953   2.965   0.301  17.329  1.8432  0.4943  2.7255
   16DOPE    C2 1954   2.908   0.097  17.260  0.1158 -0.2993 -0.7898
   16DOPE    HS 1955   2.942  -0.007  17.281 -0.9228 -0.7963 -1.4930
   16DOPE   O21 1956   2.925   0.141  17.123 -0.3439 -0.1128 -0.4322
   16DOPE   C21 1957   2.924   0.041  17.039 -0.3376  0.0831 -0.0130
   16DOPE   O22 1958   2.933  -0.075  17.066 -0.8714  0.5158 -0.4033
   16DOPE   C22 1959   2.899   0.100  16.904 -0.3990 -0.0693  0.0449
   16DOPE   H2R 1960   2.990   0.161  16.885 -0.9823  0.3993 -1.4205
   16DOPE   H2S 1961   2.812   0.169  16.903 -0.4845 -0.1792 -0.0875
   16DOPE    C3 1962   2.762   0.102  17.311 -0.0665 -0.0995  0.8019
   16DOPE    HX 1963   2.733   0.208  17.322 -0.6639  0.3993 -3.5494
   16DOPE    HY 1964   2.752   0.065  17.415  0.2291 -0.1474  0.8160
   16DOPE   O31 1965   2.671   0.035  17.215  0.1794 -0.4565  0.5335
   16DOPE   C31 1966   2.669  -0.099  17.239  0.1825 -0.4893  0.2554
   16DOPE   O32 1967   2.714  -0.156  17.337 -0.6123  0.1124  0.3965
   16DOPE   C32 1968   2.600  -0.168  17.128 -0.5230  0.0156  0.3043
   16DOPE   H2X 1969   2.495  -0.135  17.114 -0.3411  0.2251 -0.6232
   16DOPE   H2Y 1970   2.659  -0.160  17.034 -1.3198 -0.5498 -0.2622
   16DOPE   C23 1971   2.858  -0.009  16.806  0.9204  0.4744  0.5795
   16DOPE   H3R 1972   2.770  -0.064  16.845  1.1763 -1.2081 -1.0651
   16DOPE   H3S 1973   2.941  -0.083  16.801  0.4853  0.0638 -1.5594
   16DOPE   C24 1974   2.816   0.042  16.665  0.0352  0.3441  0.4701
   16DOPE   H4R 1975   2.724   0.102  16.677 -0.1227 -0.0969  1.5937
   16DOPE   H4S 1976   2.799  -0.039  16.590  1.8779 -0.3647  0.7654
   16DOPE   C25 1977   2.914   0.144  16.604 -0.3915  0.6681 -0.2309
   16DOPE   H5R 1978   3.008   0.086  16.590 -1.2322 -0.8498  0.1805
   16DOPE   H5S 1979   2.942   0.228  16.672  2.0852  1.3084 -1.9017
   16DOPE   C26 1980   2.874   0.202  16.472  0.2740 -0.0838  0.2379
   16DOPE   H6R 1981   2.918   0.304  16.467 -1.1916  0.5250 -1.0327
   16DOPE   H6S 1982   2.764   0.213  16.471  0.2320 -0.4855 -0.5715
   16DOPE   C27 1983   2.912   0.111  16.354  0.1628  0.1969  0.2624
   16DOPE   H7R 1984   2.854   0.016  16.355  0.8330 -0.2262  0.9565
   16DOPE   H7S 1985   3.018   0.080  16.342  0.4862  2.3092 -4.0631
   16DOPE   C28 1986   2.888   0.182  16.217 -0.6613  0.3179  0.1919
   16DOPE   H8R 1987   2.920   0.108  16.141 -0.4923  0.6991 -0.1117
   16DOPE   H8S 1988   2.963   0.264  16.220  2.4566 -2.3484 -0.4728
   16DOPE   C29 1989   2.751   0.238  16.189 -0.3485 -0.9752  0.1184
   16DOPE   H9R 1990   2.705   0.300  16.267  0.8296  2.1552 -1.5130
   16DOPE  C210 1991   2.689   0.236  16.067 -0.3839  0.1607  0.7371
   16DOPE  H10R 1992   2.591   0.284  16.063 -0.3254  0.4671  2.2391
   16DOPE  C211 1993   2.732   0.167  15.947 -0.6077  0.2834  0.1704
   16DOPE  H11R 1994   2.646   0.156  15.876  0.4429  2.2024 -1.5282
   16DOPE  H11S 1995   2.760   0.064  15.977 -1.4650  0.0564  0.2137
   16DOPE  C212 1996   2.853   0.237  15.876 -0.3769 -0.5196  0.2404
   16DOPE  H12R 1997   2.944   0.224  15.938 -1.8035 -0.5184  2.4504
   16DOPE  H12S 1998   2.832   0.345  15.859 -2.1801 -1.1886 -2.4217
   16DOPE  C213 1999   2.876   0.173  15.737  0.3110 -0.1169  0.3722
   16DOPE  H13R 2000   2.865   0.063  15.737 -0.7728 -0.1251 -2.8048
   16DOPE  H13S 2001   2.982   0.178  15.705  0.3676 -3.1906 -0.1698
   16DOPE  C214 2002   2.781   0.227  15.621 -0.2227  0.0208  0.0020
   16DOPE  H14R 2003   2.809   0.333  15.607  0.0080 -0.0293  0.0740
   16DOPE  H14S 2004   2.675   0.218  15.653 -0.5477  0.0627 -1.0127
   16DOPE  C215 2005   2.802   0.155  15.490 -1.2749  0.0159 -0.5316
   16DOPE  H15R 2006   2.907   0.175  15.460 -0.0809 -0.5720  2.7943
   16DOPE  H15S 2007   2.740   0.212  15.417  0.0415  0.7940 -1.0734
   16DOPE  C216 2008   2.755   0.013  15.491  0.2171 -0.0368 -0.4074
   16DOPE  H16R 2009   2.658   0.013  15.545  0.2827 -2.5259 -0.2015
   16DOPE  H16S 2010   2.818  -0.051  15.555 -2.8289 -0.3814  2.5387
   16DOPE  C217 2011   2.731  -0.046  15.349 -0.0341 -1.3362 -0.5490
   16DOPE  H17R 2012   2.799   0.000  15.274 -0.9885 -0.1531 -0.7273
   16DOPE  H17S 2013   2.630  -0.008  15.320 -0.4807 -2.3377 -0.3390
   16DOPE  C218 2014   2.732  -0.196  15.348 -0.1039 -0.0425 -0.1730
   16DOPE  H18R 2015   2.697  -0.239  15.252 -0.8681 -1.0506  0.5295
   16DOPE  H18S 2016   2.669  -0.232  15.432  0.7362 -0.0870  0.4545
   16DOPE  H18T 2017   2.838  -0.225  15.367 -0.4634 -0.3450  1.5615
   16DOPE   C33 2018   2.585  -0.323  17.144 -0.1653  0.3111 -0.2143
   16DOPE   H3X 2019   2.512  -0.350  17.223  0.0903 -0.3264 -0.1951
   16DOPE   H3Y 2020   2.681  -0.364  17.181 -0.4656 -1.0293 -0.8783
   16DOPE   C34 2021   2.555  -0.404  17.021 -0.4300 -0.1702 -0.6107
   16DOPE   H4X 2022   2.635  -0.396  16.944  1.4348 -4.3240  0.5606
   16DOPE   H4Y 2023   2.570  -0.509  17.055 -0.8976  0.0894  0.4523
   16DOPE   C35 2024   2.408  -0.399  16.972 -0.0010 -0.1165 -0.1351
   16DOPE   H5X 2025   2.389  -0.290  16.966 -1.8294 -0.3529  0.7892
   16DOPE   H5Y 2026   2.341  -0.428  17.056  1.2623  1.0963  1.3417
   16DOPE   C36 2027   2.378  -0.478  16.846  0.0734  0.2777 -0.2589
   16DOPE   H6X 2028   2.435  -0.429  16.764 -0.9966  0.0253 -1.1711
   16DOPE   H6Y 2029   2.269  -0.483  16.827 -0.0816 -0.9895  0.8056
   16DOPE   C37 2030   2.410  -0.623  16.877 -0.1831 -0.2140  0.2060
   16DOPE   H7X 2031   2.520  -0.633  16.894  0.1074  1.3483 -0.6019
   16DOPE   H7Y 2032   2.363  -0.653  16.973  0.3899  0.5102  0.7266
   16DOPE   C38 2033   2.356  -0.728  16.778 -0.2625 -0.9571  0.8299
   16DOPE   H8X 2034   2.246  -0.714  16.772  0.0576  2.1319  0.9760
   16DOPE   H8Y 2035   2.369  -0.828  16.824 -2.6083 -0.1712  3.4788
   16DOPE   C39 2036   2.431  -0.709  16.646 -0.4546 -0.0718 -0.2395
   16DOPE   H9X 2037   2.512  -0.635  16.649  0.4246 -0.8914 -2.1938
   16DOPE  C310 2038   2.404  -0.772  16.520  0.8664 -0.0128 -0.9806
   16DOPE  H10X 2039   2.470  -0.743  16.437  3.1031 -2.2857 -0.1314
   16DOPE  C311 2040   2.299  -0.881  16.498  0.1983 -0.0601 -0.1912
   16DOPE  H11X 2041   2.260  -0.927  16.591  2.1482  0.3906  0.9096
   16DOPE  H11Y 2042   2.212  -0.856  16.433 -0.6022 -1.8229  0.1565
   16DOPE  C312 2043   2.375  -1.003  16.437  1.1223 -0.0773 -0.1214
   16DOPE  H12X 2044   2.315  -1.097  16.438  1.0267 -0.0190 -0.3366
   16DOPE  H12Y 2045   2.463  -1.034  16.496  1.0165 -0.5957 -0.2302
   16DOPE  C313 2046   2.400  -0.989  16.290 -0.2626  0.4028  0.2650
   16DOPE  H13X 2047   2.465  -0.904  16.261  5.4897 -2.9981  1.5015
   16DOPE  H13Y 2048   2.465  -1.076  16.265 -2.3926 -1.1482 -0.1810
   16DOPE  C314 2049   2.270  -0.995  16.208 -0.1708 -0.0687 -0.6714
   16DOPE  H14X 2050   2.221  -0.896  16.216 -0.0561  0.0999 -1.8880
   16DOPE  H14Y 2051   2.205  -1.084  16.223 -0.7248  0.1663 -1.5789
   16DOPE  C315 2052   2.305  -1.003  16.060 -1.0834  0.2736  0.6509
   16DOPE  H15X 2053   2.367  -1.095  16.047 -0.7448  0.4865  0.7336
   16DOPE  H15Y 2054   2.368  -0.920  16.020 -0.0820 -1.1655 -0.9045
   16DOPE  C316 2055   2.183  -1.019  15.972  0.0164  0.3132  0.7798
   16DOPE  H16X 2056   2.125  -0.924  15.970  0.7752  0.7779  0.6519
   16DOPE  H16Y 2057   2.117  -1.106  15.993 -0.7120  0.6075 -0.1926
   16DOPE  C317 2058   2.230  -1.048  15.830  0.5295  0.7427 -0.0601
   16DOPE  H17X 2059   2.318  -0.987  15.804  1.4391 -0.6588 -0.4008
   16DOPE  H17Y 2060   2.265  -1.154  15.825  0.3136  0.4200  3.0609
   16DOPE  C318 2061   2.124  -1.034  15.718  0.1730 -0.0080  0.1192
   16DOPE  H18X 2062   2.125  -0.926  15.692  0.9858  0.5671  2.3483
   16DOPE  H18Y 2063   2.149  -1.088  15.624 -0.6352  1.5927 -1.0671
   16DOPE  H18Z 2064   2.022  -1.056  15.755  0.6868  0.3943  1.8676
   17DOPE     N 2065   4.401   2.233  17.046 -0.1005  0.2172  0.4163
   17DOPE   HN1 2066   4.483   2.293  17.071 -0.5232  0.7048  0.6669
   17DOPE   HN2 2067   4.419   2.143  17.095 -0.6602 -0.2630 -0.2426
   17DOPE   HN3 2068   4.400   2.204  16.946  3.4813 -2.2820  0.9145
   17DOPE   C12 2069   4.277   2.281  17.103  0.1720 -0.4182 -0.0953
   17DOPE  H12A 2070   4.258   2.377  17.051  0.2367  0.8815  2.1581
   17DOPE  H12B 2071   4.290   2.301  17.211  0.4837  3.3204 -0.7055
   17DOPE   C11 2072   4.166   2.178  17.073  0.8973  0.3329 -1.3528
   17DOPE  H11A 2073   4.150   2.153  16.966  0.5003 -1.8656 -0.8333
   17DOPE  H11B 2074   4.083   2.242  17.110  1.9641 -0.1393  2.3141
   17DOPE     P 2075   4.065   1.951  17.134 -0.2902 -0.2328 -0.1672
   17DOPE   O13 2076   3.934   2.002  17.175  0.5125 -0.2907 -0.0418
   17DOPE   O14 2077   4.110   1.824  17.198 -0.6560 -0.3152 -0.4117
   17DOPE   O11 2078   4.065   1.936  16.980  0.1498 -0.0701  0.1981
   17DOPE   O12 2079   4.180   2.057  17.155 -0.0276 -0.0770 -0.2522
   17DOPE    C1 2080   4.181   1.866  16.924  0.0875 -0.1219  0.0037
   17DOPE    HA 2081   4.174   1.756  16.942 -1.2743  0.1906  1.6495
   17DOPE    HB 2082   4.279   1.885  16.973  0.8410 -3.5998  0.1357
   17DOPE    C2 2083   4.174   1.893  16.766 -0.2684  0.1794 -0.6632
   17DOPE    HS 2084   4.181   2.004  16.754 -1.4614  0.5804  1.6914
   17DOPE   O21 2085   4.058   1.838  16.718 -0.9196  0.3429 -0.4851
   17DOPE   C21 2086   3.961   1.916  16.678  0.7281 -0.0530  0.2777
   17DOPE   O22 2087   3.957   2.041  16.685 -0.7891  0.0021  0.1920
   17DOPE   C22 2088   3.847   1.827  16.622 -0.3766 -0.2136  0.2437
   17DOPE   H2R 2089   3.782   1.801  16.708 -3.3337  1.2489 -1.3609
   17DOPE   H2S 2090   3.893   1.729  16.598  0.8263 -0.0673  1.7868
   17DOPE    C3 2091   4.296   1.829  16.700 -0.3746 -0.3532 -1.1301
   17DOPE    HX 2092   4.285   1.719  16.709 -1.9115 -0.2017 -0.8739
   17DOPE    HY 2093   4.389   1.868  16.748  0.7362 -0.9714 -2.7050
   17DOPE   O31 2094   4.285   1.850  16.553 -0.2290  0.3347 -0.2229
   17DOPE   C31 2095   4.375   1.937  16.497  0.7646 -0.6001  0.5470
   17DOPE   O32 2096   4.465   1.997  16.560 -0.2860 -0.2266 -0.6587
   17DOPE   C32 2097   4.349   1.947  16.345  0.1133  0.1253 -0.4691
   17DOPE   H2X 2098   4.375   1.846  16.309  3.6728 -0.2349  2.5225
   17DOPE   H2Y 2099   4.241   1.959  16.323  0.0760  1.3075  0.2528
   17DOPE   C23 2100   3.763   1.885  16.497  0.6190  0.0408  0.6904
   17DOPE   H3R 2101   3.808   1.985  16.478  1.0601 -0.3302 -0.2354
   17DOPE   H3S 2102   3.657   1.906  16.523  0.0911 -1.1536 -0.4280
   17DOPE   C24 2103   3.783   1.795  16.370  0.4082 -0.3736 -0.4697
   17DOPE   H4R 2104   3.763   1.686  16.378 -1.2340 -0.0609  0.1330
   17DOPE   H4S 2105   3.892   1.802  16.353  0.6561 -0.5680  0.9148
   17DOPE   C25 2106   3.719   1.856  16.245  0.1928 -0.2972  0.0217
   17DOPE   H5R 2107   3.745   1.963  16.257  2.1915 -0.8163  0.7663
   17DOPE   H5S 2108   3.609   1.849  16.248  0.2554 -0.8950  1.3604
   17DOPE   C26 2109   3.773   1.817  16.109  0.4384  0.1977  0.0704
   17DOPE   H6R 2110   3.716   1.883  16.040  0.8851 -0.7209 -1.2195
   17DOPE   H6S 2111   3.744   1.711  16.093  1.1497 -0.0786  0.5862
   17DOPE   C27 2112   3.923   1.846  16.076  0.8069  0.3757 -0.3042
   17DOPE   H7R 2113   3.935   1.841  15.966 -1.7362  0.8422 -0.6789
   17DOPE   H7S 2114   3.992   1.775  16.127 -1.7578 -1.2781  1.0852
   17DOPE   C28 2115   3.979   1.986  16.119 -0.1146 -0.3704  0.2976
   17DOPE   H8R 2116   4.088   1.989  16.097 -0.1880  1.3887  0.0164
   17DOPE   H8S 2117   3.961   1.986  16.229 -0.6221  1.6649  0.2584
   17DOPE   C29 2118   3.904   2.095  16.056 -1.0228 -0.5031  0.2017
   17DOPE   H9R 2119   3.811   2.127  16.106 -1.7961 -0.5738 -1.1479
   17DOPE  C210 2120   3.932   2.155  15.937  0.2661 -0.8524  0.1927
   17DOPE  H10R 2121   3.871   2.240  15.902  0.9503 -0.0005  1.0276
   17DOPE  C211 2122   4.055   2.131  15.846 -0.5207 -0.2507 -0.8272
   17DOPE  H11R 2123   4.088   2.026  15.862  0.2220 -0.1208 -1.4352
   17DOPE  H11S 2124   4.139   2.201  15.866 -0.2083 -0.7261 -0.4295
   17DOPE  C212 2125   4.012   2.151  15.698  0.1969  0.2879  0.0709
   17DOPE  H12R 2126   3.912   2.102  15.696 -0.0384  0.6138  1.8848
   17DOPE  H12S 2127   4.076   2.099  15.624 -0.4398 -0.9780  0.3863
   17DOPE  C213 2128   4.008   2.298  15.652  1.7166  0.8771  0.0057
   17DOPE  H13R 2129   4.108   2.345  15.661  1.7935  0.4280  2.0478
   17DOPE  H13S 2130   3.931   2.350  15.713 -0.0333 -1.7873  0.2433
   17DOPE  C214 2131   3.944   2.307  15.509 -0.3954  0.7170 -0.1393
   17DOPE  H14R 2132   4.001   2.257  15.428 -1.2404  0.5126 -0.6202
   17DOPE  H14S 2133   3.949   2.417  15.495 -1.1635  1.2087  2.8930
   17DOPE  C215 2134   3.801   2.269  15.511 -0.0952 -0.0443 -1.4974
   17DOPE  H15R 2135   3.760   2.281  15.613  1.0005  0.1844 -1.0689
   17DOPE  H15S 2136   3.791   2.158  15.501  1.3019 -0.7508  2.7771
   17DOPE  C216 2137   3.709   2.343  15.411  0.0440  0.5725  0.4440
   17DOPE  H16R 2138   3.747   2.312  15.311  1.2446 -2.5982  1.7654
   17DOPE  H16S 2139   3.732   2.450  15.430  2.9546  0.4035 -1.4327
   17DOPE  C217 2140   3.556   2.325  15.436  0.0013 -0.0963  0.1995
   17DOPE  H17R 2141   3.526   2.395  15.356  0.3736  3.7647  3.1366
   17DOPE  H17S 2142   3.515   2.366  15.531 -0.1637  1.8017 -0.6313
   17DOPE  C218 2143   3.516   2.178  15.410  0.6021  0.1681 -0.7759
   17DOPE  H18R 2144   3.562   2.138  15.317  0.3629 -0.2016 -0.7375
   17DOPE  H18S 2145   3.406   2.170  15.394  0.4163 -1.0255  0.7807
   17DOPE  H18T 2146   3.546   2.115  15.496 -2.2236  0.1995  0.3404
   17DOPE   C33 2147   4.447   2.045  16.278  0.9068 -0.1062 -0.5494
   17DOPE   H3X 2148   4.552   2.010  16.289  0.1504 -2.1879  0.5721
   17DOPE   H3Y 2149   4.447   2.139  16.337  1.7802 -1.0062  0.9304
   17DOPE   C34 2150   4.408   2.071  16.129  0.7214 -0.1964  0.2151
   17DOPE   H4X 2151   4.298   2.085  16.135  0.7336 -0.2532  0.5981
   17DOPE   H4Y 2152   4.438   2.173  16.098  0.3617  0.0876  0.7929
   17DOPE   C35 2153   4.455   1.971  16.026 -0.1517 -0.1849  1.0419
   17DOPE   H5X 2154   4.433   1.862  16.035  1.9451 -0.5791  1.9994
   17DOPE   H5Y 2155   4.565   1.962  16.033 -0.2180 -0.1168  2.3154
   17DOPE   C36 2156   4.429   2.013  15.877  0.0981  0.0168  0.2029
   17DOPE   H6X 2157   4.458   2.120  15.868  0.1482  0.3942  3.7490
   17DOPE   H6Y 2158   4.322   2.019  15.850 -0.0578 -1.5249  0.4142
   17DOPE   C37 2159   4.516   1.947  15.767  0.0916  0.5263  0.2545
   17DOPE   H7X 2160   4.624   1.954  15.790 -0.0059  0.1011  0.8382
   17DOPE   H7Y 2161   4.501   1.838  15.779 -1.5055  0.7617  0.5788
   17DOPE   C38 2162   4.493   1.992  15.624 -0.5301  0.0930 -0.3540
   17DOPE   H8X 2163   4.572   1.937  15.569  0.5365 -0.0863  1.2589
   17DOPE   H8Y 2164   4.518   2.100  15.618  3.9685 -0.6882  0.3246
   17DOPE   C39 2165   4.358   1.954  15.571 -0.2038 -0.1374  0.3389
   17DOPE   H9X 2166   4.292   1.899  15.640  0.6912 -0.9657  0.5465
   17DOPE  C310 2167   4.324   1.976  15.439 -0.2584 -0.5352  0.1496
   17DOPE  H10X 2168   4.225   1.936  15.413 -0.6842 -0.7092  1.8717
   17DOPE  C311 2169   4.412   2.052  15.336 -0.3547  0.4403 -0.1862
   17DOPE  H11X 2170   4.505   2.095  15.378 -0.2021 -0.2049  0.1442
   17DOPE  H11Y 2171   4.435   1.989  15.247  1.6524  0.0963  0.5328
   17DOPE  C312 2172   4.329   2.172  15.290 -0.3800 -0.2188  0.6363
   17DOPE  H12X 2173   4.322   2.248  15.371 -1.9525 -0.7192  1.0121
   17DOPE  H12Y 2174   4.226   2.131  15.279  0.2671 -1.3318 -2.0563
   17DOPE  C313 2175   4.357   2.235  15.153 -0.1635 -1.1487  0.0840
   17DOPE  H13X 2176   4.300   2.328  15.132 -0.3075 -1.2090  0.2048
   17DOPE  H13Y 2177   4.464   2.264  15.146 -0.5328  0.2761 -0.0295
   17DOPE  C314 2178   4.315   2.145  15.029 -0.2224 -0.2256  0.0701
   17DOPE  H14X 2179   4.217   2.098  15.048 -1.1303  2.0872  1.6550
   17DOPE  H14Y 2180   4.387   2.061  15.038 -1.3443 -1.0313  1.9647
   17DOPE  C315 2181   4.319   2.210  14.885 -0.3679  0.2935 -0.2068
   17DOPE  H15X 2182   4.244   2.291  14.880 -0.4329  0.1945 -1.1609
   17DOPE  H15Y 2183   4.289   2.141  14.802 -1.7716  0.5025  0.0967
   17DOPE  C316 2184   4.449   2.276  14.842  0.3589 -0.0657 -0.5726
   17DOPE  H16X 2185   4.491   2.221  14.755 -0.3184 -0.4484 -0.6615
   17DOPE  H16Y 2186   4.525   2.289  14.923  0.5303  0.3602 -0.7989
   17DOPE  C317 2187   4.442   2.416  14.792  0.6371 -0.5612  0.2144
   17DOPE  H17X 2188   4.388   2.417  14.695 -1.4510  0.7241  1.3023
   17DOPE  H17Y 2189   4.393   2.491  14.858  0.2315  0.5580 -1.2967
   17DOPE  C318 2190   4.576   2.477  14.765  0.2772  1.0590  0.4856
   17DOPE  H18X 2191   4.637   2.430  14.685 -1.4484 -0.3086 -0.0950
   17DOPE  H18Y 2192   4.559   2.585  14.744  0.8298  1.0653  0.0510
   17DOPE  H18Z 2193   4.638   2.473  14.856  2.4333  2.8625 -0.8129
   18DOPE     N 2194   1.474   4.820  17.702 -0.2716 -0.1761  0.2190
   18DOPE   HN1 2195   1.555   4.858  17.755 -2.0386 -0.5534  3.4366
   18DOPE   HN2 2196   1.448   4.725  17.737  0.4174 -0.9533 -1.2611
   18DOPE   HN3 2197   1.489   4.811  17.599 -0.7939 -0.2062  0.1447
   18DOPE   C12 2198   1.345   4.899  17.712  0.5270  0.0001 -0.5754
   18DOPE  H12A 2199   1.265   4.845  17.657 -2.7552  1.9571  1.8804
   18DOPE  H12B 2200   1.362   4.999  17.667 -0.8706 -0.5338 -2.4561
   18DOPE   C11 2201   1.302   4.908  17.854 -0.5348  0.4919 -0.0287
   18DOPE  H11A 2202   1.275   4.813  17.903 -2.1848  0.7237 -0.4445
   18DOPE  H11B 2203   1.207   4.965  17.860 -0.3550  0.7813  0.1143
   18DOPE     P 2204   1.371   5.111  18.009  0.0095 -0.6715  0.0222
   18DOPE   O13 2205   1.477   5.138  18.109 -0.4369 -0.1685 -0.4446
   18DOPE   O14 2206   1.234   5.095  18.064  0.2650 -0.0117 -0.2903
   18DOPE   O11 2207   1.363   5.230  17.906  0.3919 -0.4737 -0.1568
   18DOPE   O12 2208   1.408   4.979  17.929 -0.1401  0.4299  0.6646
   18DOPE    C1 2209   1.237   5.258  17.838 -0.1601  0.0410 -0.0728
   18DOPE    HA 2210   1.152   5.250  17.909 -2.1246  0.3976 -2.2600
   18DOPE    HB 2211   1.213   5.189  17.754 -1.0746  0.7347 -0.3968
   18DOPE    C2 2212   1.227   5.397  17.793 -0.1903  0.1951  0.4639
   18DOPE    HS 2213   1.128   5.408  17.743  0.2385  0.7892 -0.2669
   18DOPE   O21 2214   1.337   5.427  17.698 -0.4890  0.2821 -0.0693
   18DOPE   C21 2215   1.321   5.392  17.572 -0.1766  0.7526 -0.2562
   18DOPE   O22 2216   1.223   5.344  17.524 -0.0958  0.4521  0.1033
   18DOPE   C22 2217   1.436   5.441  17.488 -0.5460  0.4341  0.0484
   18DOPE   H2R 2218   1.522   5.377  17.519  1.8492  3.6360  0.5945
   18DOPE   H2S 2219   1.455   5.548  17.513  1.7517 -0.0845  0.7976
   18DOPE    C3 2220   1.240   5.494  17.913 -0.4068  0.1180 -0.6666
   18DOPE    HX 2221   1.343   5.478  17.951 -1.0705 -1.5959  0.5615
   18DOPE    HY 2222   1.162   5.448  17.978 -1.2344 -0.4009 -1.9813
   18DOPE   O31 2223   1.210   5.638  17.879  0.6736 -0.3855 -0.4486
   18DOPE   C31 2224   1.309   5.721  17.878  0.5119  0.0139 -0.2338
   18DOPE   O32 2225   1.424   5.689  17.892 -0.1921 -0.3248  0.1832
   18DOPE   C32 2226   1.256   5.871  17.863 -0.6582  0.3948  0.9633
   18DOPE   H2X 2227   1.148   5.888  17.842  0.1471  1.9815 -2.3516
   18DOPE   H2Y 2228   1.288   5.928  17.953 -0.5656  0.1499  1.0900
   18DOPE   C23 2229   1.432   5.405  17.337 -0.0345  0.1895  0.2867
   18DOPE   H3R 2230   1.338   5.457  17.308  0.6888  0.8188 -1.0768
   18DOPE   H3S 2231   1.419   5.295  17.337 -1.5246  0.3371 -0.5918
   18DOPE   C24 2232   1.556   5.452  17.261 -0.0854  0.0523 -0.5226
   18DOPE   H4R 2233   1.639   5.411  17.322 -2.7638 -2.6595  1.5784
   18DOPE   H4S 2234   1.547   5.562  17.270 -0.2360 -0.0317  0.4410
   18DOPE   C25 2235   1.559   5.404  17.116 -0.4982  0.0852 -0.5272
   18DOPE   H5R 2236   1.574   5.295  17.128 -1.7840 -0.5499 -3.6202
   18DOPE   H5S 2237   1.646   5.450  17.065 -1.4333  0.0690 -2.1932
   18DOPE   C26 2238   1.422   5.424  17.042 -0.5583 -0.1186 -1.4420
   18DOPE   H6R 2239   1.399   5.533  17.048  1.5353  0.4179 -2.3326
   18DOPE   H6S 2240   1.349   5.365  17.102 -1.7691  0.9407 -1.8124
   18DOPE   C27 2241   1.425   5.364  16.901 -1.0293 -0.8935 -0.1146
   18DOPE   H7R 2242   1.329   5.377  16.846  0.0831 -1.4742 -2.2983
   18DOPE   H7S 2243   1.443   5.256  16.922  1.3431 -0.5065  0.1331
   18DOPE   C28 2244   1.536   5.412  16.804 -0.8844  0.0949 -0.4031
   18DOPE   H8R 2245   1.549   5.333  16.727 -1.0185 -1.4408  1.0938
   18DOPE   H8S 2246   1.627   5.434  16.864 -1.1351 -0.8577  0.3474
   18DOPE   C29 2247   1.494   5.537  16.742  0.0861 -0.4710 -0.1488
   18DOPE   H9R 2248   1.465   5.622  16.805  0.8192  0.3664 -0.9033
   18DOPE  C210 2249   1.490   5.566  16.610 -0.9912 -0.0457  0.1605
   18DOPE  H10R 2250   1.432   5.657  16.589 -1.0605 -0.2450 -0.5577
   18DOPE  C211 2251   1.513   5.487  16.480 -0.1111  0.1053 -0.1683
   18DOPE  H11R 2252   1.512   5.380  16.510  1.1371  0.2885  0.5945
   18DOPE  H11S 2253   1.607   5.508  16.425 -1.1218  0.6783 -1.7571
   18DOPE  C212 2254   1.389   5.504  16.395  0.1260 -0.5732  0.7345
   18DOPE  H12R 2255   1.367   5.611  16.379  1.2670 -0.1995  1.5960
   18DOPE  H12S 2256   1.299   5.462  16.446 -0.2537 -0.5693  0.0804
   18DOPE  C213 2257   1.417   5.445  16.259  0.3132  0.8712  0.2647
   18DOPE  H13R 2258   1.319   5.434  16.208 -0.4903  1.0625  1.7380
   18DOPE  H13S 2259   1.466   5.347  16.281  0.8086  1.0200 -0.1560
   18DOPE  C214 2260   1.509   5.526  16.166  0.0672 -0.0461 -0.7833
   18DOPE  H14R 2261   1.604   5.535  16.224  0.2326 -1.3240 -0.8414
   18DOPE  H14S 2262   1.476   5.631  16.150  2.7841  1.0066 -0.0800
   18DOPE  C215 2263   1.538   5.449  16.037 -0.2637  0.0746  0.9323
   18DOPE  H15R 2264   1.453   5.451  15.965  1.5907 -0.6528 -1.4060
   18DOPE  H15S 2265   1.566   5.343  16.058 -0.0808 -0.0345  0.1760
   18DOPE  C216 2266   1.657   5.513  15.966  0.8067 -0.7244 -0.5237
   18DOPE  H16R 2267   1.725   5.539  16.050  0.8858 -0.0797 -0.7770
   18DOPE  H16S 2268   1.614   5.609  15.930  1.1012 -0.4814 -0.2420
   18DOPE  C217 2269   1.727   5.421  15.861  0.6076 -0.6514  0.0812
   18DOPE  H17R 2270   1.743   5.327  15.918 -3.0918 -1.0647  0.7033
   18DOPE  H17S 2271   1.829   5.450  15.830  1.0877 -3.0250 -0.7951
   18DOPE  C218 2272   1.646   5.396  15.730  0.7602  0.1101 -0.5619
   18DOPE  H18R 2273   1.622   5.490  15.677 -0.4139 -0.9559 -2.0091
   18DOPE  H18S 2274   1.549   5.348  15.751  1.8374 -1.5424  0.9213
   18DOPE  H18T 2275   1.699   5.331  15.656  0.8802  0.6963 -0.9955
   18DOPE   C33 2276   1.311   5.949  17.740 -0.0426  0.2440  0.1202
   18DOPE   H3X 2277   1.418   5.972  17.760  0.2215 -0.3581 -0.5307
   18DOPE   H3Y 2278   1.257   6.044  17.721 -2.0722 -1.1786 -1.7573
   18DOPE   C34 2279   1.310   5.856  17.606  0.5280 -0.2068 -0.4150
   18DOPE   H4X 2280   1.341   5.754  17.636  0.5968  0.0275  0.3349
   18DOPE   H4Y 2281   1.205   5.828  17.582 -0.1056  0.7937  1.0523
   18DOPE   C35 2282   1.395   5.901  17.488  0.6103  0.1182 -0.3565
   18DOPE   H5X 2283   1.503   5.876  17.501  0.7559  1.4746  1.3728
   18DOPE   H5Y 2284   1.382   6.009  17.462  1.0530 -0.2742 -2.4462
   18DOPE   C36 2285   1.356   5.831  17.353  0.0280 -0.0062 -0.2850
   18DOPE   H6X 2286   1.251   5.864  17.339 -0.0489  0.1259  0.5175
   18DOPE   H6Y 2287   1.354   5.720  17.355  1.0256 -0.0202  0.9905
   18DOPE   C37 2288   1.442   5.885  17.239 -0.4280  0.2954 -0.6384
   18DOPE   H7X 2289   1.438   5.996  17.240 -1.7571  0.2808  0.9314
   18DOPE   H7Y 2290   1.546   5.862  17.269 -1.0489 -0.6141  0.9242
   18DOPE   C38 2291   1.434   5.828  17.100  1.1715  0.5067 -0.0812
   18DOPE   H8X 2292   1.424   5.717  17.102 -0.8268  0.6144 -1.2212
   18DOPE   H8Y 2293   1.538   5.829  17.063  1.2937 -1.2571  0.1150
   18DOPE   C39 2294   1.327   5.886  17.012 -0.3694 -0.1970  0.4223
   18DOPE   H9X 2295   1.224   5.906  17.046 -1.0753  2.2286 -2.6194
   18DOPE  C310 2296   1.354   5.934  16.888 -0.5509  0.0616 -0.1353
   18DOPE  H10X 2297   1.279   5.998  16.840  1.2612  2.2189 -0.2246
   18DOPE  C311 2298   1.492   5.942  16.818 -0.1646  0.1478  0.5560
   18DOPE  H11X 2299   1.549   6.029  16.855  0.3604  0.5847 -1.1557
   18DOPE  H11Y 2300   1.551   5.849  16.837  0.1812  0.0183 -1.0075
   18DOPE  C312 2301   1.473   5.955  16.664 -0.1934  0.2833  0.1771
   18DOPE  H12X 2302   1.405   6.040  16.644  0.0269  0.9173  1.9870
   18DOPE  H12Y 2303   1.427   5.858  16.634 -1.0087  0.7003  0.0513
   18DOPE  C313 2304   1.600   5.966  16.580  0.0892  0.1746  0.6179
   18DOPE  H13X 2305   1.648   6.063  16.606  1.0908 -0.1877  0.1493
   18DOPE  H13Y 2306   1.676   5.888  16.601  1.7950  1.4341 -0.6446
   18DOPE  C314 2307   1.572   5.944  16.435  0.3547 -0.4163  0.3881
   18DOPE  H14X 2308   1.497   6.021  16.407  1.0815  0.1865  0.0874
   18DOPE  H14Y 2309   1.525   5.846  16.411  0.2369 -0.2726  0.0221
   18DOPE  C315 2310   1.690   5.954  16.339  0.2992  0.4378 -0.8228
   18DOPE  H15X 2311   1.775   5.902  16.388 -0.6940  1.3419  2.0004
   18DOPE  H15Y 2312   1.708   6.062  16.322 -0.2168  0.9700  1.7000
   18DOPE  C316 2313   1.664   5.888  16.208 -0.1469 -0.2504  0.6669
   18DOPE  H16X 2314   1.577   5.934  16.156  0.7768 -0.1552 -0.8281
   18DOPE  H16Y 2315   1.640   5.780  16.210 -1.6978 -0.0422 -1.8408
   18DOPE  C317 2316   1.785   5.902  16.112 -0.1719 -0.2526  0.0766
   18DOPE  H17X 2317   1.764   5.914  16.003  3.0032  0.8249 -0.5417
   18DOPE  H17Y 2318   1.841   5.992  16.147 -0.0536 -0.4919  0.5078
   18DOPE  C318 2319   1.884   5.789  16.136 -0.9020 -0.4896 -0.0819
   18DOPE  H18X 2320   1.968   5.792  16.063 -1.8940  0.0591 -1.2565
   18DOPE  H18Y 2321   1.931   5.799  16.236 -1.2373 -0.9695  0.1271
   18DOPE  H18Z 2322   1.834   5.690  16.128  0.4311 -1.2226  0.4108
   19DOPE     N 2323   2.617   5.730  17.937  0.0803  0.2129  0.5978
   19DOPE   HN1 2324   2.683   5.809  17.928  4.2981 -2.5931  3.1203
   19DOPE   HN2 2325   2.667   5.664  18.001  0.8641 -1.2663 -1.4102
   19DOPE   HN3 2326   2.604   5.675  17.850 -1.6677 -0.8134  1.4382
   19DOPE   C12 2327   2.481   5.758  17.980  0.4209 -0.4728 -0.1902
   19DOPE  H12A 2328   2.444   5.843  17.918  0.2395 -0.2162  0.2638
   19DOPE  H12B 2329   2.487   5.791  18.086  0.8039  2.7423 -1.1084
   19DOPE   C11 2330   2.390   5.628  17.968  0.8433  0.2933  0.5625
   19DOPE  H11A 2331   2.427   5.551  18.040 -2.2420 -1.1640  0.7677
   19DOPE  H11B 2332   2.389   5.589  17.864  0.9366 -1.2409  1.1100
   19DOPE     P 2333   2.121   5.623  17.937 -0.2049 -0.5202 -0.6051
   19DOPE   O13 2334   2.008   5.640  18.030  0.5568 -0.1793 -0.2448
   19DOPE   O14 2335   2.135   5.490  17.875  0.0299  0.1125  0.1823
   19DOPE   O11 2336   2.116   5.736  17.831 -0.0195 -0.3905  0.0382
   19DOPE   O12 2337   2.261   5.660  18.013  0.4645  0.0966  0.0227
   19DOPE    C1 2338   2.111   5.874  17.863 -0.1954 -0.8758 -0.1282
   19DOPE    HA 2339   2.213   5.918  17.858 -1.4009  2.0901 -0.8588
   19DOPE    HB 2340   2.080   5.900  17.967  1.0520  1.0003 -0.1772
   19DOPE    C2 2341   2.019   5.957  17.759 -0.1936  0.2465  0.8394
   19DOPE    HS 2342   1.913   5.953  17.789 -0.2568 -0.7637  0.5131
   19DOPE   O21 2343   2.039   5.904  17.629 -0.1762  0.3236  0.4818
   19DOPE   C21 2344   1.950   5.822  17.578 -0.7547  0.6540  0.5549
   19DOPE   O22 2345   1.858   5.769  17.637  0.1257  0.2614  0.0060
   19DOPE   C22 2346   1.998   5.790  17.434 -0.3319 -0.2303  0.5553
   19DOPE   H2R 2347   2.081   5.716  17.442 -1.3760 -1.7471 -1.4787
   19DOPE   H2S 2348   2.047   5.880  17.391  0.6931 -0.9484  0.1775
   19DOPE    C3 2349   2.081   6.104  17.754 -0.0237 -0.2716 -0.0682
   19DOPE    HX 2350   2.189   6.098  17.727  0.2421 -1.8953  1.2322
   19DOPE    HY 2351   2.087   6.137  17.860  0.7560  0.5240 -0.3473
   19DOPE   O31 2352   1.994   6.176  17.661  0.5523  0.5476 -0.0284
   19DOPE   C31 2353   1.893   6.229  17.722  0.2720 -0.2507 -0.0348
   19DOPE   O32 2354   1.881   6.238  17.842 -0.0567 -0.0071  0.0704
   19DOPE   C32 2355   1.781   6.266  17.627 -0.6307  0.2281  0.6004
   19DOPE   H2X 2356   1.695   6.282  17.696 -0.7206  0.4000  0.4501
   19DOPE   H2Y 2357   1.816   6.359  17.578  0.4579 -1.0144 -1.0865
   19DOPE   C23 2358   1.885   5.736  17.343 -0.4624 -0.3627  0.9272
   19DOPE   H3R 2359   1.794   5.798  17.351  0.3477  0.6868  2.7617
   19DOPE   H3S 2360   1.843   5.641  17.384 -1.2675 -0.5810 -0.3651
   19DOPE   C24 2361   1.922   5.725  17.196  0.1935 -0.5666  1.0388
   19DOPE   H4R 2362   2.013   5.664  17.177  0.6399  0.3432  0.1813
   19DOPE   H4S 2363   1.942   5.831  17.169 -0.0963 -0.8114 -0.1844
   19DOPE   C25 2364   1.803   5.675  17.110  0.2585  0.5454  0.2731
   19DOPE   H5R 2365   1.716   5.728  17.153  0.1594  2.3563 -1.9945
   19DOPE   H5S 2366   1.798   5.565  17.126  0.2633  0.4550 -0.3293
   19DOPE   C26 2367   1.831   5.694  16.964  0.7743  0.2356  0.2075
   19DOPE   H6R 2368   1.874   5.796  16.960  0.8566  0.2455  1.1423
   19DOPE   H6S 2369   1.734   5.702  16.910  0.7796  0.9217  0.2920
   19DOPE   C27 2370   1.920   5.590  16.902  0.2011 -0.2527  0.3394
   19DOPE   H7R 2371   1.853   5.504  16.883 -0.7543  0.5887 -0.1942
   19DOPE   H7S 2372   2.003   5.566  16.971  1.7374  2.5569 -0.3596
   19DOPE   C28 2373   1.976   5.632  16.760  0.3073 -0.5933  0.5394
   19DOPE   H8R 2374   2.042   5.552  16.718 -0.2054 -0.5185 -0.4324
   19DOPE   H8S 2375   2.048   5.715  16.776 -1.3546  0.6995  1.7851
   19DOPE   C29 2376   1.872   5.687  16.660 -0.0045 -0.3743 -0.7789
   19DOPE   H9R 2377   1.792   5.750  16.703 -2.0016 -1.6467 -2.4370
   19DOPE  C210 2378   1.875   5.666  16.531  0.4987 -0.2354 -0.0455
   19DOPE  H10R 2379   1.778   5.693  16.485 -1.2096  0.7026  3.7514
   19DOPE  C211 2380   1.976   5.578  16.463  0.6001 -0.1828  0.8453
   19DOPE  H11R 2381   2.081   5.604  16.488  1.3847 -2.2553 -0.0757
   19DOPE  H11S 2382   1.980   5.612  16.357  1.3293  2.2506  1.5869
   19DOPE  C212 2383   1.945   5.431  16.486 -0.3557 -0.0709 -0.1519
   19DOPE  H12R 2384   1.838   5.403  16.479 -0.0797 -2.2280  2.3792
   19DOPE  H12S 2385   1.977   5.407  16.590  1.7809  1.6037 -0.3452
   19DOPE  C213 2386   2.028   5.348  16.389 -0.6326  0.1911 -0.1339
   19DOPE  H13R 2387   2.029   5.242  16.422  0.8459 -0.3973 -1.9495
   19DOPE  H13S 2388   2.132   5.386  16.391 -0.2694 -0.7546 -0.4372
   19DOPE  C214 2389   1.972   5.346  16.245  0.4784  0.1007 -0.0441
   19DOPE  H14R 2390   2.003   5.441  16.196 -1.3785  0.0817 -1.3793
   19DOPE  H14S 2391   1.861   5.345  16.255  0.4636 -1.2772 -0.0531
   19DOPE  C215 2392   2.027   5.233  16.168 -0.3970  0.7715  0.3798
   19DOPE  H15R 2393   2.036   5.142  16.231  1.0908  0.9827  0.5181
   19DOPE  H15S 2394   2.128   5.245  16.123  0.2543  0.0882  1.5836
   19DOPE  C216 2395   1.944   5.199  16.043 -0.3437  0.2432 -0.3973
   19DOPE  H16R 2396   1.966   5.271  15.961  0.2190  1.3663  0.7184
   19DOPE  H16S 2397   1.836   5.211  16.063 -0.4819  0.7203 -1.3599
   19DOPE  C217 2398   1.959   5.052  15.995 -0.3064 -0.9058  0.3861
   19DOPE  H17R 2399   1.926   4.992  16.083 -1.9356 -1.3884 -0.5236
   19DOPE  H17S 2400   2.067   5.031  15.976 -0.2620  0.0686 -0.5051
   19DOPE  C218 2401   1.885   5.024  15.869  0.1916  0.8183 -0.2362
   19DOPE  H18R 2402   1.944   5.071  15.788  0.3802  0.7671 -0.1281
   19DOPE  H18S 2403   1.779   5.057  15.864  0.6377  2.9147  2.2857
   19DOPE  H18T 2404   1.885   4.913  15.866 -2.9186  0.7218  0.1443
   19DOPE   C33 2405   1.748   6.163  17.513 -0.6527  0.4188 -0.4337
   19DOPE   H3X 2406   1.726   6.067  17.563 -1.0289  0.6345 -0.1721
   19DOPE   H3Y 2407   1.840   6.138  17.456 -0.6654 -1.8761  0.4768
   19DOPE   C34 2408   1.644   6.208  17.407 -0.2347 -0.7089  0.1534
   19DOPE   H4X 2409   1.643   6.133  17.325  2.3086  0.2687 -0.8738
   19DOPE   H4Y 2410   1.549   6.223  17.462 -0.1760  1.3673 -0.2246
   19DOPE   C35 2411   1.690   6.336  17.337 -0.3832  0.5483  0.4560
   19DOPE   H5X 2412   1.792   6.333  17.293  0.0084  2.1183  1.1882
   19DOPE   H5Y 2413   1.692   6.416  17.415  1.4535  1.9653 -0.9549
   19DOPE   C36 2414   1.583   6.381  17.236  0.0262 -0.4208 -1.1595
   19DOPE   H6X 2415   1.590   6.490  17.217 -1.4719  0.2434  1.5916
   19DOPE   H6Y 2416   1.487   6.360  17.288  2.2541 -1.7751  2.8723
   19DOPE   C37 2417   1.603   6.320  17.098  0.1792 -0.1763  0.0267
   19DOPE   H7X 2418   1.695   6.354  17.048 -0.6388  0.5724 -0.9895
   19DOPE   H7Y 2419   1.626   6.211  17.105 -1.6203 -0.6433 -0.7734
   19DOPE   C38 2420   1.480   6.333  17.002 -0.5194  0.3996  0.1095
   19DOPE   H8X 2421   1.386   6.330  17.062  0.0589 -0.3498  1.0105
   19DOPE   H8Y 2422   1.495   6.245  16.936 -0.0223  0.0247  0.7066
   19DOPE   C39 2423   1.474   6.453  16.913  0.0813 -0.1019 -0.5142
   19DOPE   H9X 2424   1.487   6.550  16.964  0.0253 -1.3909  2.0959
   19DOPE  C310 2425   1.454   6.460  16.781 -0.7706  0.0746  0.0420
   19DOPE  H10X 2426   1.451   6.565  16.747 -1.0141  0.0686  0.0411
   19DOPE  C311 2427   1.436   6.347  16.683  0.0431 -0.0713 -0.2808
   19DOPE  H11X 2428   1.533   6.299  16.658 -1.4758 -1.9748 -2.8686
   19DOPE  H11Y 2429   1.389   6.260  16.734  0.7082 -2.2060 -3.0459
   19DOPE  C312 2430   1.370   6.364  16.547  0.8914  0.1423 -0.4245
   19DOPE  H12X 2431   1.265   6.400  16.551 -0.5321 -2.8153 -4.7431
   19DOPE  H12Y 2432   1.362   6.263  16.503 -2.9055 -0.0178  0.2983
   19DOPE  C313 2433   1.436   6.461  16.451 -0.4750  0.0459  0.1957
   19DOPE  H13X 2434   1.472   6.545  16.514  0.5200 -1.3332  1.5552
   19DOPE  H13Y 2435   1.528   6.416  16.408  0.1888  0.3657  1.2345
   19DOPE  C314 2436   1.336   6.519  16.354  0.0966  0.0067 -1.5944
   19DOPE  H14X 2437   1.386   6.602  16.301  1.3303  0.3612  0.0492
   19DOPE  H14Y 2438   1.254   6.558  16.419  1.6722 -1.2465  1.3491
   19DOPE  C315 2439   1.293   6.420  16.240 -0.7877  0.5106 -0.1556
   19DOPE  H15X 2440   1.197   6.459  16.199 -0.9990 -0.3496 -0.5229
   19DOPE  H15Y 2441   1.282   6.320  16.288  1.0347 -0.2471 -1.2246
   19DOPE  C316 2442   1.392   6.416  16.124  0.1634  0.7571 -0.0610
   19DOPE  H16X 2443   1.493   6.443  16.160 -0.5756 -0.3728  3.2251
   19DOPE  H16Y 2444   1.356   6.487  16.046 -0.6110  0.2631 -0.1679
   19DOPE  C317 2445   1.401   6.275  16.062  0.0586 -0.4172  0.1791
   19DOPE  H17X 2446   1.453   6.203  16.129 -3.0154  0.1385  3.4828
   19DOPE  H17Y 2447   1.296   6.241  16.054  0.3794 -1.2848 -0.5206
   19DOPE  C318 2448   1.470   6.257  15.924 -0.1722  0.3513  0.3436
   19DOPE  H18X 2449   1.400   6.269  15.838  0.7016 -1.2221 -0.6437
   19DOPE  H18Y 2450   1.565   6.314  15.922  0.5849 -0.8825 -0.6339
   19DOPE  H18Z 2451   1.497   6.149  15.919  0.5189  0.5626 -1.1261
   20DOPE     N 2452   0.959   2.586  18.259 -0.2954 -0.1602 -0.3107
   20DOPE   HN1 2453   0.978   2.688  18.247  0.1482 -0.3670 -1.5410
   20DOPE   HN2 2454   0.942   2.567  18.360 -0.7972  0.7935 -0.2056
   20DOPE   HN3 2455   1.051   2.546  18.232 -0.2248 -1.7078  1.9874
   20DOPE   C12 2456   0.858   2.532  18.174  0.2944  0.2112  0.2989
   20DOPE  H12A 2457   0.769   2.516  18.239  0.2251  0.1076  0.1819
   20DOPE  H12B 2458   0.887   2.428  18.146  0.8083  0.5957 -0.6601
   20DOPE   C11 2459   0.821   2.618  18.047 -0.7007 -0.1701 -0.2376
   20DOPE  H11A 2460   0.738   2.555  18.008 -0.2127 -3.2881  3.1266
   20DOPE  H11B 2461   0.900   2.620  17.970  0.6066 -1.2454  1.0264
   20DOPE     P 2462   0.872   2.876  18.098  0.3965 -0.2226 -0.0304
   20DOPE   O13 2463   0.973   2.837  18.200 -0.5414 -0.4677 -0.1242
   20DOPE   O14 2464   0.788   2.996  18.125  0.0049  0.8909  0.5983
   20DOPE   O11 2465   0.943   2.896  17.962  0.3541  0.4254  0.0476
   20DOPE   O12 2466   0.779   2.749  18.090  0.2389  0.1436 -0.3766
   20DOPE    C1 2467   0.871   2.903  17.839 -0.4204 -0.5320 -0.3878
   20DOPE    HA 2468   0.900   3.000  17.793  3.2864  0.1241  2.7630
   20DOPE    HB 2469   0.761   2.905  17.851 -0.4737 -1.6521 -0.5442
   20DOPE    C2 2470   0.897   2.793  17.737 -0.2043  0.4591  0.2651
   20DOPE    HS 2471   0.890   2.841  17.637 -0.3486  0.6183  0.3514
   20DOPE   O21 2472   0.795   2.694  17.752  0.4228 -0.6378 -0.4358
   20DOPE   C21 2473   0.736   2.641  17.642  0.0531 -0.0185 -0.8039
   20DOPE   O22 2474   0.769   2.670  17.528  0.1116 -0.1075 -0.7366
   20DOPE   C22 2475   0.630   2.536  17.686 -0.5234 -0.4464  0.3428
   20DOPE   H2R 2476   0.533   2.555  17.635 -0.4263 -0.6678  0.0731
   20DOPE   H2S 2477   0.610   2.553  17.794  1.0009  3.4891  0.1742
   20DOPE    C3 2478   1.043   2.728  17.733 -0.2212  0.0778 -0.1179
   20DOPE    HX 2479   1.042   2.659  17.820  0.6957 -0.6831 -0.6906
   20DOPE    HY 2480   1.118   2.809  17.746 -0.7187  0.1594  3.0275
   20DOPE   O31 2481   1.060   2.657  17.607  0.0947  0.2575 -0.2847
   20DOPE   C31 2482   1.117   2.719  17.507  0.5546  0.5890 -0.2287
   20DOPE   O32 2483   1.139   2.839  17.498  0.1142 -0.0474 -0.2090
   20DOPE   C32 2484   1.146   2.609  17.401  0.0407  0.2698 -0.1656
   20DOPE   H2X 2485   1.227   2.545  17.443 -1.3812 -0.4547  1.6113
   20DOPE   H2Y 2486   1.060   2.541  17.383  1.8346 -1.6621 -2.1389
   20DOPE   C23 2487   0.659   2.387  17.659  0.1826  0.8537  0.1168
   20DOPE   H3R 2488   0.613   2.328  17.741  0.9772  1.0500  0.7040
   20DOPE   H3S 2489   0.768   2.368  17.667  0.1569  0.7125  0.1434
   20DOPE   C24 2490   0.619   2.332  17.518 -0.4836 -1.0915 -0.5164
   20DOPE   H4R 2491   0.512   2.353  17.496 -0.0157  2.1957 -0.2439
   20DOPE   H4S 2492   0.647   2.225  17.516  1.6319 -0.5663 -0.6919
   20DOPE   C25 2493   0.701   2.401  17.408  0.2658 -0.3698 -0.4862
   20DOPE   H5R 2494   0.806   2.411  17.444  0.0665 -0.1588  0.0301
   20DOPE   H5S 2495   0.676   2.505  17.380  1.2288 -0.6598 -2.7288
   20DOPE   C26 2496   0.698   2.319  17.281  0.6029  0.3886  0.0800
   20DOPE   H6R 2497   0.596   2.287  17.252  1.2006 -0.2772 -1.4432
   20DOPE   H6S 2498   0.765   2.231  17.295 -0.0107 -0.3379 -1.2908
   20DOPE   C27 2499   0.757   2.405  17.169  0.0136 -0.6695 -0.1804
   20DOPE   H7R 2500   0.863   2.422  17.197  0.5931  0.0381 -2.5902
   20DOPE   H7S 2501   0.713   2.505  17.151  1.0522 -0.3128 -0.8307
   20DOPE   C28 2502   0.750   2.328  17.033 -0.6204 -1.0340 -0.5019
   20DOPE   H8R 2503   0.642   2.305  17.015 -1.3250  1.0777  0.6509
   20DOPE   H8S 2504   0.813   2.237  17.034 -0.1973 -0.7407 -0.4554
   20DOPE   C29 2505   0.782   2.421  16.924 -0.4288 -0.4311 -0.6101
   20DOPE   H9R 2506   0.847   2.505  16.951 -1.5093 -0.0573  0.9346
   20DOPE  C210 2507   0.721   2.425  16.798 -0.5884 -0.9488  0.1574
   20DOPE  H10R 2508   0.761   2.501  16.729  0.4858  0.1031  1.8564
   20DOPE  C211 2509   0.633   2.321  16.740 -0.0226 -0.1881  0.1919
   20DOPE  H11R 2510   0.534   2.369  16.757  0.2334  0.7628 -0.8871
   20DOPE  H11S 2511   0.631   2.236  16.812 -0.5496  0.0953  0.5137
   20DOPE  C212 2512   0.667   2.267  16.605 -0.0662  0.4479  0.0691
   20DOPE  H12R 2513   0.592   2.196  16.565 -3.3280  4.9193 -2.5495
   20DOPE  H12S 2514   0.767   2.217  16.609  0.2748  1.1754  1.4229
   20DOPE  C213 2515   0.650   2.371  16.495  0.2155  0.7355  0.3887
   20DOPE  H13R 2516   0.746   2.426  16.489  1.1718 -1.0337 -1.7969
   20DOPE  H13S 2517   0.570   2.447  16.513 -0.5758  0.2987 -1.1371
   20DOPE  C214 2518   0.636   2.312  16.358 -0.2801 -0.1123 -0.1772
   20DOPE  H14R 2519   0.534   2.270  16.351 -0.2205 -0.3285  0.2078
   20DOPE  H14S 2520   0.717   2.237  16.341 -0.6641 -0.2086 -1.7364
   20DOPE  C215 2521   0.638   2.426  16.253  0.6847 -0.5015 -0.2962
   20DOPE  H15R 2522   0.735   2.482  16.244 -0.7394  2.1377 -0.3094
   20DOPE  H15S 2523   0.549   2.483  16.288 -0.2364 -2.2437  0.2734
   20DOPE  C216 2524   0.598   2.366  16.113 -0.2228 -0.1196 -0.1203
   20DOPE  H16R 2525   0.504   2.307  16.120  0.8199 -1.8710 -0.2881
   20DOPE  H16S 2526   0.684   2.304  16.081 -0.4455 -0.3726 -0.2371
   20DOPE  C217 2527   0.566   2.459  15.998  0.3726 -0.6697  0.7370
   20DOPE  H17R 2528   0.659   2.515  15.975 -0.4265  0.9888  1.3639
   20DOPE  H17S 2529   0.484   2.528  16.028  1.2269  0.6902  0.1011
   20DOPE  C218 2530   0.533   2.395  15.861 -0.3141  0.5324 -0.2589
   20DOPE  H18R 2531   0.457   2.315  15.870 -0.0531  0.3123  0.0300
   20DOPE  H18S 2532   0.625   2.342  15.826 -0.3245  0.0519  0.4222
   20DOPE  H18T 2533   0.475   2.456  15.789 -3.4177 -1.4820  0.3244
   20DOPE   C33 2534   1.186   2.676  17.267  0.4098  0.5950 -0.0256
   20DOPE   H3X 2535   1.279   2.734  17.281  1.7627 -1.8298  2.0160
   20DOPE   H3Y 2536   1.107   2.742  17.227  0.7561 -0.3057 -2.3800
   20DOPE   C34 2537   1.236   2.582  17.165  0.0325 -0.2232  0.6712
   20DOPE   H4X 2538   1.336   2.546  17.196 -0.2217 -0.9921  0.6163
   20DOPE   H4Y 2539   1.169   2.496  17.141  1.7431 -1.0227 -1.5848
   20DOPE   C35 2540   1.254   2.664  17.033 -0.0928 -0.4981 -0.3429
   20DOPE   H5X 2541   1.330   2.744  17.046  1.1664 -1.9391  1.5471
   20DOPE   H5Y 2542   1.155   2.706  17.006  0.0930 -0.5033 -1.0528
   20DOPE   C36 2543   1.288   2.564  16.917  0.4900 -0.3922 -0.1173
   20DOPE   H6X 2544   1.363   2.494  16.959  0.2336  0.8166  2.5672
   20DOPE   H6Y 2545   1.341   2.623  16.840 -1.6528  1.1250 -0.5141
   20DOPE   C37 2546   1.175   2.487  16.865  0.1243 -0.3536 -0.0669
   20DOPE   H7X 2547   1.144   2.398  16.924 -1.1296 -1.3329 -2.1162
   20DOPE   H7Y 2548   1.090   2.554  16.837  1.9384  0.9380 -2.9495
   20DOPE   C38 2549   1.220   2.418  16.736  0.5178  0.3927  0.5402
   20DOPE   H8X 2550   1.298   2.343  16.761  0.3990  0.6647  1.7721
   20DOPE   H8Y 2551   1.257   2.489  16.659  0.7249  0.6552  0.8810
   20DOPE   C39 2552   1.099   2.352  16.668 -0.2896  0.0601  0.0384
   20DOPE   H9X 2553   1.087   2.243  16.675 -0.7536  0.1155  0.0875
   20DOPE  C310 2554   1.010   2.421  16.604 -0.0014  0.4911 -0.2053
   20DOPE  H10X 2555   0.938   2.358  16.549 -1.5308 -0.8761  3.1145
   20DOPE  C311 2556   1.009   2.568  16.571  0.0555  0.5720 -0.0137
   20DOPE  H11X 2557   0.920   2.614  16.620  0.1312  1.3562 -0.5980
   20DOPE  H11Y 2558   1.098   2.617  16.617  0.9242 -1.1696  0.2734
   20DOPE  C312 2559   1.013   2.585  16.423 -0.1608 -0.5657  0.3152
   20DOPE  H12X 2560   0.947   2.673  16.409 -1.4186 -1.6638 -0.8230
   20DOPE  H12Y 2561   0.978   2.497  16.364 -0.7364 -1.8953  2.5210
   20DOPE  C313 2562   1.152   2.626  16.372  0.4522 -0.5059  1.0625
   20DOPE  H13X 2563   1.188   2.698  16.448 -0.9985  0.3818  0.9486
   20DOPE  H13Y 2564   1.221   2.539  16.361  1.2418  0.2302 -0.0420
   20DOPE  C314 2565   1.152   2.702  16.240  0.2016  0.0809  0.8272
   20DOPE  H14X 2566   1.100   2.800  16.245  0.6211  0.3544  0.0348
   20DOPE  H14Y 2567   1.113   2.633  16.162  0.2737  0.2531  0.6378
   20DOPE  C315 2568   1.301   2.731  16.197  1.1900  0.0524 -0.2822
   20DOPE  H15X 2569   1.364   2.640  16.200  1.8030  0.5015  1.0809
   20DOPE  H15Y 2570   1.347   2.803  16.268 -1.0824  1.4764 -0.1588
   20DOPE  C316 2571   1.307   2.784  16.054 -0.3972 -0.0227 -0.9637
   20DOPE  H16X 2572   1.407   2.832  16.044 -1.2322  1.8440 -0.9143
   20DOPE  H16Y 2573   1.232   2.865  16.038 -0.9415 -0.2302  0.4016
   20DOPE  C317 2574   1.317   2.683  15.947  0.2723  1.2990 -0.0334
   20DOPE  H17X 2575   1.412   2.626  15.957  1.0139  2.2598 -1.3145
   20DOPE  H17Y 2576   1.232   2.612  15.945  0.8634  0.5947 -0.4955
   20DOPE  C318 2577   1.320   2.738  15.805 -0.8034 -0.1744  0.4724
   20DOPE  H18X 2578   1.416   2.792  15.791 -0.6581  0.2335  2.6762
   20DOPE  H18Y 2579   1.308   2.649  15.740 -0.4762  0.2818 -0.2237
   20DOPE  H18Z 2580   1.234   2.809  15.797 -0.6132 -0.1523 -2.0741
   21DOPE     N 2581   4.805   3.040  17.420  0.3919  0.6282  0.2971
   21DOPE   HN1 2582   4.786   2.983  17.505 -0.0880  0.5234  0.1218
   21DOPE   HN2 2583   4.838   3.134  17.448 -0.4167  0.1571  3.1830
   21DOPE   HN3 2584   4.728   3.056  17.352  0.1307 -0.3039  0.3568
   21DOPE   C12 2585   4.915   2.989  17.331  0.1491 -0.1875 -0.4735
   21DOPE  H12A 2586   5.002   2.960  17.394  0.3817  0.2336 -0.5976
   21DOPE  H12B 2587   4.959   3.076  17.277  1.4577 -1.5672 -1.7238
   21DOPE   C11 2588   4.878   2.883  17.231 -0.5918  0.0621 -0.8504
   21DOPE  H11A 2589   4.973   2.844  17.189 -0.6576 -2.4816  1.0616
   21DOPE  H11B 2590   4.824   2.931  17.147  0.8740  1.9211 -0.7839
   21DOPE     P 2591   4.857   2.627  17.281  0.1431  0.3851 -0.2921
   21DOPE   O13 2592   4.740   2.557  17.332 -0.3864  0.0592  0.0629
   21DOPE   O14 2593   4.987   2.604  17.349  0.0284  0.0533 -0.0597
   21DOPE   O11 2594   4.875   2.584  17.129 -0.2356 -0.1388  0.0485
   21DOPE   O12 2595   4.807   2.774  17.287  0.5440  0.4216  0.0955
   21DOPE    C1 2596   4.767   2.579  17.035  0.0394 -0.1056 -0.1500
   21DOPE    HA 2597   4.668   2.575  17.085  0.5256  0.1771  0.8628
   21DOPE    HB 2598   4.778   2.483  16.980  1.2111  1.6209 -3.1179
   21DOPE    C2 2599   4.779   2.689  16.923  0.1674  0.2400  0.4377
   21DOPE    HS 2600   4.726   2.778  16.961  0.0735 -0.1257  1.1753
   21DOPE   O21 2601   4.723   2.641  16.800  0.6058  0.1357  0.9646
   21DOPE   C21 2602   4.597   2.602  16.808  0.0024 -0.1872 -0.1225
   21DOPE   O22 2603   4.515   2.621  16.896 -0.0281  0.2532  0.4415
   21DOPE   C22 2604   4.557   2.553  16.669  0.3056 -0.8509 -0.1605
   21DOPE   H2R 2605   4.640   2.486  16.638  2.5216  1.3738  0.6913
   21DOPE   H2S 2606   4.558   2.648  16.611  1.1123 -1.1701 -0.6932
   21DOPE    C3 2607   4.931   2.742  16.899  0.4063 -0.6823 -0.2362
   21DOPE    HX 2608   4.967   2.784  16.995  0.7199  2.3073 -1.5535
   21DOPE    HY 2609   4.919   2.826  16.828 -0.1601 -0.4910  0.0812
   21DOPE   O31 2610   5.023   2.644  16.856 -0.4798  0.2790 -0.0776
   21DOPE   C31 2611   5.018   2.618  16.726 -0.2281 -0.0672  0.4510
   21DOPE   O32 2612   4.962   2.697  16.651  0.0526 -0.1783 -0.3748
   21DOPE   C32 2613   5.076   2.482  16.693 -0.1564  0.3362  0.8301
   21DOPE   H2X 2614   5.187   2.482  16.704  0.1366 -1.7680 -1.2499
   21DOPE   H2Y 2615   5.027   2.409  16.760 -1.1972 -0.8719 -1.1497
   21DOPE   C23 2616   4.421   2.489  16.667  0.0289  0.4819 -0.5878
   21DOPE   H3R 2617   4.339   2.563  16.675 -0.1206  0.2455  0.2393
   21DOPE   H3S 2618   4.413   2.417  16.752 -1.4813  1.0536 -0.2193
   21DOPE   C24 2619   4.380   2.413  16.536  0.3737  0.1277  0.6254
   21DOPE   H4R 2620   4.270   2.422  16.525  0.4213  0.2179  0.1636
   21DOPE   H4S 2621   4.401   2.304  16.542 -3.9891 -1.1193 -1.9416
   21DOPE   C25 2622   4.446   2.478  16.412 -0.2288 -0.4994 -0.0055
   21DOPE   H5R 2623   4.557   2.484  16.402 -0.3953  1.2866 -1.2284
   21DOPE   H5S 2624   4.405   2.581  16.414 -0.2744 -0.5170  2.4267
   21DOPE   C26 2625   4.397   2.413  16.279 -0.0554 -0.0084  0.6433
   21DOPE   H6R 2626   4.304   2.353  16.288 -0.5559  0.3449 -1.5618
   21DOPE   H6S 2627   4.476   2.343  16.246  0.1138 -0.3949  1.8410
   21DOPE   C27 2628   4.395   2.514  16.160  0.2843 -0.3795  0.0294
   21DOPE   H7R 2629   4.501   2.526  16.128 -0.2362  0.7112 -1.3909
   21DOPE   H7S 2630   4.359   2.611  16.201  0.8234 -0.3135  0.3634
   21DOPE   C28 2631   4.295   2.470  16.048  0.2453 -0.2819 -0.2273
   21DOPE   H8R 2632   4.194   2.471  16.094  0.1933 -1.4664 -0.2831
   21DOPE   H8S 2633   4.307   2.361  16.029  0.5871 -0.3277  0.2403
   21DOPE   C29 2634   4.292   2.549  15.922 -0.0981  0.2232 -0.2836
   21DOPE   H9R 2635   4.223   2.634  15.922 -0.9935 -0.4796  0.4549
   21DOPE  C210 2636   4.360   2.517  15.815  0.1601 -0.3224 -0.8255
   21DOPE  H10R 2637   4.367   2.575  15.722  2.0806  0.3477 -0.3238
   21DOPE  C211 2638   4.462   2.403  15.798 -0.4555  0.4925  0.6842
   21DOPE  H11R 2639   4.450   2.362  15.696  0.7166  1.2797  0.2086
   21DOPE  H11S 2640   4.445   2.322  15.873 -0.6994 -0.1975 -0.1032
   21DOPE  C212 2641   4.611   2.444  15.809  0.4650  0.3302  0.2476
   21DOPE  H12R 2642   4.630   2.458  15.918 -1.3511 -0.4937  0.7174
   21DOPE  H12S 2643   4.620   2.536  15.748  1.3814 -0.7913 -1.3781
   21DOPE  C213 2644   4.722   2.342  15.753 -0.3501 -0.2227  0.4058
   21DOPE  H13R 2645   4.698   2.242  15.796  1.0565 -0.2987  1.0812
   21DOPE  H13S 2646   4.821   2.377  15.790 -1.6575  2.0451  1.9960
   21DOPE  C214 2647   4.722   2.323  15.601 -0.5497  0.1150  0.4793
   21DOPE  H14R 2648   4.748   2.417  15.549 -3.6645  0.5386 -0.5335
   21DOPE  H14S 2649   4.622   2.296  15.563  0.3834 -2.0315 -0.6207
   21DOPE  C215 2650   4.828   2.221  15.549  0.5458 -0.3002  1.0721
   21DOPE  H15R 2651   4.815   2.124  15.601 -2.6297 -0.6426 -0.1125
   21DOPE  H15S 2652   4.928   2.263  15.569  0.7026  0.3505 -0.8488
   21DOPE  C216 2653   4.831   2.207  15.393 -0.5052 -0.0167  0.5503
   21DOPE  H16R 2654   4.863   2.305  15.351  1.5782 -1.9159 -2.8401
   21DOPE  H16S 2655   4.731   2.180  15.354 -0.2612  1.3771 -1.1465
   21DOPE  C217 2656   4.941   2.110  15.330  0.7348 -0.0983 -0.6077
   21DOPE  H17R 2657   4.920   2.008  15.368  1.7109 -0.8656 -2.0330
   21DOPE  H17S 2658   5.037   2.142  15.376 -1.1876  1.7983  2.4193
   21DOPE  C218 2659   4.939   2.114  15.180 -0.2014 -0.2319  0.6966
   21DOPE  H18R 2660   5.023   2.062  15.129 -1.3627 -1.6105  0.1106
   21DOPE  H18S 2661   4.926   2.219  15.148  1.4761 -0.0442  0.5738
   21DOPE  H18T 2662   4.843   2.064  15.154 -0.0012  0.1630 -0.8571
   21DOPE   C33 2663   5.043   2.434  16.552 -0.0815 -0.4000 -0.1466
   21DOPE   H3X 2664   4.938   2.460  16.528  0.5313  1.1914 -1.1879
   21DOPE   H3Y 2665   5.048   2.323  16.547 -1.1059 -0.6050  2.2370
   21DOPE   C34 2666   5.137   2.484  16.449 -0.0089  0.0450  0.6593
   21DOPE   H4X 2667   5.128   2.595  16.441 -0.0391 -0.0415 -0.6266
   21DOPE   H4Y 2668   5.244   2.461  16.469  0.3712  2.7375  2.2843
   21DOPE   C35 2669   5.094   2.434  16.307  0.6670  0.7165  0.5396
   21DOPE   H5X 2670   4.989   2.462  16.281  0.0330 -1.4948  0.5273
   21DOPE   H5Y 2671   5.091   2.323  16.303  0.2258  0.7402  0.0159
   21DOPE   C36 2672   5.186   2.483  16.191  0.7210  0.1723  0.7885
   21DOPE   H6X 2673   5.293   2.466  16.219  1.9761  1.5740 -2.5639
   21DOPE   H6Y 2674   5.173   2.592  16.175 -1.9482 -0.2846 -0.7623
   21DOPE   C37 2675   5.153   2.417  16.056 -0.7252  0.1346  0.3777
   21DOPE   H7X 2676   5.162   2.309  16.083  0.3202  0.4544  1.3631
   21DOPE   H7Y 2677   5.052   2.435  16.012 -1.2001  0.6051  1.6225
   21DOPE   C38 2678   5.269   2.450  15.949  0.2354  0.7080  0.1276
   21DOPE   H8X 2679   5.361   2.394  15.974 -1.3451 -2.4659 -0.7022
   21DOPE   H8Y 2680   5.298   2.558  15.946 -1.6854  1.2914  0.8847
   21DOPE   C39 2681   5.232   2.416  15.813 -0.2092  0.1106  1.2436
   21DOPE   H9X 2682   5.212   2.309  15.799  0.1038  0.2178 -0.1329
   21DOPE  C310 2683   5.214   2.490  15.700  0.0056  0.0613  0.4917
   21DOPE  H10X 2684   5.192   2.442  15.604 -0.6815  0.3138  0.5136
   21DOPE  C311 2685   5.255   2.633  15.676  0.4378 -1.0103  0.0142
   21DOPE  H11X 2686   5.171   2.704  15.665  0.7984 -0.2848  1.6267
   21DOPE  H11Y 2687   5.300   2.669  15.771 -0.8284 -0.3766  0.3872
   21DOPE  C312 2688   5.355   2.648  15.557 -0.7667 -0.0122  0.0054
   21DOPE  H12X 2689   5.419   2.558  15.547 -0.9005  0.1322 -2.9218
   21DOPE  H12Y 2690   5.422   2.734  15.574 -0.3288 -0.4317  0.4367
   21DOPE  C313 2691   5.283   2.652  15.423 -0.5359 -0.2777 -0.1824
   21DOPE  H13X 2692   5.249   2.550  15.394  2.8594 -1.6512  0.2182
   21DOPE  H13Y 2693   5.199   2.725  15.412  1.1109  1.5457 -1.2392
   21DOPE  C314 2694   5.384   2.689  15.311 -0.0910 -0.1561 -0.9399
   21DOPE  H14X 2695   5.466   2.615  15.320  0.9169  1.1573  1.2017
   21DOPE  H14Y 2696   5.442   2.778  15.340 -0.4474 -0.6132  1.3349
   21DOPE  C315 2697   5.320   2.707  15.174  0.3207 -0.2447 -0.2809
   21DOPE  H15X 2698   5.388   2.770  15.113  1.8881  0.5545  2.1302
   21DOPE  H15Y 2699   5.228   2.764  15.198 -0.2608 -1.3699  0.2291
   21DOPE  C316 2700   5.305   2.575  15.111  0.5688  0.3757  0.0615
   21DOPE  H16X 2701   5.261   2.499  15.179  0.7446  0.9810  0.8683
   21DOPE  H16Y 2702   5.405   2.545  15.075  0.4934  1.9177 -1.5697
   21DOPE  C317 2703   5.209   2.574  14.982 -0.6106 -1.0290  0.4769
   21DOPE  H17X 2704   5.120   2.508  14.987 -0.2867 -1.4101  1.2198
   21DOPE  H17Y 2705   5.183   2.681  14.966  2.4066 -0.5432 -2.2464
   21DOPE  C318 2706   5.290   2.530  14.859 -0.0892  0.1816 -0.8980
   21DOPE  H18X 2707   5.225   2.550  14.771 -3.4319  0.7411  1.4888
   21DOPE  H18Y 2708   5.382   2.593  14.856  0.2474 -0.2826 -0.5010
   21DOPE  H18Z 2709   5.309   2.421  14.867 -2.7116 -0.2714  0.1316
   22DOPE     N 2710   1.402   0.751  18.152 -0.0339 -0.0650  0.8248
   22DOPE   HN1 2711   1.299   0.737  18.148 -0.1035  0.3936  1.0182
   22DOPE   HN2 2712   1.420   0.853  18.159 -0.7092  0.3136 -1.8979
   22DOPE   HN3 2713   1.430   0.714  18.059 -0.8657 -1.8172  1.2239
   22DOPE   C12 2714   1.453   0.655  18.260 -0.3377 -0.4728 -0.9494
   22DOPE  H12A 2715   1.400   0.679  18.355  1.2936  1.3339 -0.4374
   22DOPE  H12B 2716   1.561   0.676  18.276 -0.7463  0.0425  1.5727
   22DOPE   C11 2717   1.451   0.509  18.216  0.9880  0.5979 -0.3792
   22DOPE  H11A 2718   1.466   0.494  18.106 -0.4510  0.9209 -0.6386
   22DOPE  H11B 2719   1.351   0.466  18.237  1.6565 -0.4085  0.8472
   22DOPE     P 2720   1.669   0.357  18.256 -0.4069  0.2037 -0.3262
   22DOPE   O13 2721   1.638   0.216  18.236  0.3646  0.1925  0.1248
   22DOPE   O14 2722   1.786   0.394  18.344 -0.0118 -0.8113  0.3902
   22DOPE   O11 2723   1.701   0.421  18.110 -0.2516 -0.3208  0.3087
   22DOPE   O12 2724   1.535   0.425  18.304  0.2080 -0.4875  0.2639
   22DOPE    C1 2725   1.772   0.347  18.009  0.0555  0.5407  0.0737
   22DOPE    HA 2726   1.765   0.236  18.019  0.2673  0.3824 -1.3344
   22DOPE    HB 2727   1.880   0.370  18.001 -0.1725  1.5357 -0.2472
   22DOPE    C2 2728   1.702   0.374  17.872 -0.0160  0.0349  0.4329
   22DOPE    HS 2729   1.592   0.366  17.881  0.0728 -1.4029  0.4353
   22DOPE   O21 2730   1.752   0.299  17.754  0.1327  0.1979 -0.2767
   22DOPE   C21 2731   1.693   0.179  17.748 -0.3044 -0.3291 -0.3712
   22DOPE   O22 2732   1.615   0.138  17.834 -0.4627  0.6122  0.1718
   22DOPE   C22 2733   1.758   0.087  17.634  0.0343 -0.2377  0.5772
   22DOPE   H2R 2734   1.684   0.008  17.610  0.2276 -0.4659  0.7349
   22DOPE   H2S 2735   1.846   0.042  17.684  0.8363 -1.5606 -1.8437
   22DOPE    C3 2736   1.718   0.521  17.830 -0.2746 -0.2636 -0.5929
   22DOPE    HX 2737   1.823   0.529  17.793 -0.9325 -0.5038 -2.6077
   22DOPE    HY 2738   1.724   0.584  17.921 -0.3218 -2.1113  0.7521
   22DOPE   O31 2739   1.620   0.565  17.731 -0.6366  0.0828  0.4855
   22DOPE   C31 2740   1.501   0.599  17.781  0.1169 -0.2246 -0.0107
   22DOPE   O32 2741   1.479   0.629  17.897 -0.2321  0.0994 -0.5275
   22DOPE   C32 2742   1.388   0.600  17.670  0.8031  0.1624  0.4856
   22DOPE   H2X 2743   1.372   0.491  17.654  1.1004  0.4313 -2.2233
   22DOPE   H2Y 2744   1.304   0.653  17.720  0.5646  0.3127 -0.0662
   22DOPE   C23 2745   1.796   0.156  17.501  0.1146  0.5736  0.1041
   22DOPE   H3R 2746   1.896   0.205  17.509  0.5424 -0.3541  0.4814
   22DOPE   H3S 2747   1.716   0.231  17.482  0.2651  0.8086  0.4006
   22DOPE   C24 2748   1.803   0.063  17.379  0.2637 -0.0340 -0.2552
   22DOPE   H4R 2749   1.702   0.019  17.369 -0.4131  0.9049  1.9004
   22DOPE   H4S 2750   1.883  -0.008  17.408  3.4863  4.1406  2.2540
   22DOPE   C25 2751   1.848   0.134  17.248 -0.1757  0.2566 -0.1756
   22DOPE   H5R 2752   1.949   0.174  17.268  0.4259 -1.1556 -0.2892
   22DOPE   H5S 2753   1.781   0.221  17.229 -0.8213 -0.0665  0.5681
   22DOPE   C26 2754   1.846   0.042  17.130 -0.1477 -0.1226  0.7721
   22DOPE   H6R 2755   1.740   0.009  17.122  0.6974 -2.8795 -0.1029
   22DOPE   H6S 2756   1.902  -0.052  17.148  1.8032  1.1593  1.7421
   22DOPE   C27 2757   1.881   0.100  16.988 -0.0961  0.5128 -0.0215
   22DOPE   H7R 2758   1.988   0.130  16.990  0.3845 -0.9288 -1.4466
   22DOPE   H7S 2759   1.832   0.197  16.963 -1.4613  0.1456  1.1387
   22DOPE   C28 2760   1.857  -0.000  16.874  0.3531 -0.2804 -0.1521
   22DOPE   H8R 2761   1.752  -0.034  16.880  0.0421  0.8286  1.0975
   22DOPE   H8S 2762   1.903  -0.099  16.894 -2.3132 -1.3698  0.9022
   22DOPE   C29 2763   1.908   0.054  16.740  0.3345  0.5186 -0.1895
   22DOPE   H9R 2764   1.982   0.133  16.760 -0.0779  0.4793  1.6765
   22DOPE  C210 2765   1.884   0.015  16.613 -0.0923 -1.1248 -0.7816
   22DOPE  H10R 2766   1.929   0.073  16.531  1.2125 -0.4442  0.3652
   22DOPE  C211 2767   1.779  -0.087  16.573  0.0387  0.1694  0.3788
   22DOPE  H11R 2768   1.688  -0.044  16.526 -1.3731 -1.1075  1.8049
   22DOPE  H11S 2769   1.739  -0.134  16.666 -1.3682  2.3887  0.9737
   22DOPE  C212 2770   1.824  -0.195  16.480 -0.0232 -0.1373 -0.0284
   22DOPE  H12R 2771   1.744  -0.271  16.472  1.3625 -1.5169 -1.6160
   22DOPE  H12S 2772   1.905  -0.257  16.523 -0.8350 -1.7697 -0.7427
   22DOPE  C213 2773   1.855  -0.155  16.342 -0.2109 -0.6063  0.2135
   22DOPE  H13R 2774   1.953  -0.103  16.349 -0.0592 -0.9704  0.9220
   22DOPE  H13S 2775   1.784  -0.074  16.314 -0.3214  0.3641  2.9540
   22DOPE  C214 2776   1.859  -0.263  16.230 -0.5314  1.5182 -0.0708
   22DOPE  H14R 2777   1.768  -0.325  16.245  1.1921 -0.9831  0.9726
   22DOPE  H14S 2778   1.934  -0.343  16.250 -1.7570  0.3937  0.1886
   22DOPE  C215 2779   1.867  -0.222  16.084 -0.2177 -0.2132 -0.6301
   22DOPE  H15R 2780   1.929  -0.131  16.075 -0.2579 -0.2357 -1.2075
   22DOPE  H15S 2781   1.763  -0.204  16.049 -0.9476  0.6866  1.8202
   22DOPE  C216 2782   1.930  -0.333  15.989 -0.4610  0.2714  0.0818
   22DOPE  H16R 2783   1.861  -0.419  16.002  1.6432 -1.4318  0.7435
   22DOPE  H16S 2784   2.029  -0.362  16.030 -1.0197 -2.0295 -0.0178
   22DOPE  C217 2785   1.934  -0.298  15.839 -0.2446  0.0043  0.7125
   22DOPE  H17R 2786   1.927  -0.391  15.778 -2.1537  1.2818 -1.1793
   22DOPE  H17S 2787   2.031  -0.248  15.820  0.4517 -1.3821  0.4951
   22DOPE  C218 2788   1.826  -0.200  15.791 -0.7983  0.7047 -0.2548
   22DOPE  H18R 2789   1.848  -0.164  15.688 -1.7924  2.3626  0.0927
   22DOPE  H18S 2790   1.819  -0.115  15.862 -0.9443 -0.8449  1.6789
   22DOPE  H18T 2791   1.727  -0.248  15.781  0.1956 -1.5306 -0.1059
   22DOPE   C33 2792   1.436   0.645  17.531 -0.0037  0.2687  0.0009
   22DOPE   H3X 2793   1.354   0.615  17.462  0.4083 -1.3533  0.1704
   22DOPE   H3Y 2794   1.528   0.588  17.508 -0.4855 -0.3785 -0.3628
   22DOPE   C34 2795   1.468   0.795  17.528  0.4510 -0.7642  0.5942
   22DOPE   H4X 2796   1.374   0.852  17.546  1.2114  0.9879 -0.6324
   22DOPE   H4Y 2797   1.533   0.819  17.615  2.0388 -1.5535 -0.3202
   22DOPE   C35 2798   1.539   0.832  17.401  0.1284 -1.4802  0.2560
   22DOPE   H5X 2799   1.641   0.789  17.388  1.3777  1.4226 -0.1632
   22DOPE   H5Y 2800   1.563   0.940  17.407  0.1199 -1.4541 -0.1823
   22DOPE   C36 2801   1.454   0.817  17.269 -0.4289 -0.0053  0.1876
   22DOPE   H6X 2802   1.356   0.869  17.281 -0.2952  0.7154 -1.5175
   22DOPE   H6Y 2803   1.430   0.708  17.269 -0.6088  0.0180  1.2817
   22DOPE   C37 2804   1.522   0.871  17.141 -0.0244 -0.0568  0.9162
   22DOPE   H7X 2805   1.546   0.976  17.165  4.1231 -0.5768 -0.1770
   22DOPE   H7Y 2806   1.614   0.813  17.120 -0.3490  0.1494 -1.3433
   22DOPE   C38 2807   1.425   0.863  17.019 -0.1834 -0.4161  0.3384
   22DOPE   H8X 2808   1.448   0.935  16.937  1.0021 -1.2514 -0.0872
   22DOPE   H8Y 2809   1.328   0.894  17.063  0.8000  1.0662  1.5838
   22DOPE   C39 2810   1.422   0.719  16.972  0.3726 -0.2825  0.9858
   22DOPE   H9X 2811   1.366   0.655  17.042 -0.3533  0.5070  1.1471
   22DOPE  C310 2812   1.458   0.677  16.853 -0.1232  0.9544  0.5042
   22DOPE  H10X 2813   1.445   0.574  16.817 -0.7286  1.2701 -0.1986
   22DOPE  C311 2814   1.529   0.756  16.754  0.3591  0.3303  0.0688
   22DOPE  H11X 2815   1.567   0.856  16.784  0.2624  0.6608 -0.8534
   22DOPE  H11Y 2816   1.619   0.698  16.724  0.6430  0.3104  0.9514
   22DOPE  C312 2817   1.447   0.763  16.630 -0.2667 -0.4142 -0.3501
   22DOPE  H12X 2818   1.358   0.827  16.647  1.3369  1.9201 -0.3564
   22DOPE  H12Y 2819   1.419   0.664  16.588 -0.2759 -0.8160  0.5888
   22DOPE  C313 2820   1.524   0.833  16.516 -0.8141 -0.1605 -0.8811
   22DOPE  H13X 2821   1.540   0.940  16.538 -0.7833 -0.5930  1.5221
   22DOPE  H13Y 2822   1.623   0.785  16.502 -0.9561  0.1268 -3.2431
   22DOPE  C314 2823   1.457   0.812  16.377 -0.2952 -0.0058 -0.4683
   22DOPE  H14X 2824   1.413   0.910  16.350  0.3300  0.0419 -1.3525
   22DOPE  H14Y 2825   1.365   0.750  16.384 -1.1852  1.3058 -0.2120
   22DOPE  C315 2826   1.542   0.754  16.264  0.1967  0.2714 -0.2303
   22DOPE  H15X 2827   1.580   0.651  16.276 -1.2597 -0.6347 -2.5985
   22DOPE  H15Y 2828   1.631   0.817  16.245 -0.2007  0.4858 -1.4581
   22DOPE  C316 2829   1.464   0.744  16.133 -0.1509  0.0840  0.6010
   22DOPE  H16X 2830   1.411   0.834  16.095 -1.8492 -1.4621 -0.9233
   22DOPE  H16Y 2831   1.384   0.668  16.152 -0.3815  0.5445  1.5274
   22DOPE  C317 2832   1.553   0.698  16.022 -0.8343  0.7420  0.2775
   22DOPE  H17X 2833   1.625   0.773  15.982  1.0559 -2.3206 -2.5323
   22DOPE  H17Y 2834   1.627   0.623  16.057 -0.3112  0.8639 -0.5259
   22DOPE  C318 2835   1.477   0.654  15.899  0.1901 -0.4147 -0.0513
   22DOPE  H18X 2836   1.438   0.748  15.855  2.5382  0.2881 -0.7944
   22DOPE  H18Y 2837   1.539   0.598  15.825 -0.6404  0.0019 -1.0858
   22DOPE  H18Z 2838   1.395   0.585  15.924 -0.6221 -0.0470 -1.6092
   23DOPE     N 2839   5.529   2.731  17.670  0.3190  0.7244  0.3752
   23DOPE   HN1 2840   5.487   2.644  17.634 -1.0710  1.0390  1.1527
   23DOPE   HN2 2841   5.556   2.725  17.771 -0.0313 -1.6450  0.3676
   23DOPE   HN3 2842   5.453   2.800  17.656  0.0468  0.1812 -0.8686
   23DOPE   C12 2843   5.637   2.779  17.574  0.7498 -0.5507  0.9549
   23DOPE  H12A 2844   5.600   2.765  17.470 -0.4512 -0.3820  1.3543
   23DOPE  H12B 2845   5.725   2.712  17.581  0.7059 -0.4271  4.4353
   23DOPE   C11 2846   5.674   2.932  17.600 -0.1778  0.3147 -0.1729
   23DOPE  H11A 2847   5.580   2.988  17.580 -0.1069 -0.3398 -2.7503
   23DOPE  H11B 2848   5.762   2.967  17.541  0.4723  1.6394  1.5089
   23DOPE     P 2849   5.711   3.096  17.791  0.3488 -0.4812 -0.1172
   23DOPE   O13 2850   5.816   3.100  17.893 -0.4976  0.3020  0.0770
   23DOPE   O14 2851   5.571   3.131  17.830 -0.5465 -0.5712 -0.6681
   23DOPE   O11 2852   5.765   3.183  17.674  0.3741 -0.6482  0.3278
   23DOPE   O12 2853   5.707   2.946  17.737  0.2525  0.2392 -0.6305
   23DOPE    C1 2854   5.895   3.179  17.613 -0.5113 -0.0695  0.7627
   23DOPE    HA 2855   5.943   3.079  17.608  0.0188  0.1976 -3.7533
   23DOPE    HB 2856   5.969   3.248  17.659  1.2072 -0.4202 -1.3718
   23DOPE    C2 2857   5.886   3.225  17.466  0.1312 -0.0417 -0.0223
   23DOPE    HS 2858   5.856   3.332  17.463  0.9675  0.2083  0.1615
   23DOPE   O21 2859   5.810   3.122  17.397 -0.2180  0.1168  0.0966
   23DOPE   C21 2860   5.723   3.170  17.315  0.4275  0.5335  0.3431
   23DOPE   O22 2861   5.713   3.288  17.283  0.4844  0.4988  0.8164
   23DOPE   C22 2862   5.653   3.050  17.249 -0.7410 -0.2744 -0.6971
   23DOPE   H2R 2863   5.556   3.087  17.208 -0.6218  0.9541  0.0762
   23DOPE   H2S 2864   5.633   2.980  17.333  0.3804 -0.1404 -0.3004
   23DOPE    C3 2865   6.023   3.227  17.402  0.1181  0.3986  0.8915
   23DOPE    HX 2866   6.058   3.122  17.413 -0.4299 -0.2937 -2.7029
   23DOPE    HY 2867   6.092   3.295  17.455  0.0113 -0.6112  2.3909
   23DOPE   O31 2868   6.012   3.270  17.263 -0.2781 -1.1580 -0.3507
   23DOPE   C31 2869   6.022   3.398  17.241 -0.1887 -0.5118 -0.3700
   23DOPE   O32 2870   6.051   3.487  17.322  0.2066  0.2733 -0.1518
   23DOPE   C32 2871   5.983   3.427  17.089  0.4401 -0.1947  0.0568
   23DOPE   H2X 2872   5.996   3.328  17.041 -1.0909 -1.5195  2.1781
   23DOPE   H2Y 2873   5.877   3.459  17.077  0.7997  0.5529 -1.3985
   23DOPE   C23 2874   5.727   2.969  17.138  0.0532  0.1186 -0.3859
   23DOPE   H3R 2875   5.659   2.885  17.115 -1.3081  1.4832 -1.5679
   23DOPE   H3S 2876   5.818   2.937  17.194 -0.2510 -1.1101 -0.5657
   23DOPE   C24 2877   5.786   3.041  17.018  0.2881 -0.1110 -0.5035
   23DOPE   H4R 2878   5.875   2.985  16.981  0.7938  1.2993 -1.4786
   23DOPE   H4S 2879   5.829   3.139  17.045  1.6006 -0.6048 -0.7236
   23DOPE   C25 2880   5.692   3.058  16.903  0.4799 -0.8663 -0.3090
   23DOPE   H5R 2881   5.591   3.090  16.937 -0.3665 -0.8492 -2.6389
   23DOPE   H5S 2882   5.682   2.960  16.852 -1.0333  0.0480 -1.8869
   23DOPE   C26 2883   5.750   3.161  16.798  0.1397 -0.0007 -0.3497
   23DOPE   H6R 2884   5.806   3.248  16.838  2.5027 -0.6714 -1.9742
   23DOPE   H6S 2885   5.666   3.201  16.739  0.6983 -0.0177 -1.1725
   23DOPE   C27 2886   5.850   3.085  16.706 -0.0660 -0.5290  0.3672
   23DOPE   H7R 2887   5.928   3.030  16.763  0.2882  0.2589  0.6504
   23DOPE   H7S 2888   5.903   3.157  16.641  1.1016 -0.4402  1.3851
   23DOPE   C28 2889   5.775   2.989  16.602 -0.1090 -0.1848 -0.7340
   23DOPE   H8R 2890   5.697   2.925  16.650  0.6161  0.2665  1.1607
   23DOPE   H8S 2891   5.846   2.915  16.561  1.0907  1.6982 -2.2105
   23DOPE   C29 2892   5.694   3.062  16.501  0.2277 -0.3457  0.6880
   23DOPE   H9R 2893   5.622   3.139  16.531 -1.1066 -0.8042 -1.1851
   23DOPE  C210 2894   5.701   3.051  16.368 -0.5736  0.1540 -0.4211
   23DOPE  H10R 2895   5.664   3.135  16.308 -0.0226 -1.0529 -2.5378
   23DOPE  C211 2896   5.796   2.969  16.286  1.1915  0.7659 -1.2113
   23DOPE  H11R 2897   5.737   2.923  16.204  0.0628 -1.9052  0.9436
   23DOPE  H11S 2898   5.841   2.889  16.348 -0.6072  1.7262  1.4987
   23DOPE  C212 2899   5.913   3.057  16.232  0.1628 -0.4225 -0.1336
   23DOPE  H12R 2900   5.976   2.975  16.191  2.1004  1.3096 -0.8035
   23DOPE  H12S 2901   5.977   3.098  16.313  1.4840 -1.5919 -0.5257
   23DOPE  C213 2902   5.884   3.159  16.124  1.1970  0.0147 -0.4772
   23DOPE  H13R 2903   5.980   3.211  16.104  0.5448  1.5587  0.2611
   23DOPE  H13S 2904   5.814   3.231  16.172  0.4370 -0.4107 -0.9297
   23DOPE  C214 2905   5.817   3.110  15.996 -0.0570  0.0140  0.1430
   23DOPE  H14R 2906   5.810   3.196  15.925  0.6799 -0.8747 -1.0442
   23DOPE  H14S 2907   5.715   3.069  16.015 -0.0874 -0.4647 -0.9656
   23DOPE  C215 2908   5.887   2.990  15.928 -0.3961  0.1191 -0.0757
   23DOPE  H15R 2909   5.857   2.892  15.973  0.3729 -0.8375 -1.5534
   23DOPE  H15S 2910   5.996   3.008  15.939 -0.6563  1.2451  0.8416
   23DOPE  C216 2911   5.848   2.977  15.782 -0.2841 -0.6320 -0.6098
   23DOPE  H16R 2912   5.739   2.954  15.776 -0.7386  1.4666 -0.9061
   23DOPE  H16S 2913   5.900   2.881  15.758 -0.9715 -1.0029 -0.6545
   23DOPE  C217 2914   5.891   3.101  15.701  0.5777  0.2310 -0.7460
   23DOPE  H17R 2915   5.984   3.141  15.747  0.7773  0.0140 -0.9580
   23DOPE  H17S 2916   5.808   3.174  15.705 -0.3013 -0.7933  0.8430
   23DOPE  C218 2917   5.908   3.055  15.558 -0.0174  0.8743  0.4184
   23DOPE  H18R 2918   5.976   2.968  15.562 -0.9038  0.2120  1.6069
   23DOPE  H18S 2919   5.956   3.138  15.500  3.9919 -1.2528  0.3338
   23DOPE  H18T 2920   5.807   3.038  15.514 -1.0374  2.2711  2.0969
   23DOPE   C33 2921   6.077   3.515  17.013  0.3157 -0.3814  0.1056
   23DOPE   H3X 2922   6.176   3.523  17.063  0.4857 -0.0559 -0.2641
   23DOPE   H3Y 2923   6.040   3.620  17.011 -0.0423 -0.5031 -1.4625
   23DOPE   C34 2924   6.112   3.473  16.871  0.9318 -0.2529 -0.4282
   23DOPE   H4X 2925   6.203   3.529  16.842 -0.6933  2.0248 -1.4065
   23DOPE   H4Y 2926   6.122   3.362  16.866  1.5936 -0.3276  1.7664
   23DOPE   C35 2927   5.999   3.505  16.770  0.2724  0.5195  0.3200
   23DOPE   H5X 2928   5.965   3.610  16.761 -0.0269  0.3366 -0.8276
   23DOPE   H5Y 2929   5.906   3.451  16.797  0.3715  0.2282  0.0837
   23DOPE   C36 2930   6.044   3.452  16.625  0.1864 -0.4614  0.1921
   23DOPE   H6X 2931   6.048   3.341  16.633 -0.3890 -0.5578 -0.7073
   23DOPE   H6Y 2932   6.141   3.505  16.610  0.0928  0.2516  1.8493
   23DOPE   C37 2933   5.950   3.496  16.514  0.1280 -0.4680  0.2128
   23DOPE   H7X 2934   5.849   3.473  16.555  0.0430 -0.0439  0.2460
   23DOPE   H7Y 2935   5.954   3.605  16.493 -0.1727 -0.2866  1.0545
   23DOPE   C38 2936   5.968   3.436  16.370 -0.1476  0.4485  0.3105
   23DOPE   H8X 2937   5.887   3.473  16.304  1.0164  2.3404 -0.1265
   23DOPE   H8Y 2938   5.964   3.326  16.384 -1.4276  0.5270  0.6718
   23DOPE   C39 2939   6.106   3.487  16.327 -0.2701  0.7353  0.6568
   23DOPE   H9X 2940   6.186   3.466  16.400 -1.8090 -0.3675  2.1031
   23DOPE  C310 2941   6.132   3.560  16.216 -0.1317 -0.0460 -0.0045
   23DOPE  H10X 2942   6.236   3.593  16.201 -0.0925 -0.3448 -0.4119
   23DOPE  C311 2943   6.047   3.601  16.103 -0.4101  0.2577 -0.2508
   23DOPE  H11X 2944   5.965   3.526  16.093 -0.2015  0.0637 -0.5187
   23DOPE  H11Y 2945   5.994   3.696  16.126 -0.9959  0.1166 -0.9612
   23DOPE  C312 2946   6.122   3.606  15.976  0.4609  0.1976  0.3990
   23DOPE  H12X 2947   6.214   3.665  15.992  0.2050  0.5359  0.6539
   23DOPE  H12Y 2948   6.068   3.670  15.904  0.0946 -2.2353 -1.6193
   23DOPE  C313 2949   6.150   3.469  15.922  0.5693  0.4014  0.1227
   23DOPE  H13X 2950   6.219   3.410  15.986  0.4846  0.1599 -0.0091
   23DOPE  H13Y 2951   6.053   3.416  15.912  0.3938  0.2967  1.9866
   23DOPE  C314 2952   6.206   3.483  15.777  0.1147 -0.1968  0.3148
   23DOPE  H14X 2953   6.308   3.524  15.792 -0.0720 -0.0496  1.2156
   23DOPE  H14Y 2954   6.152   3.559  15.717 -3.4926 -2.8606 -0.1573
   23DOPE  C315 2955   6.214   3.350  15.703  0.4761 -0.8854 -0.4909
   23DOPE  H15X 2956   6.105   3.325  15.699  0.5604 -1.4948  0.5608
   23DOPE  H15Y 2957   6.269   3.280  15.770  1.3831  0.7188  0.4940
   23DOPE  C316 2958   6.278   3.355  15.566 -0.5628 -0.1527  0.8464
   23DOPE  H16X 2959   6.238   3.435  15.501 -1.0571 -0.9158  0.1899
   23DOPE  H16Y 2960   6.252   3.259  15.516 -1.7340 -0.3352  1.7624
   23DOPE  C317 2961   6.427   3.382  15.563  0.0592  0.1754 -0.0662
   23DOPE  H17X 2962   6.450   3.459  15.640 -2.2623 -0.5376  1.4303
   23DOPE  H17Y 2963   6.476   3.287  15.594 -0.7692 -0.1200  0.3540
   23DOPE  C318 2964   6.486   3.413  15.424  0.8577 -0.1095 -0.1237
   23DOPE  H18X 2965   6.581   3.462  15.454 -0.1517  1.4636  0.6280
   23DOPE  H18Y 2966   6.500   3.318  15.368 -3.6782 -0.5164 -0.9400
   23DOPE  H18Z 2967   6.424   3.487  15.371 -1.5624 -0.6699  1.7382
   24DOPE     N 2968   1.085   1.967  18.244  0.1867 -0.0699 -0.5340
   24DOPE   HN1 2969   1.043   1.965  18.340  2.1402  0.9095  0.3877
   24DOPE   HN2 2970   1.183   1.943  18.268 -0.4320  0.7778  3.6951
   24DOPE   HN3 2971   1.073   2.066  18.216 -0.0949 -0.7139 -2.8406
   24DOPE   C12 2972   1.011   1.865  18.150  0.4420  0.1237  0.3577
   24DOPE  H12A 2973   0.908   1.908  18.145  0.3239 -0.0117  1.4555
   24DOPE  H12B 2974   1.006   1.768  18.204 -2.4842  0.2681  0.5040
   24DOPE   C11 2975   1.090   1.844  18.021  0.4226 -0.9187  0.3060
   24DOPE  H11A 2976   1.125   1.935  17.967 -0.0225  0.0776  1.6489
   24DOPE  H11B 2977   1.027   1.789  17.948  1.6974 -1.4560 -0.4334
   24DOPE     P 2978   1.326   1.718  17.984 -0.1559  0.0607 -0.1145
   24DOPE   O13 2979   1.380   1.604  18.050  0.1554 -0.0572  0.3760
   24DOPE   O14 2980   1.409   1.837  17.968  0.1425  0.3466  0.0785
   24DOPE   O11 2981   1.277   1.684  17.837 -0.2785 -0.0346 -0.2564
   24DOPE   O12 2982   1.191   1.752  18.061  0.2048 -0.2522 -0.1591
   24DOPE    C1 2983   1.239   1.786  17.743 -0.3257 -0.1060 -0.2615
   24DOPE    HA 2984   1.311   1.871  17.746  0.1302 -0.3753 -2.2665
   24DOPE    HB 2985   1.143   1.832  17.774  0.1335  0.1356  0.8447
   24DOPE    C2 2986   1.249   1.759  17.589  0.3838 -0.1579 -0.0456
   24DOPE    HS 2987   1.213   1.849  17.534 -0.7726 -0.5229  0.0867
   24DOPE   O21 2988   1.161   1.648  17.556 -0.5752  0.0838 -0.2136
   24DOPE   C21 2989   1.114   1.646  17.434 -0.5673 -0.4603 -0.0211
   24DOPE   O22 2990   1.129   1.737  17.355  0.1789  0.2595  0.0061
   24DOPE   C22 2991   1.049   1.513  17.398 -0.2404  0.1502 -0.0474
   24DOPE   H2R 2992   0.983   1.542  17.314 -1.4340 -0.6884  0.5806
   24DOPE   H2S 2993   1.006   1.465  17.488  4.0266 -2.2567  1.0179
   24DOPE    C3 2994   1.396   1.722  17.548  0.2318  0.3992  0.3316
   24DOPE    HX 2995   1.417   1.618  17.581  1.4393  1.2929  2.5756
   24DOPE    HY 2996   1.477   1.779  17.598 -1.7096  0.5919  3.5660
   24DOPE   O31 2997   1.408   1.737  17.404 -1.0766 -0.4367 -0.3746
   24DOPE   C31 2998   1.440   1.853  17.354 -0.7191 -0.2275 -0.5874
   24DOPE   O32 2999   1.453   1.955  17.419 -0.0116 -0.1196  0.2837
   24DOPE   C32 3000   1.459   1.845  17.201 -0.1303 -0.1627  0.1646
   24DOPE   H2X 3001   1.364   1.799  17.166  0.5183 -0.7906 -0.8338
   24DOPE   H2Y 3002   1.471   1.949  17.165 -1.7738 -0.2404 -0.7313
   24DOPE   C23 3003   1.157   1.403  17.351  0.2276 -0.1933 -0.1301
   24DOPE   H3R 3004   1.105   1.306  17.338  2.2716 -1.3324 -0.2528
   24DOPE   H3S 3005   1.235   1.399  17.431 -0.7797  0.4357  0.9142
   24DOPE   C24 3006   1.216   1.436  17.216 -1.1304  0.1630  0.2239
   24DOPE   H4R 3007   1.253   1.338  17.178 -0.5085  1.2447 -2.1359
   24DOPE   H4S 3008   1.303   1.503  17.228 -0.2081 -1.1034  0.8313
   24DOPE   C25 3009   1.118   1.486  17.114  0.1867  0.1605 -0.4308
   24DOPE   H5R 3010   1.085   1.590  17.132 -1.0846 -0.3554  0.3399
   24DOPE   H5S 3011   1.033   1.416  17.122  1.0774 -0.9043  0.0545
   24DOPE   C26 3012   1.172   1.498  16.979  0.1372 -0.1952 -0.0873
   24DOPE   H6R 3013   1.219   1.403  16.945  0.3698 -1.0183  2.3493
   24DOPE   H6S 3014   1.249   1.578  16.976  2.3108 -2.1876 -0.9556
   24DOPE   C27 3015   1.054   1.508  16.878 -0.2584 -0.4856 -0.1684
   24DOPE   H7R 3016   1.015   1.611  16.898  1.9706  0.4850 -0.4665
   24DOPE   H7S 3017   0.976   1.431  16.890 -0.1145 -0.4180  1.4043
   24DOPE   C28 3018   1.105   1.526  16.728  0.4377  0.3814 -0.4691
   24DOPE   H8R 3019   1.155   1.430  16.703 -2.7367 -1.7600  0.7779
   24DOPE   H8S 3020   1.183   1.605  16.728  0.3101  0.5216  0.5226
   24DOPE   C29 3021   1.000   1.557  16.630 -0.6687 -0.5671 -0.0367
   24DOPE   H9R 3022   0.907   1.600  16.670 -1.2194 -1.7035 -0.0413
   24DOPE  C210 3023   0.996   1.541  16.497  0.1135  0.4208  0.6298
   24DOPE  H10R 3024   0.902   1.568  16.447 -0.0020  1.4145  1.3549
   24DOPE  C211 3025   1.105   1.476  16.407  0.7378  0.2777  0.3436
   24DOPE  H11R 3026   1.061   1.390  16.352  2.1362  1.4001 -2.7829
   24DOPE  H11S 3027   1.191   1.444  16.470  0.8522  0.0793  0.0880
   24DOPE  C212 3028   1.161   1.568  16.298 -0.2986 -0.2709 -0.5495
   24DOPE  H12R 3029   1.253   1.523  16.254 -0.1982  0.3092 -0.9547
   24DOPE  H12S 3030   1.184   1.667  16.343 -1.1209 -0.5881  0.6011
   24DOPE  C213 3031   1.068   1.588  16.181 -0.0117 -0.9882  0.0609
   24DOPE  H13R 3032   0.965   1.612  16.213  0.6681  2.6813 -0.0321
   24DOPE  H13S 3033   1.065   1.493  16.123  0.0872 -1.4078  0.7356
   24DOPE  C214 3034   1.105   1.705  16.083 -0.3598 -0.4031  0.2569
   24DOPE  H14R 3035   1.202   1.687  16.033 -0.3568  1.9695 -0.6910
   24DOPE  H14S 3036   1.107   1.803  16.134 -0.2291  0.1216 -0.7382
   24DOPE  C215 3037   0.996   1.714  15.980  0.8605  0.0289 -0.9698
   24DOPE  H15R 3038   0.899   1.742  16.026 -0.0191  2.1661 -3.7829
   24DOPE  H15S 3039   0.965   1.618  15.934 -2.3751  1.0588 -1.1634
   24DOPE  C216 3040   1.032   1.819  15.880 -0.5955  0.7792  0.4715
   24DOPE  H16R 3041   1.125   1.805  15.822 -1.1729  2.0644 -0.8369
   24DOPE  H16S 3042   1.037   1.920  15.926  0.3533  1.6215 -1.3520
   24DOPE  C217 3043   0.916   1.836  15.782 -0.6172 -0.1747 -0.1017
   24DOPE  H17R 3044   0.823   1.791  15.825  0.2279 -2.4329 -0.4819
   24DOPE  H17S 3045   0.929   1.779  15.687 -0.4557 -1.0766  0.4467
   24DOPE  C218 3046   0.898   1.984  15.750  0.0076 -0.2944 -1.0629
   24DOPE  H18R 3047   0.867   2.040  15.841  2.0350 -0.0917 -0.4650
   24DOPE  H18S 3048   0.814   1.991  15.677 -0.9493 -1.8881 -0.1660
   24DOPE  H18T 3049   0.989   2.026  15.702  0.5441 -1.5840 -1.1998
   24DOPE   C33 3050   1.572   1.759  17.150 -0.1147 -0.0263  0.0697
   24DOPE   H3X 3051   1.592   1.674  17.219  0.9328  0.4990  0.4406
   24DOPE   H3Y 3052   1.672   1.804  17.164  0.7142 -1.6095 -0.4519
   24DOPE   C34 3053   1.539   1.729  17.008 -0.2206  0.1168  0.2124
   24DOPE   H4X 3054   1.446   1.680  16.972 -0.0065  1.3467 -2.2762
   24DOPE   H4Y 3055   1.538   1.824  16.949 -2.2362 -0.2250 -0.3874
   24DOPE   C35 3056   1.649   1.637  16.947 -0.1404 -0.2257  0.1917
   24DOPE   H5X 3057   1.657   1.543  17.007 -0.3975 -1.1270 -1.1464
   24DOPE   H5Y 3058   1.750   1.683  16.954 -1.3051  2.4333  0.8978
   24DOPE   C36 3059   1.626   1.615  16.794 -0.0314 -0.5772 -0.4374
   24DOPE   H6X 3060   1.523   1.575  16.778 -0.2224 -0.7071  0.9747
   24DOPE   H6Y 3061   1.691   1.527  16.773 -0.2808 -0.2064 -2.9726
   24DOPE   C37 3062   1.660   1.736  16.715 -0.1182 -0.0410  0.1677
   24DOPE   H7X 3063   1.590   1.821  16.729  0.2283  0.2490  0.1519
   24DOPE   H7Y 3064   1.760   1.779  16.739 -1.2746  4.5915 -2.1659
   24DOPE   C38 3065   1.663   1.709  16.556  0.5708 -0.2044 -0.2962
   24DOPE   H8X 3066   1.716   1.613  16.541 -0.1025 -0.6474  0.1296
   24DOPE   H8Y 3067   1.721   1.797  16.520 -1.3562  1.1625 -0.1904
   24DOPE   C39 3068   1.523   1.699  16.499  0.0253 -0.5153 -0.0521
   24DOPE   H9X 3069   1.455   1.635  16.557 -2.3106 -0.8437 -2.8954
   24DOPE  C310 3070   1.475   1.763  16.400 -0.2557  0.2523  0.1414
   24DOPE  H10X 3071   1.374   1.738  16.365 -0.4196  1.5933 -0.4108
   24DOPE  C311 3072   1.550   1.844  16.299 -0.0677 -0.8242 -0.3295
   24DOPE  H11X 3073   1.532   1.953  16.312  2.1228 -0.3659 -0.8541
   24DOPE  H11Y 3074   1.659   1.825  16.297 -0.2691 -2.3831  1.0374
   24DOPE  C312 3075   1.506   1.806  16.156  0.1297 -0.2929  0.8935
   24DOPE  H12X 3076   1.407   1.841  16.119  0.5929 -0.1125 -0.2072
   24DOPE  H12Y 3077   1.505   1.695  16.149 -0.1964 -0.1570 -2.3452
   24DOPE  C313 3078   1.617   1.850  16.060  0.0836  0.4994  0.3840
   24DOPE  H13X 3079   1.626   1.960  16.066  1.9732  0.4394 -0.6559
   24DOPE  H13Y 3080   1.717   1.802  16.073  0.7610  1.0573 -2.1701
   24DOPE  C314 3081   1.590   1.813  15.912 -0.2842 -0.5102 -0.9344
   24DOPE  H14X 3082   1.579   1.703  15.906  1.4721 -0.7093 -1.0269
   24DOPE  H14Y 3083   1.683   1.852  15.863 -0.9011  1.6458 -0.4998
   24DOPE  C315 3084   1.462   1.870  15.855  0.0010  0.4769  0.1131
   24DOPE  H15X 3085   1.451   1.975  15.889  2.7234  0.9953 -0.3545
   24DOPE  H15Y 3086   1.376   1.816  15.900 -0.2780  1.1190  0.3581
   24DOPE  C316 3087   1.469   1.860  15.702  0.4229  0.1941 -0.0308
   24DOPE  H16X 3088   1.476   1.752  15.676  0.8907 -0.2302  1.7017
   24DOPE  H16Y 3089   1.565   1.899  15.660 -1.0515  2.1930 -1.7425
   24DOPE  C317 3090   1.345   1.917  15.624 -0.7886 -0.0692 -0.4284
   24DOPE  H17X 3091   1.253   1.870  15.665 -1.1257 -1.3983 -2.5672
   24DOPE  H17Y 3092   1.353   2.024  15.655  1.2766 -0.5112  0.7017
   24DOPE  C318 3093   1.338   1.898  15.467  0.4827 -0.1879  0.7222
   24DOPE  H18X 3094   1.236   1.927  15.434  0.3728 -0.6072  0.6842
   24DOPE  H18Y 3095   1.412   1.972  15.430 -2.0050  2.4665  0.7149
   24DOPE  H18Z 3096   1.359   1.795  15.431  3.5467 -0.0561  1.8433
   25DOPE     N 3097   1.479   1.488  18.252  0.7436  0.4235 -0.3041
   25DOPE   HN1 3098   1.447   1.521  18.159 -1.9335 -1.8711 -0.3635
   25DOPE   HN2 3099   1.444   1.390  18.248  0.2100  0.6585 -2.7698
   25DOPE   HN3 3100   1.417   1.530  18.324  0.9343  2.0681 -1.0687
   25DOPE   C12 3101   1.624   1.504  18.301  0.1125  0.0128 -0.4438
   25DOPE  H12A 3102   1.686   1.467  18.217  0.3465 -0.6012 -0.0111
   25DOPE  H12B 3103   1.642   1.440  18.390 -0.7456  1.6282  0.9617
   25DOPE   C11 3104   1.643   1.652  18.322 -0.1259  1.0372  0.4629
   25DOPE  H11A 3105   1.751   1.658  18.349  0.0944  0.8911 -0.3445
   25DOPE  H11B 3106   1.573   1.696  18.396 -0.9321 -0.1459  0.4337
   25DOPE     P 3107   1.717   1.826  18.141  0.0378 -0.1084  0.0942
   25DOPE   O13 3108   1.859   1.805  18.176  0.2832  0.4363 -0.4160
   25DOPE   O14 3109   1.662   1.957  18.182 -0.1568 -0.3736 -0.5320
   25DOPE   O11 3110   1.705   1.823  17.983  0.1548  0.2061  0.4080
   25DOPE   O12 3111   1.620   1.713  18.199 -0.4967 -0.0610 -0.3285
   25DOPE    C1 3112   1.707   1.704  17.898  0.3580  0.5748 -0.0373
   25DOPE    HA 3113   1.604   1.675  17.868  1.4580 -2.0328 -1.6981
   25DOPE    HB 3114   1.749   1.612  17.944  0.3940 -0.1470 -1.4354
   25DOPE    C2 3115   1.801   1.719  17.775  0.0212  0.0331  0.5233
   25DOPE    HS 3116   1.902   1.704  17.817 -0.5447 -1.1328  1.5318
   25DOPE   O21 3117   1.786   1.852  17.723  0.1813 -0.9402 -0.1059
   25DOPE   C21 3118   1.891   1.904  17.670 -0.4603 -0.5810  0.3013
   25DOPE   O22 3119   2.002   1.851  17.674 -0.5431 -0.0111 -0.3646
   25DOPE   C22 3120   1.868   2.041  17.612  0.0112 -0.4500 -0.1828
   25DOPE   H2R 3121   1.864   2.112  17.697  1.5606  0.4218 -0.8050
   25DOPE   H2S 3122   1.774   2.041  17.552 -0.2265  0.6587  0.1744
   25DOPE    C3 3123   1.785   1.606  17.663 -0.1887 -0.0947  0.0168
   25DOPE    HX 3124   1.683   1.612  17.620  0.5413  0.3806 -1.7514
   25DOPE    HY 3125   1.795   1.506  17.711  1.4526  0.2120  0.3717
   25DOPE   O31 3126   1.886   1.598  17.562  0.4706 -0.3644 -0.0918
   25DOPE   C31 3127   1.865   1.653  17.448 -0.3296  0.7505  0.1115
   25DOPE   O32 3128   1.764   1.715  17.412 -0.4827 -0.4379  0.0769
   25DOPE   C32 3129   1.985   1.629  17.354 -0.0500 -0.0037  0.3229
   25DOPE   H2X 3130   2.015   1.734  17.337  0.4047  0.1759  2.0450
   25DOPE   H2Y 3131   2.072   1.578  17.402 -0.2246 -0.9761 -0.3625
   25DOPE   C23 3132   1.985   2.100  17.524  0.5423  0.0529 -0.1770
   25DOPE   H3R 3133   2.086   2.089  17.569 -0.8543  0.5942  3.5164
   25DOPE   H3S 3134   1.969   2.208  17.507  0.9381 -0.2373 -2.6454
   25DOPE   C24 3135   1.991   2.043  17.380  0.0886  0.4667  0.5614
   25DOPE   H4R 3136   2.020   1.938  17.358  0.4409  0.3244  1.6134
   25DOPE   H4S 3137   2.071   2.108  17.341  2.5501 -1.7580  1.5781
   25DOPE   C25 3138   1.857   2.059  17.309  0.5988 -0.0617  0.0280
   25DOPE   H5R 3139   1.819   2.162  17.294 -1.3864 -0.6821  0.3558
   25DOPE   H5S 3140   1.776   1.990  17.343  0.8825 -1.4523 -1.8915
   25DOPE   C26 3141   1.865   2.007  17.164  0.3213  0.7112 -0.4966
   25DOPE   H6R 3142   1.762   2.012  17.123 -1.1344  0.8877  2.8719
   25DOPE   H6S 3143   1.884   1.898  17.171 -0.4974  0.6887  2.5837
   25DOPE   C27 3144   1.972   2.075  17.076 -0.0228  0.0950  0.1792
   25DOPE   H7R 3145   2.065   2.070  17.136 -0.0403 -1.7513  0.0984
   25DOPE   H7S 3146   1.939   2.181  17.062 -1.6990  0.0897  3.2118
   25DOPE   C28 3147   1.987   2.001  16.941 -0.2893  0.3248 -0.2230
   25DOPE   H8R 3148   2.030   2.069  16.865  0.9337 -0.2021 -0.0334
   25DOPE   H8S 3149   1.885   1.977  16.905 -0.3921  0.6845 -0.1633
   25DOPE   C29 3150   2.068   1.876  16.936 -0.2271  0.0470 -0.2722
   25DOPE   H9R 3151   2.069   1.821  17.031  0.3249  2.8157  1.4698
   25DOPE  C210 3152   2.150   1.835  16.839 -0.1928  0.4869  0.3939
   25DOPE  H10R 3153   2.209   1.744  16.857  2.2340  1.7004 -0.9187
   25DOPE  C211 3154   2.170   1.898  16.705 -0.7492 -0.5332 -0.8730
   25DOPE  H11R 3155   2.227   1.826  16.642 -0.8401  0.6649 -2.3658
   25DOPE  H11S 3156   2.240   1.984  16.699 -0.2272 -1.0265 -2.1926
   25DOPE  C212 3157   2.046   1.924  16.626 -0.5553 -0.5761  0.4272
   25DOPE  H12R 3158   1.975   1.994  16.674 -0.8499 -0.6082  0.0436
   25DOPE  H12S 3159   1.983   1.835  16.607 -1.5439  0.6378 -2.6362
   25DOPE  C213 3160   2.074   1.987  16.489 -0.3479  0.3922 -0.1357
   25DOPE  H13R 3161   2.123   1.905  16.433 -2.1320 -0.9610  0.1821
   25DOPE  H13S 3162   2.136   2.079  16.491 -0.4788  0.5249  3.0135
   25DOPE  C214 3163   1.941   2.027  16.415  0.0991  0.5612  0.2763
   25DOPE  H14R 3164   1.896   2.116  16.464 -2.0524  0.4594 -1.3476
   25DOPE  H14S 3165   1.866   1.945  16.419 -2.3174  2.6271  0.2952
   25DOPE  C215 3166   1.961   2.064  16.267 -0.1475  0.1496 -0.3597
   25DOPE  H15R 3167   2.015   2.161  16.257 -1.4790  1.0186  0.5020
   25DOPE  H15S 3168   1.860   2.084  16.226 -0.3141 -0.9030 -0.4831
   25DOPE  C216 3169   2.021   1.948  16.177  0.4342  0.2711 -0.2155
   25DOPE  H16R 3170   1.948   1.866  16.193  1.1611 -0.5394 -0.9727
   25DOPE  H16S 3171   2.118   1.918  16.222  0.1910 -2.3099 -1.2622
   25DOPE  C217 3172   2.033   1.984  16.028  0.3679 -0.3849  0.4525
   25DOPE  H17R 3173   2.108   2.065  16.019 -1.2661  1.1082 -0.1614
   25DOPE  H17S 3174   1.932   2.013  15.990 -0.4375 -2.5953  0.7573
   25DOPE  C218 3175   2.083   1.868  15.946 -0.0154 -0.4001  0.1467
   25DOPE  H18R 3176   2.112   1.895  15.842  0.2433 -1.0573  0.0406
   25DOPE  H18S 3177   2.013   1.785  15.922  0.4221 -0.1215 -2.3159
   25DOPE  H18T 3178   2.176   1.821  15.985  1.9838  1.4725 -2.0223
   25DOPE   C33 3179   1.955   1.574  17.218  0.2402  0.1260  0.4270
   25DOPE   H3X 3180   2.012   1.637  17.146 -3.0961  1.3160 -1.4219
   25DOPE   H3Y 3181   1.848   1.563  17.190  0.0117  3.1750 -0.2893
   25DOPE   C34 3182   2.016   1.436  17.201 -0.6133  0.2929 -0.3277
   25DOPE   H4X 3183   2.124   1.448  17.225 -1.0013 -0.7369  2.3518
   25DOPE   H4Y 3184   1.977   1.356  17.269  0.6151 -0.4488 -0.4546
   25DOPE   C35 3185   2.004   1.379  17.053  0.0364  0.4343 -0.2478
   25DOPE   H5X 3186   1.902   1.336  17.040  0.7276 -0.6400 -2.7158
   25DOPE   H5Y 3187   2.076   1.297  17.029  0.7834  1.5325 -1.9484
   25DOPE   C36 3188   2.018   1.481  16.942 -0.0186  0.1097  0.3106
   25DOPE   H6X 3189   2.113   1.537  16.953  0.9844 -1.6580  1.0282
   25DOPE   H6Y 3190   1.936   1.555  16.953 -1.4723 -1.6096  1.8583
   25DOPE   C37 3191   1.999   1.422  16.796 -0.2707  0.4451  0.8516
   25DOPE   H7X 3192   2.084   1.355  16.769  1.6576  3.1142 -0.1115
   25DOPE   H7Y 3193   1.911   1.354  16.794  1.0461 -1.4492  2.9144
   25DOPE   C38 3194   1.976   1.519  16.678  0.3484 -0.6808 -0.1471
   25DOPE   H8X 3195   2.070   1.574  16.657 -0.3532  1.1869  1.3207
   25DOPE   H8Y 3196   1.905   1.602  16.700  0.8566 -0.0568 -0.8141
   25DOPE   C39 3197   1.925   1.434  16.569 -0.3036  0.4059 -0.3724
   25DOPE   H9X 3198   1.841   1.373  16.603  0.4882 -0.9855 -0.8440
   25DOPE  C310 3199   1.960   1.428  16.440 -0.1420  0.3179 -0.4754
   25DOPE  H10X 3200   1.925   1.352  16.368  2.5093 -0.6958 -0.8170
   25DOPE  C311 3201   2.063   1.510  16.372 -0.3585 -0.0252 -0.6583
   25DOPE  H11X 3202   2.127   1.556  16.450 -1.5729  0.3414  0.1533
   25DOPE  H11Y 3203   2.131   1.438  16.322 -1.3900 -0.9858 -0.7307
   25DOPE  C312 3204   2.010   1.605  16.267 -0.0054  0.4330 -0.4063
   25DOPE  H12X 3205   2.097   1.660  16.227  0.4505  0.2489  0.3118
   25DOPE  H12Y 3206   1.938   1.678  16.311 -1.8854 -1.5740  0.0705
   25DOPE  C313 3207   1.935   1.541  16.150 -0.0881 -0.3068  0.5600
   25DOPE  H13X 3208   1.849   1.478  16.180 -0.8345  1.0134  1.2454
   25DOPE  H13Y 3209   1.892   1.622  16.088  1.6611 -1.0167 -1.7252
   25DOPE  C314 3210   2.019   1.462  16.059  0.0903 -0.4564  0.3072
   25DOPE  H14X 3211   2.074   1.375  16.100  1.1997  1.0951  2.3030
   25DOPE  H14Y 3212   2.101   1.526  16.020 -1.3102  1.0267 -0.3360
   25DOPE  C315 3213   1.930   1.420  15.942  0.2537  0.9643  0.5441
   25DOPE  H15X 3214   1.839   1.483  15.945 -1.0185 -0.5534 -2.1099
   25DOPE  H15Y 3215   1.895   1.316  15.957  0.8091  0.6867 -0.0366
   25DOPE  C316 3216   1.979   1.434  15.799 -0.8815  0.4756  0.4480
   25DOPE  H16X 3217   2.079   1.386  15.798 -1.0873 -0.1234  2.8559
   25DOPE  H16Y 3218   1.995   1.544  15.793  2.8233 -0.0284 -0.8265
   25DOPE  C317 3219   1.889   1.379  15.692 -0.1668  0.7729 -0.3423
   25DOPE  H17X 3220   1.783   1.393  15.724  0.7067  1.6591  2.4182
   25DOPE  H17Y 3221   1.916   1.424  15.594  1.5039 -0.4488 -0.4752
   25DOPE  C318 3222   1.901   1.230  15.666 -0.2136 -0.1628 -0.8653
   25DOPE  H18X 3223   2.000   1.214  15.618  0.5341 -1.1704  0.9110
   25DOPE  H18Y 3224   1.908   1.173  15.761  0.8687 -0.0128 -0.8379
   25DOPE  H18Z 3225   1.821   1.185  15.603 -0.7067  0.1894 -0.4904
   26DOPE     N 3226   2.584   2.679  18.063  0.1191 -0.1286 -1.0903
   26DOPE   HN1 3227   2.655   2.750  18.088  1.6767 -1.7080 -0.7722
   26DOPE   HN2 3228   2.514   2.680  18.139  0.9725 -1.0503 -0.2548
   26DOPE   HN3 3229   2.642   2.593  18.072  1.9335  1.2130  0.6255
   26DOPE   C12 3230   2.531   2.698  17.925  0.2184  0.3177 -0.2607
   26DOPE  H12A 3231   2.600   2.658  17.848 -0.3377  1.2352 -1.2639
   26DOPE  H12B 3232   2.518   2.807  17.908  2.5189  0.9990  1.8618
   26DOPE   C11 3233   2.394   2.633  17.920 -0.4510  0.0650  0.6043
   26DOPE  H11A 3234   2.373   2.621  17.811 -0.3782 -5.1219  0.9074
   26DOPE  H11B 3235   2.323   2.700  17.972 -0.0303 -1.1496  2.9117
   26DOPE     P 3236   2.231   2.437  17.971 -0.4215 -0.1959  0.2021
   26DOPE   O13 3237   2.133   2.516  18.047 -0.3950 -0.1233 -0.8514
   26DOPE   O14 3238   2.245   2.296  18.001  0.2740  0.4149 -0.5967
   26DOPE   O11 3239   2.195   2.450  17.813  0.3331 -0.4500  0.3710
   26DOPE   O12 3240   2.384   2.504  17.978 -0.3091 -0.1336  0.5128
   26DOPE    C1 3241   2.262   2.358  17.727 -0.4356 -0.4064 -0.8439
   26DOPE    HA 3242   2.194   2.271  17.717 -0.3283 -0.5452 -0.3943
   26DOPE    HB 3243   2.362   2.327  17.764 -0.2719  2.6367  1.6897
   26DOPE    C2 3244   2.276   2.411  17.579  0.1062  0.0704  0.1064
   26DOPE    HS 3245   2.335   2.506  17.578 -0.3769  0.3706 -0.6653
   26DOPE   O21 3246   2.138   2.421  17.538  0.1054  0.2448 -0.0854
   26DOPE   C21 3247   2.119   2.523  17.450  0.0097  0.2719 -0.1612
   26DOPE   O22 3248   2.199   2.608  17.425 -0.3601 -0.6508  0.1503
   26DOPE   C22 3249   1.972   2.522  17.402  0.0722 -0.3639 -0.6859
   26DOPE   H2R 3250   1.902   2.550  17.484 -0.0633 -0.2149 -0.8521
   26DOPE   H2S 3251   1.944   2.421  17.367  0.4201  0.1965 -2.7423
   26DOPE    C3 3252   2.362   2.308  17.496 -0.0534  0.6037 -0.5508
   26DOPE    HX 3253   2.305   2.215  17.476  1.3211 -0.1867 -0.9111
   26DOPE    HY 3254   2.448   2.266  17.551 -0.3585  0.7187  0.0219
   26DOPE   O31 3255   2.402   2.364  17.372 -0.6695  0.0765  0.8311
   26DOPE   C31 3256   2.505   2.445  17.376  0.5539 -0.4550  0.4699
   26DOPE   O32 3257   2.576   2.475  17.471  0.2779  0.5491 -0.2274
   26DOPE   C32 3258   2.527   2.480  17.234  0.3700 -0.1277 -0.1537
   26DOPE   H2X 3259   2.637   2.470  17.230  0.1499 -2.8661 -1.8535
   26DOPE   H2Y 3260   2.469   2.416  17.164  0.8665  0.2800 -0.9394
   26DOPE   C23 3261   1.950   2.619  17.288  0.1400  0.3921 -0.1753
   26DOPE   H3R 3262   1.974   2.721  17.327 -1.4969  0.8599 -0.3132
   26DOPE   H3S 3263   1.840   2.636  17.278  0.1265  2.1479  2.0845
   26DOPE   C24 3264   2.026   2.589  17.153 -0.1418  0.0183 -0.9024
   26DOPE   H4R 3265   2.134   2.574  17.173 -0.5990 -2.9949 -0.0768
   26DOPE   H4S 3266   2.011   2.677  17.087 -1.4498  0.9188  0.5505
   26DOPE   C25 3267   1.981   2.464  17.085  0.8119 -0.6064  0.0224
   26DOPE   H5R 3268   1.879   2.482  17.044  0.0407  1.0722  2.4301
   26DOPE   H5S 3269   1.975   2.382  17.160  1.1753  0.7449  1.6010
   26DOPE   C26 3270   2.068   2.425  16.970  0.1972  0.2318 -0.0109
   26DOPE   H6R 3271   2.036   2.326  16.933 -0.0145  0.8905 -1.6664
   26DOPE   H6S 3272   2.174   2.413  17.001  0.2590  0.2430 -0.2174
   26DOPE   C27 3273   2.068   2.518  16.848  0.1573  0.5696 -0.4741
   26DOPE   H7R 3274   2.105   2.618  16.880  2.0947 -0.1608 -0.2508
   26DOPE   H7S 3275   1.960   2.531  16.826 -0.7586 -2.6272  1.3680
   26DOPE   C28 3276   2.160   2.480  16.730  0.3619 -0.2141 -0.3756
   26DOPE   H8R 3277   2.264   2.455  16.761  0.9786  1.6696 -0.8311
   26DOPE   H8S 3278   2.175   2.567  16.663  2.2585 -1.5254 -1.7388
   26DOPE   C29 3279   2.097   2.365  16.649 -0.5580  0.2455 -0.7729
   26DOPE   H9R 3280   2.128   2.262  16.674  0.6798  0.8002  0.0995
   26DOPE  C210 3281   2.034   2.389  16.533  0.9463 -0.1323 -0.1504
   26DOPE  H10R 3282   1.996   2.308  16.469 -0.0641 -0.0923  0.3825
   26DOPE  C211 3283   2.004   2.522  16.467 -0.6663 -0.1105  0.3526
   26DOPE  H11R 3284   2.009   2.598  16.548  0.7382 -2.6402  2.8124
   26DOPE  H11S 3285   1.904   2.526  16.420 -0.4127 -1.6923 -0.3998
   26DOPE  C212 3286   2.104   2.564  16.355  0.5453  0.0689 -0.5385
   26DOPE  H12R 3287   2.204   2.528  16.389  0.3447 -1.1745 -1.1891
   26DOPE  H12S 3288   2.119   2.673  16.346 -0.3000  0.5095  2.5417
   26DOPE  C213 3289   2.063   2.510  16.219 -0.5903  0.4719 -0.7001
   26DOPE  H13R 3290   1.982   2.577  16.183 -2.4010 -1.4352 -0.3158
   26DOPE  H13S 3291   2.026   2.406  16.230  2.1950 -0.8267 -2.4432
   26DOPE  C214 3292   2.178   2.506  16.121 -0.9606  0.8313 -0.0329
   26DOPE  H14R 3293   2.225   2.406  16.111  2.1066  2.1194  0.4735
   26DOPE  H14S 3294   2.256   2.574  16.162  0.1156 -1.3613  1.8140
   26DOPE  C215 3295   2.147   2.553  15.978 -0.2696  0.2117  0.1445
   26DOPE  H15R 3296   2.245   2.578  15.931  1.9427 -0.9184  3.7852
   26DOPE  H15S 3297   2.096   2.650  15.993 -2.2268 -0.3881 -2.0677
   26DOPE  C216 3298   2.069   2.447  15.893  0.3443 -0.1226  0.2499
   26DOPE  H16R 3299   1.989   2.414  15.963 -0.9891  1.9295 -0.2258
   26DOPE  H16S 3300   2.131   2.356  15.875 -0.6821 -1.1511  1.6717
   26DOPE  C217 3301   2.015   2.487  15.750  0.1290 -0.1517 -0.2265
   26DOPE  H17R 3302   1.936   2.421  15.709  2.4694 -0.9473 -3.9937
   26DOPE  H17S 3303   2.098   2.483  15.676 -0.9578 -0.8911 -1.4489
   26DOPE  C218 3304   1.961   2.627  15.762 -0.3468 -0.3775  0.2657
   26DOPE  H18R 3305   1.871   2.638  15.827 -1.1486  0.4422 -0.9346
   26DOPE  H18S 3306   1.941   2.662  15.659  0.8004 -3.3863 -1.1069
   26DOPE  H18T 3307   2.041   2.693  15.801  1.4154 -1.6606 -1.0434
   26DOPE   C33 3308   2.495   2.630  17.210  0.1880 -0.2877 -0.8984
   26DOPE   H3X 3309   2.542   2.695  17.286 -0.0840  0.3747 -1.2920
   26DOPE   H3Y 3310   2.385   2.646  17.207  0.2039 -0.0411 -0.3021
   26DOPE   C34 3311   2.536   2.706  17.081  0.1960  0.7613  0.2431
   26DOPE   H4X 3312   2.508   2.813  17.070  0.2013  0.8740  1.2401
   26DOPE   H4Y 3313   2.647   2.709  17.078  0.2343  1.2915  1.5110
   26DOPE   C35 3314   2.489   2.642  16.951 -0.5555 -0.8399 -0.2556
   26DOPE   H5X 3315   2.385   2.677  16.934  0.3917  1.6907 -1.2385
   26DOPE   H5Y 3316   2.512   2.533  16.950  1.7814 -0.4360  1.5549
   26DOPE   C36 3317   2.572   2.711  16.833  0.4137 -0.1532  0.8305
   26DOPE   H6X 3318   2.679   2.699  16.859  0.2469 -0.7500  1.2614
   26DOPE   H6Y 3319   2.547   2.819  16.830  2.2344  0.2709 -0.7013
   26DOPE   C37 3320   2.551   2.640  16.697  0.5155  0.3902  0.3650
   26DOPE   H7X 3321   2.574   2.532  16.708  0.7656  0.6945  3.9973
   26DOPE   H7Y 3322   2.441   2.635  16.686  0.3184 -1.3224  2.5224
   26DOPE   C38 3323   2.615   2.716  16.580  0.0224  0.7512  0.3051
   26DOPE   H8X 3324   2.638   2.649  16.495 -0.4682  1.9412 -0.7864
   26DOPE   H8Y 3325   2.720   2.743  16.604  0.4990  1.6803 -2.4861
   26DOPE   C39 3326   2.526   2.828  16.539  0.1889 -0.1305  0.8646
   26DOPE   H9X 3327   2.504   2.905  16.614 -0.4127 -0.0108  0.5687
   26DOPE  C310 3328   2.466   2.840  16.418 -0.3306  0.6599 -0.2900
   26DOPE  H10X 3329   2.409   2.933  16.404 -2.7938 -0.2568  2.5437
   26DOPE  C311 3330   2.444   2.731  16.312  0.2898 -0.7304 -0.4424
   26DOPE  H11X 3331   2.457   2.631  16.359  2.3670 -0.4096 -0.2273
   26DOPE  H11Y 3332   2.337   2.745  16.285  0.2366  2.4433  0.9531
   26DOPE  C312 3333   2.537   2.754  16.194  0.0754  0.1885  0.4715
   26DOPE  H12X 3334   2.641   2.729  16.223  0.1078  0.7589  0.8585
   26DOPE  H12Y 3335   2.536   2.861  16.164  1.5344  0.4263  1.1504
   26DOPE  C313 3336   2.501   2.674  16.073  0.3490 -0.0797 -0.0110
   26DOPE  H13X 3337   2.484   2.569  16.105 -2.0946 -0.0108 -0.8987
   26DOPE  H13Y 3338   2.400   2.708  16.041  0.4831 -0.1474 -0.5095
   26DOPE  C314 3339   2.590   2.672  15.952 -0.4177  0.0282 -0.0404
   26DOPE  H14X 3340   2.566   2.586  15.886  3.0133 -1.6631  0.6874
   26DOPE  H14Y 3341   2.699   2.655  15.964 -0.1429  1.7623  0.2627
   26DOPE  C315 3342   2.578   2.806  15.872  0.1948 -0.0802 -0.1464
   26DOPE  H15X 3343   2.620   2.887  15.936 -0.7251  1.5672 -1.5391
   26DOPE  H15Y 3344   2.471   2.815  15.847 -0.1577 -1.0758  0.9004
   26DOPE  C316 3345   2.658   2.800  15.743  0.2767  0.5533  0.5951
   26DOPE  H16X 3346   2.767   2.793  15.763  0.3371 -1.7095 -0.2292
   26DOPE  H16Y 3347   2.635   2.895  15.690 -1.2478 -1.0371 -1.7704
   26DOPE  C317 3348   2.624   2.685  15.647 -0.4549 -0.5990  0.0887
   26DOPE  H17X 3349   2.680   2.595  15.679  1.4700  0.0777 -1.1587
   26DOPE  H17Y 3350   2.514   2.673  15.656 -0.3779 -0.6659  1.0434
   26DOPE  C318 3351   2.665   2.716  15.506  0.2122 -0.3081  0.3084
   26DOPE  H18X 3352   2.760   2.774  15.496  1.3506 -2.3060 -1.5214
   26DOPE  H18Y 3353   2.666   2.625  15.441  0.2048  0.1465 -0.3384
   26DOPE  H18Z 3354   2.592   2.784  15.458  1.0028  1.1073  1.0695
   27DOPE     N 3355   5.737   4.539  18.235  0.0957  0.6358 -0.1426
   27DOPE   HN1 3356   5.777   4.478  18.161  1.7860 -1.0744  2.0666
   27DOPE   HN2 3357   5.644   4.496  18.251  0.3432  0.6229  1.4243
   27DOPE   HN3 3358   5.726   4.638  18.203 -0.0625  1.0721  1.1961
   27DOPE   C12 3359   5.819   4.531  18.356 -0.7750 -0.5285 -0.3313
   27DOPE  H12A 3360   5.838   4.427  18.390  0.0597 -1.3396 -3.0069
   27DOPE  H12B 3361   5.764   4.583  18.437  1.5395  1.5262  0.0323
   27DOPE   C11 3362   5.943   4.606  18.316 -0.1751 -0.3743 -0.4845
   27DOPE  H11A 3363   6.012   4.601  18.403 -0.1587 -1.2280 -0.5304
   27DOPE  H11B 3364   5.920   4.712  18.295 -0.7955 -0.4927 -0.4225
   27DOPE     P 3365   6.145   4.520  18.158  0.1284 -0.8526 -0.3770
   27DOPE   O13 3366   6.155   4.378  18.116  0.0828 -0.2431 -0.2514
   27DOPE   O14 3367   6.238   4.567  18.266  0.0245  0.3015  0.4657
   27DOPE   O11 3368   6.155   4.612  18.028  0.4747 -0.3760 -0.6487
   27DOPE   O12 3369   6.002   4.540  18.207  0.3863 -0.5630 -0.0338
   27DOPE    C1 3370   6.053   4.613  17.929  0.4086  0.3816 -0.6440
   27DOPE    HA 3371   6.061   4.709  17.875  3.3996  0.4158 -0.2771
   27DOPE    HB 3372   5.957   4.614  17.985 -0.1126  0.2155 -1.5173
   27DOPE    C2 3373   6.050   4.501  17.829  0.1575  0.5962 -0.4062
   27DOPE    HS 3374   6.024   4.413  17.892  1.0976  1.1165  0.7492
   27DOPE   O21 3375   6.181   4.508  17.763  0.7876 -0.1050 -0.1210
   27DOPE   C21 3376   6.209   4.388  17.691  0.4733 -0.3279 -0.6502
   27DOPE   O22 3377   6.132   4.294  17.686 -0.4342 -0.1578 -0.1061
   27DOPE   C22 3378   6.337   4.405  17.606  0.5138 -0.3711 -0.0455
   27DOPE   H2R 3379   6.423   4.341  17.636  1.3122 -0.4321 -2.2790
   27DOPE   H2S 3380   6.379   4.508  17.619  1.3418 -0.5699 -0.9707
   27DOPE    C3 3381   5.929   4.515  17.737  0.1821 -0.0512  0.0832
   27DOPE    HX 3382   5.835   4.487  17.788 -1.1706  1.4009 -1.4877
   27DOPE    HY 3383   5.940   4.448  17.649 -2.2654 -0.0664 -0.2879
   27DOPE   O31 3384   5.913   4.650  17.696 -0.5143  0.0653  0.9829
   27DOPE   C31 3385   5.813   4.678  17.601  0.3340 -0.2214 -0.1719
   27DOPE   O32 3386   5.732   4.595  17.568  0.0602 -0.1419  0.6707
   27DOPE   C32 3387   5.830   4.822  17.554  0.2180  0.0883  0.1878
   27DOPE   H2X 3388   5.764   4.880  17.623  0.8058  2.1094 -0.8718
   27DOPE   H2Y 3389   5.930   4.868  17.572  0.3169 -0.4280  1.0065
   27DOPE   C23 3390   6.305   4.372  17.458  0.1292 -1.0630  0.0845
   27DOPE   H3R 3391   6.272   4.465  17.406  2.7627 -0.4887 -0.7001
   27DOPE   H3S 3392   6.220   4.302  17.441  0.7547 -1.7566 -0.2418
   27DOPE   C24 3393   6.417   4.294  17.388 -0.3764  0.6319 -0.1143
   27DOPE   H4R 3394   6.446   4.201  17.442  0.0269 -0.0667 -1.4579
   27DOPE   H4S 3395   6.505   4.356  17.361 -0.1549 -0.5731 -2.4923
   27DOPE   C25 3396   6.372   4.258  17.247  0.5962 -0.6956 -0.8096
   27DOPE   H5R 3397   6.331   4.353  17.207 -0.7766 -0.5677  0.8153
   27DOPE   H5S 3398   6.286   4.188  17.250  0.7742 -0.8880  1.7760
   27DOPE   C26 3399   6.480   4.203  17.156 -0.1003  0.3728 -0.7638
   27DOPE   H6R 3400   6.503   4.100  17.191  0.2984  0.6277 -0.2632
   27DOPE   H6S 3401   6.581   4.249  17.157  0.6059 -1.0931  0.6838
   27DOPE   C27 3402   6.435   4.205  17.009 -0.5928 -0.1057  0.1737
   27DOPE   H7R 3403   6.426   4.313  16.987 -1.5900  0.4314  2.8254
   27DOPE   H7S 3404   6.338   4.154  16.992 -0.1128 -1.1024  0.2907
   27DOPE   C28 3405   6.541   4.140  16.919  0.3336 -0.1933  0.4214
   27DOPE   H8R 3406   6.593   4.059  16.976  0.4615 -0.4232 -0.0189
   27DOPE   H8S 3407   6.625   4.213  16.916 -0.5258  0.8730  1.2551
   27DOPE   C29 3408   6.495   4.075  16.795 -0.5906 -0.5436  0.9996
   27DOPE   H9R 3409   6.479   3.966  16.801  0.3667 -0.7837 -0.3930
   27DOPE  C210 3410   6.476   4.143  16.679  0.7374  0.4385  0.5234
   27DOPE  H10R 3411   6.460   4.069  16.600  3.3091 -0.1773  0.5012
   27DOPE  C211 3412   6.492   4.290  16.640 -0.8180  0.0108  0.3077
   27DOPE  H11R 3413   6.521   4.360  16.721 -2.2374  2.4859 -1.1775
   27DOPE  H11S 3414   6.394   4.332  16.610 -0.4668  2.0715  1.8431
   27DOPE  C212 3415   6.593   4.303  16.523 -0.2487 -0.1267  0.2933
   27DOPE  H12R 3416   6.673   4.226  16.521  0.6295  0.7836 -0.2169
   27DOPE  H12S 3417   6.642   4.402  16.528 -1.2138  0.4538 -1.1506
   27DOPE  C213 3418   6.532   4.288  16.383 -0.0683 -0.1267 -0.6661
   27DOPE  H13R 3419   6.456   4.369  16.386  0.6039  0.4962  1.7573
   27DOPE  H13S 3420   6.483   4.190  16.362 -0.7643  0.4546 -1.8737
   27DOPE  C214 3421   6.633   4.325  16.274  0.3363 -0.6540 -0.7972
   27DOPE  H14R 3422   6.704   4.241  16.266 -0.3971 -1.3290 -0.3709
   27DOPE  H14S 3423   6.691   4.415  16.307 -0.1903 -0.1503 -1.2210
   27DOPE  C215 3424   6.563   4.361  16.139 -0.2085  0.2395  0.1617
   27DOPE  H15R 3425   6.506   4.454  16.158 -1.4482 -0.5649  0.4724
   27DOPE  H15S 3426   6.490   4.279  16.124 -1.3464  0.9809  1.4185
   27DOPE  C216 3427   6.654   4.371  16.010  0.8985 -0.3626  0.3372
   27DOPE  H16R 3428   6.596   4.365  15.916 -3.0254 -0.5357  2.5487
   27DOPE  H16S 3429   6.733   4.293  16.008  0.3023 -0.9970  0.8641
   27DOPE  C217 3430   6.726   4.506  15.986  0.0736  0.3692 -0.0930
   27DOPE  H17R 3431   6.783   4.532  16.078  0.0282  1.0582 -0.2586
   27DOPE  H17S 3432   6.652   4.586  15.967  1.1867  1.0884 -1.6195
   27DOPE  C218 3433   6.823   4.501  15.861  0.1400 -0.2750 -0.3903
   27DOPE  H18R 3434   6.772   4.458  15.772  2.9593 -1.5972 -1.4661
   27DOPE  H18S 3435   6.897   4.420  15.877 -0.0237 -0.4602 -0.5527
   27DOPE  H18T 3436   6.876   4.596  15.842  1.1478 -0.8274 -0.4176
   27DOPE   C33 3437   5.781   4.852  17.405  0.2375 -0.1059  0.7060
   27DOPE   H3X 3438   5.768   4.961  17.389  1.1686 -0.0773  0.0845
   27DOPE   H3Y 3439   5.682   4.804  17.393 -1.4342  2.9039  1.4199
   27DOPE   C34 3440   5.895   4.826  17.304  0.2597 -0.1958  0.7395
   27DOPE   H4X 3441   5.979   4.885  17.347 -0.4214 -0.3974  2.4117
   27DOPE   H4Y 3442   5.921   4.719  17.311 -2.9590 -1.0428  1.2788
   27DOPE   C35 3443   5.871   4.879  17.161 -0.6775  0.2934  0.0203
   27DOPE   H5X 3444   5.837   4.985  17.165  0.8138  0.8095 -0.4005
   27DOPE   H5Y 3445   5.795   4.823  17.102  1.9784 -2.1454 -1.3544
   27DOPE   C36 3446   6.004   4.872  17.087 -0.6583  0.4563 -0.3840
   27DOPE   H6X 3447   6.027   4.767  17.058  1.7789  0.9436 -0.4601
   27DOPE   H6Y 3448   6.081   4.911  17.157 -1.1473  0.6282  0.0590
   27DOPE   C37 3449   6.010   4.965  16.955 -0.0325  0.8166  0.1277
   27DOPE   H7X 3450   5.974   5.067  16.982 -1.3065  0.1898  0.8558
   27DOPE   H7Y 3451   6.119   4.973  16.933 -0.4078  1.2300 -1.7998
   27DOPE   C38 3452   5.928   4.898  16.846  0.6907  0.1309 -0.2358
   27DOPE   H8X 3453   5.876   4.978  16.788 -3.3305 -1.9783  0.0657
   27DOPE   H8Y 3454   5.851   4.829  16.887  0.6396 -0.3693 -1.1708
   27DOPE   C39 3455   6.020   4.809  16.773  0.4883 -0.2603  0.0979
   27DOPE   H9X 3456   6.091   4.763  16.843  0.4683 -1.7072 -0.8113
   27DOPE  C310 3457   6.040   4.784  16.639  0.1042 -0.3553  0.0625
   27DOPE  H10X 3458   6.132   4.738  16.601  1.0922  1.1141  0.5720
   27DOPE  C311 3459   5.941   4.838  16.532  0.2625  0.6722 -0.4987
   27DOPE  H11X 3460   5.914   4.763  16.455 -2.2197  0.8422  0.1128
   27DOPE  H11Y 3461   5.848   4.884  16.573 -0.9079 -0.6997 -1.5156
   27DOPE  C312 3462   6.017   4.947  16.462  0.9772  0.2935  0.6669
   27DOPE  H12X 3463   6.124   4.919  16.466  0.5317 -1.5105  1.0590
   27DOPE  H12Y 3464   6.007   5.038  16.524  0.5896  0.4679  0.3532
   27DOPE  C313 3465   5.975   4.965  16.315 -0.6448  1.0416 -0.1602
   27DOPE  H13X 3466   5.879   5.020  16.316 -0.6594  1.1503  3.4172
   27DOPE  H13Y 3467   6.053   5.027  16.265 -1.2975  0.6352 -1.7548
   27DOPE  C314 3468   5.963   4.834  16.233  0.0949  0.2788 -0.0253
   27DOPE  H14X 3469   5.880   4.769  16.267  1.4473 -2.3324 -1.4172
   27DOPE  H14Y 3470   6.060   4.782  16.251  0.1892  0.9521  1.5615
   27DOPE  C315 3471   5.946   4.869  16.085 -0.4316  0.5602  0.6266
   27DOPE  H15X 3472   5.958   4.775  16.028 -1.8618 -0.2052  1.5433
   27DOPE  H15Y 3473   6.027   4.937  16.050  1.7559 -0.8082  2.6928
   27DOPE  C316 3474   5.815   4.949  16.052 -0.1245 -0.4889 -0.7496
   27DOPE  H16X 3475   5.769   4.985  16.147  1.3990 -2.0225  0.6681
   27DOPE  H16Y 3476   5.744   4.878  16.005 -0.4402 -0.1530 -0.7832
   27DOPE  C317 3477   5.820   5.070  15.959 -0.1521 -0.4124  0.1600
   27DOPE  H17X 3478   5.900   5.135  15.998  0.1613 -1.8256  1.9732
   27DOPE  H17Y 3479   5.838   5.044  15.852  0.3999 -1.0289  0.3970
   27DOPE  C318 3480   5.683   5.152  15.950  0.0075 -0.2472  0.1921
   27DOPE  H18X 3481   5.686   5.237  15.879 -0.4159  0.7263  1.3101
   27DOPE  H18Y 3482   5.603   5.081  15.919  1.6078 -1.8677 -0.3880
   27DOPE  H18Z 3483   5.660   5.197  16.048 -0.0061  1.3121 -0.5047
   28DOPE     N 3484   2.517   3.670  17.597 -0.5782  0.4558 -0.4234
   28DOPE   HN1 3485   2.581   3.594  17.567  1.8950  2.2283  0.0581
   28DOPE   HN2 3486   2.565   3.762  17.585 -0.0206  0.3601  0.8447
   28DOPE   HN3 3487   2.492   3.645  17.695 -0.9800 -0.6586 -0.7900
   28DOPE   C12 3488   2.395   3.658  17.520  0.3599  0.8830 -0.0328
   28DOPE  H12A 3489   2.413   3.624  17.416 -3.6614 -0.0654 -0.6125
   28DOPE  H12B 3490   2.349   3.759  17.511 -0.5324  0.5384  0.4737
   28DOPE   C11 3491   2.297   3.552  17.580 -0.4998 -0.0602  0.5275
   28DOPE  H11A 3492   2.203   3.549  17.522 -0.1746  0.7287 -0.0603
   28DOPE  H11B 3493   2.281   3.595  17.681  0.2678  2.6820 -0.3988
   28DOPE     P 3494   2.346   3.316  17.699  0.2174  0.0178  0.0889
   28DOPE   O13 3495   2.401   3.383  17.815  0.1982  0.0011 -0.0520
   28DOPE   O14 3496   2.414   3.191  17.665  0.0142  0.1346  0.4337
   28DOPE   O11 3497   2.185   3.291  17.715  0.1010 -0.1307 -0.1687
   28DOPE   O12 3498   2.356   3.426  17.578  0.6008  0.7413 -0.0363
   28DOPE    C1 3499   2.119   3.183  17.637 -0.0413 -0.0051 -0.1962
   28DOPE    HA 3500   2.013   3.188  17.673 -0.4959  3.0611 -1.6406
   28DOPE    HB 3501   2.152   3.080  17.664 -0.0119  0.1099  0.2122
   28DOPE    C2 3502   2.106   3.205  17.491 -0.0052  0.8028  0.6392
   28DOPE    HS 3503   2.211   3.221  17.458  0.5915 -0.2638  1.8962
   28DOPE   O21 3504   2.025   3.325  17.458 -0.6669  0.3278 -0.7755
   28DOPE   C21 3505   1.898   3.322  17.460 -0.0164  0.1723  0.4890
   28DOPE   O22 3506   1.831   3.232  17.512 -0.4663 -0.3317  0.1856
   28DOPE   C22 3507   1.830   3.444  17.396  0.5026 -0.3360 -0.2061
   28DOPE   H2R 3508   1.903   3.505  17.339  1.6837 -0.7883  0.7867
   28DOPE   H2S 3509   1.782   3.509  17.473 -0.3469  0.1424 -1.1113
   28DOPE    C3 3510   2.065   3.076  17.418 -0.7965  0.0310  0.2638
   28DOPE    HX 3511   1.963   3.049  17.451 -0.8622  2.1734  2.0765
   28DOPE    HY 3512   2.136   2.996  17.446  1.1193  1.3786 -0.4455
   28DOPE   O31 3513   2.060   3.091  17.272 -0.4175  0.2144  0.0242
   28DOPE   C31 3514   2.161   3.056  17.199  0.6598  0.2654  0.0782
   28DOPE   O32 3515   2.268   3.013  17.248  0.1063 -1.0085  0.7582
   28DOPE   C32 3516   2.134   3.081  17.052  0.1150  0.3884 -0.1607
   28DOPE   H2X 3517   2.041   3.029  17.020 -0.8459  1.2822  1.1104
   28DOPE   H2Y 3518   2.125   3.190  17.035 -2.4106  0.4039  0.9229
   28DOPE   C23 3519   1.727   3.407  17.283 -0.0416 -0.1653  0.2460
   28DOPE   H3R 3520   1.686   3.507  17.258 -0.9273  0.0754  2.4507
   28DOPE   H3S 3521   1.639   3.347  17.313 -0.5901  1.0100  1.0458
   28DOPE   C24 3522   1.801   3.358  17.164  0.3601 -0.1392  0.5202
   28DOPE   H4R 3523   1.828   3.252  17.184 -2.1358 -0.8497  0.4396
   28DOPE   H4S 3524   1.892   3.419  17.144 -0.0036  0.0757 -0.5000
   28DOPE   C25 3525   1.715   3.351  17.033  0.0819 -0.0601  0.4948
   28DOPE   H5R 3526   1.673   3.454  17.019  1.1572  0.2174 -0.9036
   28DOPE   H5S 3527   1.630   3.282  17.052  0.5987 -1.3102 -1.5069
   28DOPE   C26 3528   1.796   3.311  16.907 -0.0694  0.3768  0.4115
   28DOPE   H6R 3529   1.848   3.212  16.914  1.4318  1.2291  2.2491
   28DOPE   H6S 3530   1.881   3.382  16.903  3.1401 -3.1842 -1.1325
   28DOPE   C27 3531   1.720   3.301  16.775 -0.2067 -0.0304 -0.0749
   28DOPE   H7R 3532   1.663   3.396  16.772 -0.0682  0.0660  0.3083
   28DOPE   H7S 3533   1.644   3.220  16.786  0.9326 -0.9758  1.1449
   28DOPE   C28 3534   1.791   3.267  16.644  0.2942 -0.8124  0.1484
   28DOPE   H8R 3535   1.848   3.172  16.653 -0.0995 -1.4288 -2.9575
   28DOPE   H8S 3536   1.860   3.348  16.614  0.6115 -0.9199  0.5786
   28DOPE   C29 3537   1.697   3.241  16.532 -0.4343 -0.0857 -0.3157
   28DOPE   H9R 3538   1.625   3.160  16.553  0.1646 -1.0044 -1.6476
   28DOPE  C210 3539   1.683   3.299  16.410 -0.4066 -0.3040 -0.2810
   28DOPE  H10R 3540   1.605   3.265  16.342 -1.4157 -0.5078  0.9362
   28DOPE  C211 3541   1.777   3.412  16.358  0.4437  0.3202 -0.6497
   28DOPE  H11R 3542   1.848   3.447  16.436  0.2967 -0.9069  0.0567
   28DOPE  H11S 3543   1.719   3.504  16.333  2.0984  1.8422  0.8677
   28DOPE  C212 3544   1.866   3.374  16.241 -0.3123  0.2656 -0.2609
   28DOPE  H12R 3545   1.923   3.285  16.275 -0.9782 -0.6065 -1.3605
   28DOPE  H12S 3546   1.942   3.453  16.222 -1.2645  1.5626  1.1188
   28DOPE  C213 3547   1.779   3.352  16.121 -0.3812  0.2659  0.1659
   28DOPE  H13R 3548   1.687   3.413  16.135  0.5010  1.7487 -0.2672
   28DOPE  H13S 3549   1.757   3.243  16.128 -0.1703  0.2623  0.8563
   28DOPE  C214 3550   1.848   3.373  15.991  0.4946  0.1035  0.5032
   28DOPE  H14R 3551   1.923   3.291  15.986 -0.6643 -1.0127  0.9483
   28DOPE  H14S 3552   1.905   3.468  15.994  0.7081 -0.0572  2.0832
   28DOPE  C215 3553   1.765   3.356  15.862 -0.5863  0.1006 -0.1940
   28DOPE  H15R 3554   1.676   3.423  15.870 -0.1269  0.8216 -0.9085
   28DOPE  H15S 3555   1.720   3.254  15.863 -0.0760 -0.1296 -0.3247
   28DOPE  C216 3556   1.821   3.389  15.725  0.6172 -0.3362 -0.1842
   28DOPE  H16R 3557   1.926   3.353  15.729  0.3027 -1.4858 -1.6294
   28DOPE  H16S 3558   1.824   3.500  15.719 -3.9068 -0.1187 -2.7798
   28DOPE  C217 3559   1.742   3.321  15.605  0.2012  0.3283 -0.2540
   28DOPE  H17R 3560   1.659   3.387  15.571 -0.9618 -2.2313 -2.7983
   28DOPE  H17S 3561   1.706   3.221  15.639  1.8748  0.0899  0.9319
   28DOPE  C218 3562   1.842   3.315  15.485  0.4679 -0.1741 -0.0603
   28DOPE  H18R 3563   1.879   3.416  15.458 -0.8684  0.5409  0.6908
   28DOPE  H18S 3564   1.770   3.282  15.407  0.5350  0.4036 -0.3685
   28DOPE  H18T 3565   1.918   3.239  15.514 -0.6033 -0.3271  2.7346
   28DOPE   C33 3566   2.252   3.033  16.961 -0.1417  0.6212  0.5051
   28DOPE   H3X 3567   2.280   2.928  16.987  0.6479  0.3721 -1.2378
   28DOPE   H3Y 3568   2.338   3.102  16.969 -0.1161  0.5211  1.1489
   28DOPE   C34 3569   2.226   3.028  16.808  0.1626  0.6743  1.0051
   28DOPE   H4X 3570   2.181   3.122  16.769  1.8041  1.4194  0.8393
   28DOPE   H4Y 3571   2.320   3.014  16.752 -0.9568  1.0764 -1.0993
   28DOPE   C35 3572   2.127   2.920  16.763  0.2619 -1.0143  0.0616
   28DOPE   H5X 3573   2.031   2.961  16.802  2.0117  1.1490  2.4626
   28DOPE   H5Y 3574   2.131   2.820  16.810 -3.6956 -1.8011 -0.8750
   28DOPE   C36 3575   2.137   2.882  16.617  0.2129 -0.5918 -0.0281
   28DOPE   H6X 3576   2.052   2.815  16.591  0.4523 -1.2172  0.7340
   28DOPE   H6Y 3577   2.227   2.820  16.600 -0.2629 -1.5003  0.6570
   28DOPE   C37 3578   2.138   3.008  16.526 -0.2957 -0.3791 -0.5531
   28DOPE   H7X 3579   2.061   3.078  16.563 -0.0287  0.3808 -1.4014
   28DOPE   H7Y 3580   2.234   3.060  16.544 -1.4004  0.8203  2.4589
   28DOPE   C38 3581   2.122   2.969  16.379  0.0067 -0.4081  0.4569
   28DOPE   H8X 3582   2.022   2.921  16.371 -0.1920  0.0838 -0.0396
   28DOPE   H8Y 3583   2.198   2.892  16.353  1.1323  1.3293 -1.7216
   28DOPE   C39 3584   2.128   3.080  16.278 -0.0965  0.3179 -0.1705
   28DOPE   H9X 3585   2.129   3.184  16.315 -0.4686  0.5422 -0.7599
   28DOPE  C310 3586   2.152   3.061  16.149 -0.2496  0.1081  0.3392
   28DOPE  H10X 3587   2.142   3.148  16.082  1.7421  0.1046 -0.0025
   28DOPE  C311 3588   2.158   2.930  16.077  0.6423 -0.9592 -0.1430
   28DOPE  H11X 3589   2.180   2.849  16.150  0.5369 -0.1336  0.8274
   28DOPE  H11Y 3590   2.051   2.915  16.050  0.4560  1.4967 -0.9390
   28DOPE  C312 3591   2.252   2.921  15.952 -0.2235 -0.0811  0.4442
   28DOPE  H12X 3592   2.269   2.814  15.926 -1.7403  0.0112 -1.1137
   28DOPE  H12Y 3593   2.348   2.964  15.989 -0.6720  1.1544  0.2406
   28DOPE  C313 3594   2.191   2.994  15.835 -0.4240  0.1885 -0.3665
   28DOPE  H13X 3595   2.098   2.940  15.807  0.4807 -0.2856 -2.6361
   28DOPE  H13Y 3596   2.174   3.100  15.862  0.1154 -0.3733  2.5946
   28DOPE  C314 3597   2.280   3.000  15.709 -0.2837 -0.2792  0.4577
   28DOPE  H14X 3598   2.335   2.904  15.704 -0.2803 -0.2965  0.7833
   28DOPE  H14Y 3599   2.357   3.079  15.721  0.6987 -0.9530 -1.1701
   28DOPE  C315 3600   2.201   3.017  15.583 -0.3552  0.4095 -0.0548
   28DOPE  H15X 3601   2.145   3.112  15.594 -0.0728  0.4329  1.4521
   28DOPE  H15Y 3602   2.125   2.937  15.572 -0.9097  0.7005  1.4599
   28DOPE  C316 3603   2.284   3.008  15.460  0.1638 -0.5274  0.1607
   28DOPE  H16X 3604   2.286   2.901  15.429 -2.5421 -0.5087 -0.3351
   28DOPE  H16Y 3605   2.383   3.049  15.486 -0.1328 -0.3023  0.9360
   28DOPE  C317 3606   2.238   3.083  15.333  0.5095 -0.1891  1.1220
   28DOPE  H17X 3607   2.195   3.185  15.340 -1.1942 -0.6586 -1.3975
   28DOPE  H17Y 3608   2.327   3.078  15.266  0.2594 -0.9342  0.8312
   28DOPE  C318 3609   2.129   2.997  15.268 -0.3326  0.6135  0.4145
   28DOPE  H18X 3610   2.032   2.989  15.320  0.2016  0.2951  1.3806
   28DOPE  H18Y 3611   2.106   3.053  15.174  0.8208  2.0328  0.9389
   28DOPE  H18Z 3612   2.170   2.903  15.226  1.7220  2.1753 -1.3411
   29DOPE     N 3613   6.396   4.618  17.924  0.5402 -0.6410  0.5607
   29DOPE   HN1 3614   6.298   4.638  17.953 -0.4007 -1.8990 -1.5431
   29DOPE   HN2 3615   6.421   4.653  17.829 -0.4707 -1.8657 -0.1869
   29DOPE   HN3 3616   6.400   4.514  17.915  0.1978 -0.8251  2.1544
   29DOPE   C12 3617   6.490   4.660  18.028  0.3707  0.1648 -0.6217
   29DOPE  H12A 3618   6.591   4.634  17.992 -0.7572 -4.2446 -1.1592
   29DOPE  H12B 3619   6.470   4.584  18.107  0.5208  0.0439 -0.7005
   29DOPE   C11 3620   6.467   4.800  18.075 -0.1702  0.0292  0.5628
   29DOPE  H11A 3621   6.374   4.813  18.134 -0.3918 -0.6239  0.3612
   29DOPE  H11B 3622   6.469   4.872  17.990  0.5066  0.0460  0.5850
   29DOPE     P 3623   6.717   4.869  18.140  0.5750  0.0390 -0.0596
   29DOPE   O13 3624   6.798   4.745  18.122  0.3684  0.5002  0.1823
   29DOPE   O14 3625   6.771   4.966  18.243  0.1392  0.5094  0.2290
   29DOPE   O11 3626   6.698   4.945  18.003 -0.2026  0.0919 -0.1707
   29DOPE   O12 3627   6.571   4.818  18.172 -0.0277 -0.9517 -0.2866
   29DOPE    C1 3628   6.644   5.075  17.990  0.2060  0.1331  1.0470
   29DOPE    HA 3629   6.706   5.146  18.048  0.7831 -1.6456  2.7013
   29DOPE    HB 3630   6.548   5.089  18.043 -0.3076  0.3851  0.0839
   29DOPE    C2 3631   6.624   5.113  17.841  0.0519  0.2483 -0.6935
   29DOPE    HS 3632   6.555   5.034  17.804  0.3859 -0.3519 -0.0574
   29DOPE   O21 3633   6.748   5.119  17.774  0.1852  0.3058  0.0718
   29DOPE   C21 3634   6.760   5.033  17.670 -0.4690  0.1767 -0.2172
   29DOPE   O22 3635   6.670   4.967  17.620  0.0555 -0.1520 -1.2299
   29DOPE   C22 3636   6.902   5.048  17.623  0.8547 -0.2768 -0.0620
   29DOPE   H2R 3637   6.974   5.011  17.698  0.9111  2.8366  1.6018
   29DOPE   H2S 3638   6.911   5.156  17.597 -0.9071 -0.0767  0.0283
   29DOPE    C3 3639   6.554   5.255  17.825 -0.4922  0.3715 -0.3169
   29DOPE    HX 3640   6.622   5.327  17.874 -0.1803  1.1882 -1.9079
   29DOPE    HY 3641   6.460   5.259  17.885  0.8904  0.3449  2.0066
   29DOPE   O31 3642   6.542   5.295  17.686 -0.5192  0.3840  0.1951
   29DOPE   C31 3643   6.431   5.246  17.627  0.6542 -0.1640 -0.7677
   29DOPE   O32 3644   6.340   5.192  17.683 -0.7121  0.6009  0.0630
   29DOPE   C32 3645   6.429   5.278  17.476  0.3178 -0.4564 -0.3925
   29DOPE   H2X 3646   6.418   5.388  17.473 -0.7210 -0.3631  2.9735
   29DOPE   H2Y 3647   6.531   5.247  17.446  0.5803  0.0270 -0.0168
   29DOPE   C23 3648   6.927   4.986  17.481  0.2098  0.3105  0.9044
   29DOPE   H3R 3649   6.902   4.878  17.486  1.9642 -0.3366 -2.1965
   29DOPE   H3S 3650   7.037   4.995  17.479  0.1786  0.6643  0.6643
   29DOPE   C24 3651   6.862   5.052  17.365 -0.0717 -0.5387  0.1890
   29DOPE   H4R 3652   6.904   5.155  17.364 -0.2806 -0.4518  0.3656
   29DOPE   H4S 3653   6.752   5.061  17.379 -0.1257 -1.4334  0.3704
   29DOPE   C25 3654   6.894   4.993  17.225 -0.1397 -0.9300  0.6101
   29DOPE   H5R 3655   6.866   4.886  17.224  2.0248 -1.5657  1.4282
   29DOPE   H5S 3656   7.000   4.987  17.191 -0.2010 -0.6657  0.3649
   29DOPE   C26 3657   6.812   5.061  17.115  0.2746  0.2237  0.0075
   29DOPE   H6R 3658   6.879   5.145  17.086  1.2677 -1.2733 -2.3188
   29DOPE   H6S 3659   6.710   5.084  17.153 -0.9677 -0.9472 -2.3829
   29DOPE   C27 3660   6.798   4.982  16.984 -0.0897  0.3702  0.8725
   29DOPE   H7R 3661   6.731   5.034  16.912  1.2399 -0.4096 -1.0048
   29DOPE   H7S 3662   6.747   4.889  17.018  1.0299 -0.7760 -0.4658
   29DOPE   C28 3663   6.932   4.954  16.915  0.6631 -0.3533 -0.7239
   29DOPE   H8R 3664   7.005   4.925  16.994 -1.2312 -0.8562  0.9219
   29DOPE   H8S 3665   6.960   5.046  16.860 -0.1377 -0.7804 -1.8782
   29DOPE   C29 3666   6.933   4.852  16.799 -0.3170  0.2270 -0.1154
   29DOPE   H9R 3667   6.983   4.757  16.822 -0.7257 -0.3797 -1.6271
   29DOPE  C210 3668   6.890   4.866  16.673  0.1393  0.7771 -0.2372
   29DOPE  H10R 3669   6.902   4.779  16.607  0.8445 -0.0580  0.9492
   29DOPE  C211 3670   6.824   4.982  16.603  0.2931 -0.5436 -0.4590
   29DOPE  H11R 3671   6.825   5.067  16.675  1.2038 -0.3476 -0.6838
   29DOPE  H11S 3672   6.716   4.963  16.589  0.5828 -1.1391 -2.0433
   29DOPE  C212 3673   6.899   5.032  16.476  0.6682 -0.1452 -0.5589
   29DOPE  H12R 3674   7.005   5.016  16.503  0.6675  0.7456  0.0168
   29DOPE  H12S 3675   6.890   5.142  16.470 -3.2961 -0.3496 -0.9027
   29DOPE  C213 3676   6.856   4.959  16.345 -0.9567  0.0387  0.0705
   29DOPE  H13R 3677   6.749   4.988  16.333 -1.2137 -1.1753 -0.7018
   29DOPE  H13S 3678   6.876   4.852  16.362 -0.8457  0.5064  3.5872
   29DOPE  C214 3679   6.920   5.017  16.215 -0.1784 -0.4406  0.4496
   29DOPE  H14R 3680   7.030   5.003  16.220  0.2343  2.2087 -0.1365
   29DOPE  H14S 3681   6.897   5.124  16.196 -0.9950 -0.6865 -0.0114
   29DOPE  C215 3682   6.869   4.946  16.088  0.5135 -0.2284  0.1340
   29DOPE  H15R 3683   6.760   4.933  16.100  0.5381  0.3667  1.1046
   29DOPE  H15S 3684   6.911   4.843  16.085  0.6707 -0.1426 -1.3186
   29DOPE  C216 3685   6.894   5.033  15.962  0.8051  1.0848 -0.4793
   29DOPE  H16R 3686   7.004   5.049  15.965  1.2398 -1.5446  0.4884
   29DOPE  H16S 3687   6.852   5.133  15.985 -0.7500  0.4583 -0.5042
   29DOPE  C217 3688   6.867   4.960  15.826 -0.4162 -0.0771 -0.1163
   29DOPE  H17R 3689   6.917   4.861  15.837 -1.4574 -0.4073  2.3534
   29DOPE  H17S 3690   6.907   5.022  15.743  0.7919 -0.2012  0.3562
   29DOPE  C218 3691   6.715   4.933  15.809  0.2013 -0.0026 -0.4781
   29DOPE  H18R 3692   6.684   4.869  15.894  1.8982 -1.3113 -0.8060
   29DOPE  H18S 3693   6.687   4.883  15.713 -2.5375 -0.9229  0.6996
   29DOPE  H18T 3694   6.658   5.029  15.810  2.9445  1.7680  2.0659
   29DOPE   C33 3695   6.323   5.219  17.381 -0.0196 -0.3463 -0.1764
   29DOPE   H3X 3696   6.224   5.231  17.431  1.4237  2.2274  2.3158
   29DOPE   H3Y 3697   6.339   5.109  17.384 -0.3687 -0.3941  0.1469
   29DOPE   C34 3698   6.335   5.277  17.239  0.9005  0.5103  0.5165
   29DOPE   H4X 3699   6.268   5.365  17.233  1.4883  0.9044 -0.4841
   29DOPE   H4Y 3700   6.438   5.300  17.204  0.4489  0.4799 -0.8925
   29DOPE   C35 3701   6.278   5.176  17.134 -0.5408  0.3855  0.6271
   29DOPE   H5X 3702   6.168   5.170  17.147 -0.5302 -0.8779  0.1864
   29DOPE   H5Y 3703   6.315   5.075  17.162 -1.4081 -0.0320  0.2824
   29DOPE   C36 3704   6.330   5.206  16.988 -0.1825  0.2424  0.0726
   29DOPE   H6X 3705   6.271   5.146  16.915  0.7296  0.3660 -0.7977
   29DOPE   H6Y 3706   6.437   5.177  16.983 -0.4480 -0.5272 -2.1967
   29DOPE   C37 3707   6.307   5.350  16.932  0.5132 -0.0730 -0.5032
   29DOPE   H7X 3708   6.203   5.380  16.956  0.6994  1.1844 -1.2366
   29DOPE   H7Y 3709   6.371   5.413  16.997  0.0371 -0.6814  0.5943
   29DOPE   C38 3710   6.350   5.368  16.778  0.1067 -0.4203 -0.1585
   29DOPE   H8X 3711   6.440   5.307  16.756 -0.1047  0.2284 -3.3367
   29DOPE   H8Y 3712   6.369   5.475  16.755  0.2704 -0.4594 -0.2036
   29DOPE   C39 3713   6.237   5.345  16.681  0.7525  0.0021 -0.2670
   29DOPE   H9X 3714   6.163   5.424  16.662 -0.1014 -0.6272  0.3772
   29DOPE  C310 3715   6.219   5.237  16.599  0.1432 -0.4683  0.4258
   29DOPE  H10X 3716   6.149   5.252  16.516 -0.3375  0.4299  0.9834
   29DOPE  C311 3717   6.305   5.119  16.586  0.3560  0.6808 -0.4520
   29DOPE  H11X 3718   6.355   5.107  16.684 -1.0804  0.3415  0.2595
   29DOPE  H11Y 3719   6.248   5.024  16.575  0.7492  0.4140 -0.2113
   29DOPE  C312 3720   6.409   5.125  16.470  0.3189 -0.2636 -0.0014
   29DOPE  H12X 3721   6.462   5.028  16.459 -0.0244 -0.7391  2.0698
   29DOPE  H12Y 3722   6.485   5.206  16.476 -0.7732  0.8055 -0.1677
   29DOPE  C313 3723   6.334   5.150  16.338  0.5196  0.1196  0.3609
   29DOPE  H13X 3724   6.253   5.076  16.321 -0.0276  1.0328 -1.2353
   29DOPE  H13Y 3725   6.279   5.246  16.343  0.4872  0.1585 -0.5664
   29DOPE  C314 3726   6.432   5.150  16.216  0.0583  0.5260  0.6427
   29DOPE  H14X 3727   6.489   5.055  16.214 -1.6898 -0.5441  0.1689
   29DOPE  H14Y 3728   6.510   5.229  16.224  2.3163 -1.0230 -3.2113
   29DOPE  C315 3729   6.356   5.167  16.084 -0.4034 -0.2012 -0.0648
   29DOPE  H15X 3730   6.297   5.260  16.068 -1.0468 -0.7691 -1.1275
   29DOPE  H15Y 3731   6.278   5.088  16.085 -0.5669 -0.0381  0.1560
   29DOPE  C316 3732   6.442   5.145  15.951  0.5215  0.8157  0.0093
   29DOPE  H16X 3733   6.465   5.037  15.942  0.9024  0.9695 -0.9388
   29DOPE  H16Y 3734   6.535   5.206  15.946  0.5077  0.8721  0.4137
   29DOPE  C317 3735   6.354   5.171  15.823  0.8560  0.0773 -0.0313
   29DOPE  H17X 3736   6.405   5.125  15.736  0.6779 -1.6404  0.7459
   29DOPE  H17Y 3737   6.258   5.119  15.842  1.4336 -0.6839  0.8866
   29DOPE  C318 3738   6.324   5.318  15.800  0.3939 -0.2441  0.7656
   29DOPE  H18X 3739   6.418   5.377  15.804 -0.3322  0.9123  3.5593
   29DOPE  H18Y 3740   6.276   5.325  15.701 -1.7648 -0.0957  1.7761
   29DOPE  H18Z 3741   6.251   5.362  15.871  1.1431 -0.4424  1.6956
   30DOPE     N 3742   0.990   4.981  18.026  0.3527  0.9825 -0.3552
   30DOPE   HN1 3743   0.957   5.047  17.952  1.1813  1.0562 -0.6805
   30DOPE   HN2 3744   0.933   4.992  18.111  1.3643 -1.8877  0.8169
   30DOPE   HN3 3745   1.091   4.997  18.048  0.8836  1.1870 -2.5966
   30DOPE   C12 3746   0.955   4.836  18.001  0.3497  0.9310  0.1761
   30DOPE  H12A 3747   1.002   4.777  18.083  0.5931  0.3710 -0.3607
   30DOPE  H12B 3748   1.004   4.819  17.903  1.0996  0.0447  0.6807
   30DOPE   C11 3749   0.806   4.796  18.000 -0.1333  0.0724 -1.0148
   30DOPE  H11A 3750   0.743   4.875  17.954 -0.6803  0.1758 -0.1261
   30DOPE  H11B 3751   0.776   4.797  18.107 -0.1932 -1.1914 -0.9995
   30DOPE     P 3752   0.678   4.569  17.988 -0.1689 -0.0142 -0.3346
   30DOPE   O13 3753   0.554   4.645  18.015 -0.1284 -0.6548 -0.4842
   30DOPE   O14 3754   0.744   4.498  18.100 -0.2023 -0.0513 -0.4914
   30DOPE   O11 3755   0.647   4.456  17.875  0.0274  0.0666  0.0004
   30DOPE   O12 3756   0.785   4.669  17.932 -0.1575  0.0679 -0.1555
   30DOPE    C1 3757   0.761   4.401  17.816  0.2743  0.0355  0.1539
   30DOPE    HA 3758   0.751   4.292  17.836  0.6373  0.0683  0.5270
   30DOPE    HB 3759   0.857   4.437  17.857  0.5805  0.5579 -0.9877
   30DOPE    C2 3760   0.760   4.417  17.664 -0.1950 -0.4156  0.3629
   30DOPE    HS 3761   0.858   4.383  17.625 -0.1882 -1.2661  1.0714
   30DOPE   O21 3762   0.733   4.551  17.618 -0.3859 -0.2532 -0.0613
   30DOPE   C21 3763   0.833   4.636  17.641  0.1549  0.2861  0.3118
   30DOPE   O22 3764   0.940   4.604  17.681  0.0265 -0.1894 -0.4562
   30DOPE   C22 3765   0.797   4.777  17.598  0.5067  0.0171  1.0091
   30DOPE   H2R 3766   0.891   4.814  17.552  1.6141 -2.1675  1.3718
   30DOPE   H2S 3767   0.772   4.838  17.687 -1.4337  0.8326 -0.0352
   30DOPE    C3 3768   0.652   4.329  17.596  0.3500 -0.7358  0.3561
   30DOPE    HX 3769   0.555   4.380  17.576  1.2679  0.4315 -1.3516
   30DOPE    HY 3770   0.623   4.257  17.676 -0.7050  1.6291  2.2762
   30DOPE   O31 3771   0.714   4.258  17.482  0.3972 -0.0222 -0.2289
   30DOPE   C31 3772   0.630   4.175  17.426 -0.5917  0.4617  0.4242
   30DOPE   O32 3773   0.530   4.136  17.474 -0.1664 -0.2529  0.0209
   30DOPE   C32 3774   0.683   4.114  17.295 -0.1503 -0.1705  0.1546
   30DOPE   H2X 3775   0.758   4.042  17.332 -0.7528 -0.3271  1.0967
   30DOPE   H2Y 3776   0.602   4.055  17.247 -0.4116 -0.2936  0.7421
   30DOPE   C23 3777   0.681   4.786  17.491 -0.2668  0.0156  0.0638
   30DOPE   H3R 3778   0.662   4.895  17.486  0.8616  0.3047  1.5345
   30DOPE   H3S 3779   0.591   4.736  17.531  0.8424 -1.5595  0.7350
   30DOPE   C24 3780   0.711   4.721  17.350 -0.2982 -0.0476 -0.2934
   30DOPE   H4R 3781   0.667   4.619  17.345  0.8692 -0.5161 -1.3562
   30DOPE   H4S 3782   0.820   4.702  17.350 -0.2146  0.3876  0.2085
   30DOPE   C25 3783   0.676   4.808  17.221 -0.0579  0.0650 -0.1348
   30DOPE   H5R 3784   0.713   4.911  17.243  2.5236 -1.6803  5.5910
   30DOPE   H5S 3785   0.567   4.806  17.197  0.2262 -1.4444 -1.4707
   30DOPE   C26 3786   0.743   4.737  17.093  0.3534  0.0696 -0.1348
   30DOPE   H6R 3787   0.714   4.630  17.085  0.9649 -0.2321  1.3550
   30DOPE   H6S 3788   0.852   4.746  17.111  0.4572 -1.8788  0.4426
   30DOPE   C27 3789   0.698   4.800  16.953  0.9782  0.3543 -0.1285
   30DOPE   H7R 3790   0.697   4.911  16.962  1.3907  0.4369 -0.9672
   30DOPE   H7S 3791   0.592   4.777  16.929  1.1300  0.7417 -1.2257
   30DOPE   C28 3792   0.781   4.737  16.843 -0.3918  0.4062  0.4091
   30DOPE   H8R 3793   0.885   4.721  16.878 -0.7679  1.4305  2.1184
   30DOPE   H8S 3794   0.780   4.809  16.759 -0.5862 -1.6102 -1.3943
   30DOPE   C29 3795   0.707   4.608  16.801  0.4687 -0.0630 -0.0940
   30DOPE   H9R 3796   0.676   4.541  16.882 -2.0877  0.4810 -0.5232
   30DOPE  C210 3797   0.692   4.569  16.670  0.0670  0.6577 -0.4180
   30DOPE  H10R 3798   0.622   4.490  16.639 -0.5416  1.0160  0.0121
   30DOPE  C211 3799   0.742   4.646  16.556 -0.1814 -0.3552  0.4252
   30DOPE  H11R 3800   0.764   4.581  16.468  1.5510 -1.1314  1.3954
   30DOPE  H11S 3801   0.834   4.702  16.584 -1.3073  1.8109  0.0256
   30DOPE  C212 3802   0.650   4.759  16.512  0.4008  0.0909  0.3806
   30DOPE  H12R 3803   0.652   4.842  16.586 -1.4270  0.6003 -0.0835
   30DOPE  H12S 3804   0.545   4.725  16.499  0.0754  0.5347  1.7085
   30DOPE  C213 3805   0.686   4.829  16.377 -0.0853 -0.0834  0.2090
   30DOPE  H13R 3806   0.793   4.856  16.386 -0.1315 -0.5762  3.3616
   30DOPE  H13S 3807   0.640   4.929  16.361  1.4173  0.2723 -2.3520
   30DOPE  C214 3808   0.675   4.742  16.252  0.1291  0.3110 -0.2399
   30DOPE  H14R 3809   0.571   4.704  16.254  0.1377  0.1665  3.3209
   30DOPE  H14S 3810   0.737   4.652  16.274 -1.2390 -0.0365  2.6180
   30DOPE  C215 3811   0.698   4.829  16.125 -0.3720 -0.3301  0.0172
   30DOPE  H15R 3812   0.801   4.871  16.116 -1.2069  1.4679 -1.9027
   30DOPE  H15S 3813   0.630   4.917  16.132 -1.0547 -0.9820  2.9784
   30DOPE  C216 3814   0.677   4.751  15.987  0.7046  0.0059 -0.0230
   30DOPE  H16R 3815   0.567   4.752  15.968  0.2712  2.2861  1.9981
   30DOPE  H16S 3816   0.723   4.650  15.996 -0.9229 -0.7799 -0.2085
   30DOPE  C217 3817   0.756   4.815  15.872 -0.1776  1.0874  0.2034
   30DOPE  H17R 3818   0.751   4.750  15.782 -0.6395 -2.6789  2.7198
   30DOPE  H17S 3819   0.864   4.803  15.898 -0.7774 -2.8240  1.4753
   30DOPE  C218 3820   0.707   4.962  15.860 -0.1806  0.8516  0.5400
   30DOPE  H18R 3821   0.743   5.005  15.764 -0.3767  0.0357  0.0928
   30DOPE  H18S 3822   0.746   5.013  15.950  2.4240 -0.9927  0.5615
   30DOPE  H18T 3823   0.597   4.971  15.850 -0.4821 -0.8938  1.8342
   30DOPE   C33 3824   0.751   4.205  17.183  0.0801 -0.3591 -0.2420
   30DOPE   H3X 3825   0.842   4.248  17.231  0.2396 -0.7025 -0.2339
   30DOPE   H3Y 3826   0.674   4.281  17.160 -0.5738 -0.5740  1.0984
   30DOPE   C34 3827   0.779   4.138  17.048 -0.9961 -0.0533  0.2572
   30DOPE   H4X 3828   0.860   4.063  17.065  1.1061  1.8641 -0.6946
   30DOPE   H4Y 3829   0.684   4.092  17.015 -0.3014 -1.4585  0.1091
   30DOPE   C35 3830   0.836   4.237  16.946 -0.1269 -0.3420 -0.5613
   30DOPE   H5X 3831   0.928   4.278  16.992 -0.4124 -0.5197  0.1779
   30DOPE   H5Y 3832   0.758   4.315  16.934 -1.2775 -1.6539 -2.0887
   30DOPE   C36 3833   0.868   4.172  16.814 -0.4178  0.8297  0.1201
   30DOPE   H6X 3834   0.922   4.077  16.831  0.2077  0.9665 -0.9875
   30DOPE   H6Y 3835   0.944   4.237  16.765  0.4278 -0.1022  0.1566
   30DOPE   C37 3836   0.744   4.142  16.724 -0.0540 -0.4035 -0.1191
   30DOPE   H7X 3837   0.679   4.064  16.770  1.1625 -0.9912  0.6471
   30DOPE   H7Y 3838   0.677   4.230  16.717 -0.0499 -0.4901 -1.3788
   30DOPE   C38 3839   0.786   4.101  16.577 -0.5367 -0.3054  0.4490
   30DOPE   H8X 3840   0.689   4.073  16.531 -0.4168 -0.4872  0.3037
   30DOPE   H8Y 3841   0.837   4.003  16.587 -1.9225 -1.1151 -0.1431
   30DOPE   C39 3842   0.871   4.200  16.494 -0.0519 -0.3659 -0.3298
   30DOPE   H9X 3843   0.856   4.305  16.523 -2.5338 -0.6677 -0.3616
   30DOPE  C310 3844   0.927   4.164  16.377  1.0385  0.0772  0.1664
   30DOPE  H10X 3845   0.981   4.223  16.302 -0.4863 -2.5450 -3.2865
   30DOPE  C311 3846   0.907   4.026  16.318  0.4368 -0.0316 -0.1994
   30DOPE  H11X 3847   0.920   3.949  16.396  1.2648  1.9683  1.7361
   30DOPE  H11Y 3848   0.801   4.020  16.284  0.4852  1.6926 -0.7675
   30DOPE  C312 3849   0.987   3.995  16.190 -0.4025  0.2745  0.0972
   30DOPE  H12X 3850   1.090   4.032  16.207 -0.3276 -0.6012  1.6678
   30DOPE  H12Y 3851   0.935   4.061  16.117  1.1020  2.2971  0.7731
   30DOPE  C313 3852   0.986   3.840  16.150 -0.0943 -0.9169  0.1963
   30DOPE  H13X 3853   1.061   3.788  16.212 -0.4535 -0.7883  0.7428
   30DOPE  H13Y 3854   0.881   3.810  16.170 -1.6992  3.7217 -0.0580
   30DOPE  C314 3855   1.027   3.811  16.004  0.5315 -0.3802 -0.3374
   30DOPE  H14X 3856   1.131   3.849  15.992  1.2070 -1.8741  0.4363
   30DOPE  H14Y 3857   0.961   3.868  15.937 -0.0750 -0.1402  0.4539
   30DOPE  C315 3858   1.029   3.661  15.989  0.1547 -0.1995  0.0922
   30DOPE  H15X 3859   0.923   3.633  16.003 -0.8183  1.8027 -2.5165
   30DOPE  H15Y 3860   1.085   3.613  16.072 -0.5210 -0.8854  0.1628
   30DOPE  C316 3861   1.081   3.619  15.858  0.3090 -0.7405  0.7745
   30DOPE  H16X 3862   1.067   3.510  15.844 -2.4314 -0.4031  0.4602
   30DOPE  H16Y 3863   1.190   3.639  15.851  0.2292 -0.3659  0.5960
   30DOPE  C317 3864   1.030   3.705  15.731 -0.0485  0.4810 -0.0931
   30DOPE  H17X 3865   0.919   3.711  15.738 -0.0031  0.4047  0.8115
   30DOPE  H17Y 3866   1.068   3.810  15.735 -0.7436  0.7385 -0.0887
   30DOPE  C318 3867   1.073   3.634  15.604 -0.1986  0.7953 -0.6074
   30DOPE  H18X 3868   1.184   3.633  15.599 -0.1546 -0.9883  0.1326
   30DOPE  H18Y 3869   1.050   3.526  15.595  2.6492  0.0878 -0.3898
   30DOPE  H18Z 3870   1.042   3.686  15.511  0.9001  1.7413 -0.4681
   31DOPE     N 3871   1.348   6.257  13.491 -0.2312 -0.4530 -0.3464
   31DOPE   HN1 3872   1.323   6.300  13.582  1.2030 -0.0593 -0.0997
   31DOPE   HN2 3873   1.312   6.166  13.458  1.6565 -1.1405 -0.6241
   31DOPE   HN3 3874   1.451   6.250  13.503  0.3056  5.4218  2.0107
   31DOPE   C12 3875   1.315   6.352  13.376  0.2368 -1.0761 -0.5277
   31DOPE  H12A 3876   1.205   6.369  13.368  0.3600 -0.3650 -0.8330
   31DOPE  H12B 3877   1.347   6.295  13.286  1.8493 -1.9574  0.5588
   31DOPE   C11 3878   1.396   6.483  13.390  0.4618  0.1356 -0.5250
   31DOPE  H11A 3879   1.355   6.536  13.479 -0.3936  0.3052 -1.0124
   31DOPE  H11B 3880   1.365   6.551  13.307  2.8232  0.7654 -0.9606
   31DOPE     P 3881   1.642   6.528  13.308  0.3588 -0.0275 -0.1403
   31DOPE   O13 3882   1.575   6.640  13.242  0.1940 -0.0986 -0.1208
   31DOPE   O14 3883   1.692   6.424  13.221  0.0958  0.1468 -0.3822
   31DOPE   O11 3884   1.757   6.574  13.394 -0.1878  0.0694  0.5665
   31DOPE   O12 3885   1.537   6.463  13.410 -0.1464 -0.1284  0.2157
   31DOPE    C1 3886   1.743   6.611  13.528  0.1042 -0.8062  0.1741
   31DOPE    HA 3887   1.643   6.652  13.552  0.5265 -0.7886  2.0137
   31DOPE    HB 3888   1.816   6.693  13.541 -0.4079  0.4748 -3.6429
   31DOPE    C2 3889   1.766   6.492  13.626 -0.3209  0.0399  0.0827
   31DOPE    HS 3890   1.708   6.402  13.595 -0.4599 -0.2202  1.0601
   31DOPE   O21 3891   1.717   6.537  13.755 -0.0455 -0.5522  0.3819
   31DOPE   C21 3892   1.680   6.438  13.827  0.4262  0.8694  0.7466
   31DOPE   O22 3893   1.680   6.318  13.796 -0.1462  0.6775  0.3283
   31DOPE   C22 3894   1.622   6.498  13.959  0.6682 -0.5896  0.0374
   31DOPE   H2R 3895   1.516   6.523  13.936 -0.0637 -2.7690  0.7912
   31DOPE   H2S 3896   1.671   6.595  13.983 -2.1764  1.3288 -1.4006
   31DOPE    C3 3897   1.919   6.460  13.626  0.3207 -0.0989  0.5377
   31DOPE    HX 3898   1.953   6.564  13.642  1.1815  0.0504 -1.8438
   31DOPE    HY 3899   1.956   6.436  13.524 -0.1371 -1.6592  0.7123
   31DOPE   O31 3900   1.963   6.367  13.723  0.1092  0.8214  0.1567
   31DOPE   C31 3901   1.982   6.244  13.693  0.1047 -0.0655  0.5221
   31DOPE   O32 3902   1.970   6.194  13.582  0.5084 -0.0883  0.3419
   31DOPE   C32 3903   2.035   6.176  13.822 -0.3191 -0.5811 -0.1839
   31DOPE   H2X 3904   2.046   6.068  13.800 -3.4229 -0.6809 -1.7878
   31DOPE   H2Y 3905   2.136   6.218  13.843  0.4617 -1.0938 -2.5732
   31DOPE   C23 3906   1.621   6.410  14.080  0.2292  0.3305 -0.6042
   31DOPE   H3R 3907   1.726   6.377  14.098  0.2189  0.0787 -0.9792
   31DOPE   H3S 3908   1.567   6.319  14.048  0.2362  0.8164 -2.1175
   31DOPE   C24 3909   1.560   6.456  14.212  0.1041  0.0244 -0.4409
   31DOPE   H4R 3910   1.449   6.454  14.214  0.0750 -1.5908 -1.4221
   31DOPE   H4S 3911   1.584   6.564  14.222  1.7474  0.2481 -4.6041
   31DOPE   C25 3912   1.597   6.358  14.329  0.5290  0.6868  0.4647
   31DOPE   H5R 3913   1.707   6.352  14.347  0.7125  1.3131 -0.4061
   31DOPE   H5S 3914   1.551   6.261  14.302  0.9694  0.1742  1.4924
   31DOPE   C26 3915   1.546   6.405  14.469 -0.1121 -0.2161  0.0537
   31DOPE   H6R 3916   1.436   6.414  14.462 -0.1001 -0.0610  0.0401
   31DOPE   H6S 3917   1.582   6.508  14.492  0.7547 -0.6963  0.8958
   31DOPE   C27 3918   1.565   6.307  14.580 -0.7353 -0.5763  0.4903
   31DOPE   H7R 3919   1.669   6.273  14.596 -0.2888  0.4104 -0.1897
   31DOPE   H7S 3920   1.510   6.215  14.551  1.4992 -2.6779  2.4236
   31DOPE   C28 3921   1.511   6.361  14.714  0.4387  0.2958 -0.1711
   31DOPE   H8R 3922   1.506   6.282  14.792  3.0186  0.2636  0.0601
   31DOPE   H8S 3923   1.407   6.394  14.695  0.9850  1.2355 -1.6924
   31DOPE   C29 3924   1.596   6.475  14.767  0.2001 -0.4493  0.4149
   31DOPE   H9R 3925   1.683   6.506  14.707 -0.6460 -2.2867 -1.9425
   31DOPE  C210 3926   1.597   6.511  14.898  0.3628  0.0625 -0.1657
   31DOPE  H10R 3927   1.666   6.587  14.939 -0.2489 -1.2313  3.6800
   31DOPE  C211 3928   1.508   6.447  15.008 -0.0901  0.3789  0.1954
   31DOPE  H11R 3929   1.582   6.399  15.076 -0.4811 -2.1345 -1.0359
   31DOPE  H11S 3930   1.438   6.371  14.968 -0.4282  0.7587  0.0599
   31DOPE  C212 3931   1.435   6.563  15.073 -0.3059 -0.5204 -0.1959
   31DOPE  H12R 3932   1.338   6.573  15.020  0.6044  1.0997 -1.6749
   31DOPE  H12S 3933   1.485   6.661  15.063 -0.7015 -0.4074 -1.2017
   31DOPE  C213 3934   1.421   6.523  15.225 -0.4373 -0.4147  0.2645
   31DOPE  H13R 3935   1.527   6.520  15.261 -0.4653 -1.5293  0.2864
   31DOPE  H13S 3936   1.364   6.428  15.228 -0.0827 -0.6882 -0.9393
   31DOPE  C214 3937   1.335   6.620  15.299  0.4402 -0.5196 -0.1307
   31DOPE  H14R 3938   1.251   6.640  15.229 -0.4503 -2.2640  0.3846
   31DOPE  H14S 3939   1.387   6.717  15.311 -0.9044  0.4718 -1.8246
   31DOPE  C215 3940   1.269   6.580  15.430 -0.3387 -0.3007  0.2691
   31DOPE  H15R 3941   1.192   6.501  15.425 -0.0400 -0.5340 -0.6872
   31DOPE  H15S 3942   1.219   6.673  15.464  0.9594  1.2024 -1.6623
   31DOPE  C216 3943   1.380   6.546  15.534 -0.6293 -0.9973  0.7374
   31DOPE  H16R 3944   1.471   6.607  15.514 -1.8706  0.5266 -0.4612
   31DOPE  H16S 3945   1.410   6.442  15.510 -1.3428 -1.3478  1.3284
   31DOPE  C217 3946   1.338   6.575  15.682  0.4590 -0.7406 -0.0593
   31DOPE  H17R 3947   1.318   6.682  15.704  1.0936 -0.6151 -0.0876
   31DOPE  H17S 3948   1.424   6.542  15.744  0.9401 -0.1424 -0.3907
   31DOPE  C218 3949   1.215   6.491  15.723  0.3296  0.3095  0.1683
   31DOPE  H18R 3950   1.124   6.516  15.664 -0.9955 -1.8155  1.2122
   31DOPE  H18S 3951   1.196   6.498  15.832 -0.5239  0.0356  0.0499
   31DOPE  H18T 3952   1.249   6.389  15.697  0.6837  0.3476  0.4793
   31DOPE   C33 3953   1.951   6.207  13.954 -0.0044  0.2673 -0.4078
   31DOPE   H3X 3954   1.862   6.140  13.950 -0.0941  0.2033  1.6590
   31DOPE   H3Y 3955   1.914   6.310  13.974  1.8044  1.0366 -0.8485
   31DOPE   C34 3956   2.031   6.166  14.071 -0.3530  0.4230  0.8012
   31DOPE   H4X 3957   2.083   6.073  14.040 -1.2074  0.2239 -0.0728
   31DOPE   H4Y 3958   2.111   6.237  14.099  0.0784  0.2035  0.1421
   31DOPE   C35 3959   1.940   6.153  14.195  0.0928  0.0539  0.2777
   31DOPE   H5X 3960   1.850   6.097  14.161 -0.6486  2.2640 -1.6635
   31DOPE   H5Y 3961   1.902   6.255  14.216  3.4536  1.3886  0.4429
   31DOPE   C36 3962   1.989   6.098  14.326 -0.0964 -0.3450 -0.1923
   31DOPE   H6X 3963   2.059   6.175  14.366  0.5928 -0.1501 -1.7217
   31DOPE   H6Y 3964   2.043   6.002  14.314 -0.7767 -0.5716 -1.6594
   31DOPE   C37 3965   1.887   6.073  14.441  0.0838 -0.0521 -0.6869
   31DOPE   H7X 3966   1.845   6.172  14.469  0.2544  0.0823 -0.8989
   31DOPE   H7Y 3967   1.812   6.006  14.395 -0.2527 -2.5720  3.1258
   31DOPE   C38 3968   1.931   5.996  14.568 -0.8682  0.2544  0.2670
   31DOPE   H8X 3969   1.967   5.892  14.552 -0.4779  0.6755 -1.8885
   31DOPE   H8Y 3970   1.837   5.998  14.627  0.8568  1.4216  3.1459
   31DOPE   C39 3971   2.033   6.086  14.631  0.4016  0.7373 -0.7415
   31DOPE   H9X 3972   2.133   6.088  14.585  1.1608 -0.5940  0.7259
   31DOPE  C310 3973   2.008   6.167  14.731  0.4210 -0.0786 -0.1111
   31DOPE  H10X 3974   2.091   6.227  14.771  0.2146  0.8951 -1.1097
   31DOPE  C311 3975   1.876   6.195  14.807 -0.7016 -0.1629 -0.2986
   31DOPE  H11X 3976   1.838   6.297  14.786  1.7807  1.0702  0.6863
   31DOPE  H11Y 3977   1.797   6.121  14.784 -0.0114 -0.3559 -2.1473
   31DOPE  C312 3978   1.884   6.189  14.966 -0.9995 -0.0059 -0.1502
   31DOPE  H12X 3979   1.782   6.209  15.003 -1.4281 -0.3713 -1.0973
   31DOPE  H12Y 3980   1.953   6.265  15.009 -1.5561 -1.2379  3.1903
   31DOPE  C313 3981   1.916   6.057  15.025 -0.3001  0.1713  0.0815
   31DOPE  H13X 3982   1.852   5.976  14.982 -3.9117  2.1696  1.3003
   31DOPE  H13Y 3983   2.022   6.033  15.006 -0.7750 -2.5731  0.4350
   31DOPE  C314 3984   1.895   6.064  15.178  0.4828  0.2205  0.5989
   31DOPE  H14X 3985   1.799   6.118  15.194  0.0915  0.7074 -2.7211
   31DOPE  H14Y 3986   1.970   6.141  15.209  0.0684  0.8306  0.1150
   31DOPE  C315 3987   1.906   5.936  15.257 -0.3769  0.7714  0.0416
   31DOPE  H15X 3988   1.994   5.880  15.219  1.2556  1.3667  2.6571
   31DOPE  H15Y 3989   1.814   5.875  15.248  1.2527 -1.5683 -2.0943
   31DOPE  C316 3990   1.934   5.952  15.408 -0.3980  0.7636  0.0698
   31DOPE  H16X 3991   1.846   6.012  15.440 -1.5210 -1.0030  0.4601
   31DOPE  H16Y 3992   2.020   6.019  15.427  0.4328 -0.5954  1.2586
   31DOPE  C317 3993   1.940   5.830  15.499  0.5043 -0.2584 -0.0499
   31DOPE  H17X 3994   2.031   5.774  15.468  0.7867  1.2773 -2.2617
   31DOPE  H17Y 3995   1.962   5.876  15.597  0.4365  2.5138 -1.2376
   31DOPE  C318 3996   1.816   5.741  15.518 -0.2201 -0.3387  0.3945
   31DOPE  H18X 3997   1.803   5.707  15.623 -1.6968 -1.0474  0.0041
   31DOPE  H18Y 3998   1.721   5.791  15.491 -0.0690 -0.9995 -1.5274
   31DOPE  H18Z 3999   1.832   5.652  15.454  1.4826 -0.5814  1.1130
   32DOPE     N 4000   4.644   0.800  12.129  0.5224  0.0489  0.3560
   32DOPE   HN1 4001   4.552   0.798  12.177 -0.3463  0.6926 -1.1846
   32DOPE   HN2 4002   4.625   0.756  12.037 -2.0872  0.3475  0.6712
   32DOPE   HN3 4003   4.703   0.724  12.168  3.4828  0.4247 -2.8664
   32DOPE   C12 4004   4.705   0.934  12.128 -0.0395 -0.0856  0.1457
   32DOPE  H12A 4005   4.688   0.985  12.031  2.0062 -0.9027 -0.7203
   32DOPE  H12B 4006   4.813   0.915  12.148 -0.4184 -1.1729  1.2738
   32DOPE   C11 4007   4.642   1.024  12.235 -0.0353 -0.4712 -0.0688
   32DOPE  H11A 4008   4.539   1.036  12.194  0.0650 -2.1613 -0.8995
   32DOPE  H11B 4009   4.701   1.118  12.245 -0.3653 -0.4830  2.8077
   32DOPE     P 4010   4.556   1.028  12.473 -0.1759 -0.4454 -0.6143
   32DOPE   O13 4011   4.421   0.968  12.467  0.0580  0.2397 -0.2794
   32DOPE   O14 4012   4.561   1.177  12.473  0.5117 -0.6473  0.4806
   32DOPE   O11 4013   4.629   0.972  12.603 -0.0181 -0.0499 -0.6455
   32DOPE   O12 4014   4.643   0.961  12.361 -1.3125  0.0984  0.2500
   32DOPE    C1 4015   4.602   0.845  12.665 -0.4743  0.2783  0.1036
   32DOPE    HA 4016   4.689   0.778  12.645 -2.3071 -1.4887 -2.6438
   32DOPE    HB 4017   4.508   0.792  12.637  0.7747 -0.6274 -2.7722
   32DOPE    C2 4018   4.611   0.847  12.816  1.2232 -0.7221 -0.6333
   32DOPE    HS 4019   4.622   0.741  12.849  3.3463 -1.1208 -2.4120
   32DOPE   O21 4020   4.487   0.913  12.865  0.1758  0.0210 -0.3064
   32DOPE   C21 4021   4.440   0.871  12.986 -0.0787 -0.1912  0.5435
   32DOPE   O22 4022   4.495   0.787  13.056 -0.1873  0.2656 -0.0370
   32DOPE   C22 4023   4.306   0.936  13.006  0.2635 -0.6035  0.1034
   32DOPE   H2R 4024   4.227   0.871  12.964  0.7383 -0.0631 -1.6899
   32DOPE   H2S 4025   4.298   1.037  12.960 -0.8656 -0.8536 -0.2695
   32DOPE    C3 4026   4.740   0.927  12.852 -0.6586 -0.6407 -0.1929
   32DOPE    HX 4027   4.716   1.035  12.838  1.2541  0.5105  3.8103
   32DOPE    HY 4028   4.819   0.910  12.776  0.3800 -0.4851  0.8138
   32DOPE   O31 4029   4.805   0.902  12.983  0.8893  0.3319 -0.1725
   32DOPE   C31 4030   4.756   0.984  13.078 -0.4192 -0.8857 -0.1066
   32DOPE   O32 4031   4.680   1.078  13.059 -0.2906 -0.4970  0.2311
   32DOPE   C32 4032   4.802   0.949  13.213  0.1440  0.7583 -0.0588
   32DOPE   H2X 4033   4.709   0.947  13.273 -0.5223  0.7548 -1.0516
   32DOPE   H2Y 4034   4.856   0.853  13.210 -1.1892 -0.0230  0.0569
   32DOPE   C23 4035   4.272   0.949  13.159 -0.3636 -0.2125 -0.0505
   32DOPE   H3R 4036   4.255   0.854  13.214 -1.3325 -1.9449 -3.0407
   32DOPE   H3S 4037   4.171   0.994  13.154  0.0297  0.5644 -2.3292
   32DOPE   C24 4038   4.359   1.050  13.241  0.1163  0.0234  0.0666
   32DOPE   H4R 4039   4.377   1.138  13.176 -3.4862  1.7017  1.0707
   32DOPE   H4S 4040   4.458   1.004  13.259 -0.0483 -0.6485 -0.7078
   32DOPE   C25 4041   4.278   1.101  13.366 -0.3638 -0.0719  0.4278
   32DOPE   H5R 4042   4.171   1.122  13.343  0.3050  1.5906 -1.5254
   32DOPE   H5S 4043   4.323   1.193  13.410 -0.6493 -0.2610  1.1195
   32DOPE   C26 4044   4.273   1.007  13.485  0.0487  0.9703 -0.2760
   32DOPE   H6R 4045   4.374   0.977  13.520 -0.6214  0.7124  1.5646
   32DOPE   H6S 4046   4.213   0.914  13.471  0.6885  0.2480  1.3979
   32DOPE   C27 4047   4.207   1.082  13.603 -0.6671  1.0163 -0.0743
   32DOPE   H7R 4048   4.101   1.081  13.570 -0.4953 -1.7485 -0.8468
   32DOPE   H7S 4049   4.249   1.185  13.604  1.3913  0.2402  0.3325
   32DOPE   C28 4050   4.215   1.000  13.738  0.7236  0.5301 -0.7680
   32DOPE   H8R 4051   4.183   0.894  13.734 -0.0033  0.7244 -0.2607
   32DOPE   H8S 4052   4.138   1.054  13.797  0.2597 -1.3337  0.3840
   32DOPE   C29 4053   4.341   1.009  13.808  0.0271 -0.6437 -0.0801
   32DOPE   H9R 4054   4.425   0.971  13.748  0.6081 -1.0032  0.9268
   32DOPE  C210 4055   4.364   1.058  13.934  0.6114 -0.3072 -0.6197
   32DOPE  H10R 4056   4.468   1.050  13.972  0.3689 -1.8695 -0.1742
   32DOPE  C211 4057   4.270   1.119  14.030 -0.7241 -0.1503 -0.3316
   32DOPE  H11R 4058   4.170   1.150  13.994  0.3543  2.3408 -1.4908
   32DOPE  H11S 4059   4.316   1.212  14.070  1.9331 -1.6240  0.2909
   32DOPE  C212 4060   4.250   1.034  14.158 -0.7985 -0.0745 -0.1532
   32DOPE  H12R 4061   4.352   1.031  14.203 -1.3771 -3.5216  1.2777
   32DOPE  H12S 4062   4.217   0.928  14.145 -2.0015 -0.1508  2.7367
   32DOPE  C213 4063   4.157   1.100  14.260  0.0885  0.1829  0.4390
   32DOPE  H13R 4064   4.056   1.107  14.214 -0.5662  1.6463  1.9680
   32DOPE  H13S 4065   4.198   1.200  14.287  1.7158  0.0398 -1.3491
   32DOPE  C214 4066   4.157   1.028  14.393  0.0785  0.6151  0.1622
   32DOPE  H14R 4067   4.262   1.037  14.429 -0.0677 -0.5481  0.9121
   32DOPE  H14S 4068   4.128   0.923  14.371  0.3124  0.0648  2.2473
   32DOPE  C215 4069   4.058   1.084  14.497 -0.3865 -0.3931 -0.4995
   32DOPE  H15R 4070   3.952   1.073  14.464 -0.5394 -1.7560  0.3847
   32DOPE  H15S 4071   4.079   1.192  14.509  0.5611 -0.8109  2.1760
   32DOPE  C216 4072   4.066   1.027  14.642  0.1921 -0.0157  0.0106
   32DOPE  H16R 4073   4.168   1.046  14.682  0.3445 -0.1552 -0.3066
   32DOPE  H16S 4074   4.054   0.917  14.642  0.9675 -0.1142 -0.7823
   32DOPE  C217 4075   3.982   1.106  14.751 -0.1082  0.5045  0.7267
   32DOPE  H17R 4076   3.872   1.097  14.735 -0.1875 -1.6455  2.1079
   32DOPE  H17S 4077   4.013   1.211  14.735 -0.0324  0.3326 -0.3511
   32DOPE  C218 4078   4.025   1.069  14.891  0.3848  0.3746  0.0279
   32DOPE  H18R 4079   3.965   1.134  14.958 -1.4865 -0.9522 -0.3012
   32DOPE  H18S 4080   4.128   1.104  14.915 -0.0379  0.9420  1.0199
   32DOPE  H18T 4081   4.006   0.962  14.916 -0.1390  0.2452 -0.8646
   32DOPE   C33 4082   4.898   1.051  13.282  0.2899  0.6388  0.7448
   32DOPE   H3X 4083   4.840   1.145  13.294  1.9523  1.8291  0.0319
   32DOPE   H3Y 4084   4.981   1.078  13.212 -0.9636  0.4674 -0.8626
   32DOPE   C34 4085   4.955   0.996  13.406  0.8336 -0.0852  0.0354
   32DOPE   H4X 4086   4.999   0.897  13.382 -1.8606 -1.3936  0.0952
   32DOPE   H4Y 4087   5.032   1.066  13.444  1.7099 -1.3850  0.7194
   32DOPE   C35 4088   4.849   0.976  13.512 -0.5346 -0.4831  0.6876
   32DOPE   H5X 4089   4.799   0.878  13.504 -0.2944 -0.5034 -0.8826
   32DOPE   H5Y 4090   4.769   1.051  13.527 -3.1740 -2.9483 -0.3113
   32DOPE   C36 4091   4.923   0.952  13.641  0.5615  0.6146  0.0017
   32DOPE   H6X 4092   4.965   1.047  13.680  1.0155  1.1327 -1.6403
   32DOPE   H6Y 4093   5.006   0.881  13.619  1.0507  0.7066  1.4423
   32DOPE   C37 4094   4.839   0.884  13.752  0.2168  0.5456  0.5256
   32DOPE   H7X 4095   4.810   0.779  13.729 -0.2460  1.1209 -1.7647
   32DOPE   H7Y 4096   4.897   0.882  13.847 -0.1935 -0.6430  0.7763
   32DOPE   C38 4097   4.705   0.954  13.789 -0.0124 -0.5047  0.2551
   32DOPE   H8X 4098   4.645   0.890  13.857 -0.3187  0.8081  1.2668
   32DOPE   H8Y 4099   4.648   0.964  13.694  0.5760 -0.1032 -0.0573
   32DOPE   C39 4100   4.723   1.086  13.859 -0.6664 -0.5081 -0.2530
   32DOPE   H9X 4101   4.726   1.178  13.799  0.2303  0.3566  1.0558
   32DOPE  C310 4102   4.763   1.109  13.987 -0.1401 -0.2644  0.4192
   32DOPE  H10X 4103   4.778   1.211  14.025 -0.8751 -0.0753  0.2028
   32DOPE  C311 4104   4.783   1.003  14.095  0.5215  0.1938  0.2359
   32DOPE  H11X 4105   4.764   0.898  14.060 -1.7860  0.6451 -0.0666
   32DOPE  H11Y 4106   4.882   1.014  14.142 -1.1191  1.4446  3.7166
   32DOPE  C312 4107   4.683   1.027  14.210  0.0206  0.4254  0.1734
   32DOPE  H12X 4108   4.579   1.005  14.178  0.4605 -2.3319  0.3849
   32DOPE  H12Y 4109   4.701   1.133  14.239 -0.1723  0.4549  0.1838
   32DOPE  C313 4110   4.705   0.946  14.333  0.0818 -0.8852  0.4597
   32DOPE  H13X 4111   4.663   0.844  14.321 -0.4065 -0.5941 -0.4800
   32DOPE  H13Y 4112   4.814   0.943  14.354  0.4796 -0.5491 -1.3348
   32DOPE  C314 4113   4.631   1.001  14.446 -0.3011  0.6503  0.4411
   32DOPE  H14X 4114   4.524   1.018  14.420 -0.3690 -0.5594 -0.1447
   32DOPE  H14Y 4115   4.687   1.091  14.481  2.3515 -0.0689 -1.6228
   32DOPE  C315 4116   4.639   0.901  14.565 -0.4937 -0.3379  0.4867
   32DOPE  H15X 4117   4.740   0.858  14.553 -0.6660 -0.5927 -0.0640
   32DOPE  H15Y 4118   4.570   0.816  14.547 -0.3639 -0.4772  0.6566
   32DOPE  C316 4119   4.614   0.965  14.698 -0.2835  0.6633 -0.3856
   32DOPE  H16X 4120   4.691   1.044  14.714 -0.0836  1.0970 -3.0577
   32DOPE  H16Y 4121   4.625   0.907  14.792  2.7872  0.4266 -0.7900
   32DOPE  C317 4122   4.473   1.027  14.711 -0.6995 -0.3314  0.4389
   32DOPE  H17X 4123   4.477   1.103  14.630  3.3496  1.4286  2.0046
   32DOPE  H17Y 4124   4.404   0.940  14.703 -0.2529 -0.8794  2.0373
   32DOPE  C318 4125   4.441   1.091  14.849 -0.1246 -0.6069  0.2436
   32DOPE  H18X 4126   4.516   1.166  14.883 -1.1110  0.3590  0.3382
   32DOPE  H18Y 4127   4.348   1.150  14.858  0.7412  0.7600  0.5195
   32DOPE  H18Z 4128   4.440   1.018  14.933 -1.9877  2.5777  3.2339
   33DOPE     N 4129   2.758   5.331  12.798  0.2370  0.3517  0.1134
   33DOPE   HN1 4130   2.671   5.330  12.855  0.6151 -1.1434  0.7303
   33DOPE   HN2 4131   2.722   5.313  12.702 -1.0959 -0.8496  0.8063
   33DOPE   HN3 4132   2.819   5.252  12.828 -1.3845 -0.9919 -0.0057
   33DOPE   C12 4133   2.823   5.465  12.811 -0.2195  0.3431 -0.0223
   33DOPE  H12A 4134   2.920   5.463  12.758  0.4582 -2.6380  1.1377
   33DOPE  H12B 4135   2.850   5.477  12.918 -0.2582 -0.5982  0.1005
   33DOPE   C11 4136   2.733   5.594  12.781  0.5480 -0.0330 -0.1109
   33DOPE  H11A 4137   2.696   5.574  12.678  0.8181  0.2537 -0.2622
   33DOPE  H11B 4138   2.800   5.683  12.784 -0.4710  0.7687 -0.5121
   33DOPE     P 4139   2.562   5.742  12.915 -0.1002  0.1648  0.1537
   33DOPE   O13 4140   2.421   5.716  12.952 -0.1482  0.0743  0.4836
   33DOPE   O14 4141   2.579   5.831  12.799  0.1536  0.6835  0.0210
   33DOPE   O11 4142   2.636   5.794  13.047  0.3345 -0.3322 -0.0580
   33DOPE   O12 4143   2.630   5.605  12.885  0.3729  0.6377  0.2174
   33DOPE    C1 4144   2.748   5.878  13.027  0.1816 -0.2892 -0.0986
   33DOPE    HA 4145   2.740   5.939  12.935 -3.0324 -2.1221 -1.1648
   33DOPE    HB 4146   2.845   5.824  13.023  1.0813  1.3103 -1.1415
   33DOPE    C2 4147   2.742   5.977  13.151 -1.0108 -0.0691 -0.0220
   33DOPE    HS 4148   2.820   6.054  13.132  1.2628 -1.7067  1.9813
   33DOPE   O21 4149   2.771   5.911  13.277 -1.1345 -0.1763 -0.5379
   33DOPE   C21 4150   2.890   5.857  13.286 -0.0986  0.7442 -0.0470
   33DOPE   O22 4151   2.987   5.868  13.211  0.4961  0.0542 -0.7617
   33DOPE   C22 4152   2.902   5.769  13.412 -0.4697 -0.0121  0.3938
   33DOPE   H2R 4153   3.008   5.752  13.438 -0.6100 -1.9532 -0.1497
   33DOPE   H2S 4154   2.846   5.675  13.394  2.3767 -1.6000 -0.8728
   33DOPE    C3 4155   2.609   6.053  13.148 -0.9458 -0.6526 -0.7202
   33DOPE    HX 4156   2.519   5.989  13.145  0.1058 -2.4848  2.2950
   33DOPE    HY 4157   2.605   6.103  13.049  1.3036 -2.1123 -1.6279
   33DOPE   O31 4158   2.590   6.139  13.270 -0.3827 -0.1168  0.4221
   33DOPE   C31 4159   2.527   6.073  13.371  0.5009  0.4776 -0.2709
   33DOPE   O32 4160   2.473   5.963  13.369  0.5925  0.4491  0.7459
   33DOPE   C32 4161   2.515   6.167  13.496  0.7060 -0.0195 -0.5210
   33DOPE   H2X 4162   2.614   6.211  13.523  0.6916 -1.3294  1.9523
   33DOPE   H2Y 4163   2.437   6.246  13.493 -0.6309 -1.1448  1.8530
   33DOPE   C23 4164   2.833   5.837  13.540  0.0908 -0.0383  0.1358
   33DOPE   H3R 4165   2.722   5.837  13.530 -0.0243  0.3095  1.3446
   33DOPE   H3S 4166   2.871   5.941  13.548  2.8424 -1.0753  1.7745
   33DOPE   C24 4167   2.866   5.774  13.668  0.5664  0.0406  0.1519
   33DOPE   H4R 4168   2.977   5.777  13.667  0.6389  3.6528  1.8215
   33DOPE   H4S 4169   2.830   5.669  13.679 -0.7085  0.6042  1.7269
   33DOPE   C25 4170   2.817   5.847  13.792 -0.0923 -0.1793  0.1886
   33DOPE   H5R 4171   2.707   5.848  13.776 -0.3874  0.3107  2.0142
   33DOPE   H5S 4172   2.854   5.951  13.787 -3.1763  0.9959 -0.9431
   33DOPE   C26 4173   2.848   5.778  13.925 -0.4880  0.3436 -0.1787
   33DOPE   H6R 4174   2.941   5.719  13.934 -0.6813  0.0503 -0.0911
   33DOPE   H6S 4175   2.760   5.711  13.930 -0.6480  0.6376  1.2822
   33DOPE   C27 4176   2.847   5.887  14.037 -0.0361 -0.3954  0.2716
   33DOPE   H7R 4177   2.757   5.946  14.011  1.3413  0.8734 -1.9030
   33DOPE   H7S 4178   2.942   5.944  14.026 -0.6342  0.5563 -0.0134
   33DOPE   C28 4179   2.838   5.828  14.175  0.6421 -0.4042  0.5617
   33DOPE   H8R 4180   2.738   5.783  14.190 -0.5599  1.4984 -1.2432
   33DOPE   H8S 4181   2.848   5.895  14.263 -1.5130 -1.9496  2.0997
   33DOPE   C29 4182   2.947   5.728  14.200  0.1002  0.1351  0.6701
   33DOPE   H9R 4183   3.025   5.724  14.123  0.3862  1.7776  0.8467
   33DOPE  C210 4184   2.956   5.638  14.301  0.1408  0.0941 -0.2607
   33DOPE  H10R 4185   3.039   5.566  14.313 -0.7797 -0.7596  1.2419
   33DOPE  C211 4186   2.863   5.627  14.420  0.1366 -0.7038 -0.1104
   33DOPE  H11R 4187   2.814   5.527  14.425 -0.9519 -0.1337  1.4598
   33DOPE  H11S 4188   2.782   5.701  14.404 -0.0333 -0.5254  1.3804
   33DOPE  C212 4189   2.937   5.661  14.550 -0.2578  0.3661 -0.7570
   33DOPE  H12R 4190   2.985   5.761  14.536  0.6318 -0.0898 -0.9860
   33DOPE  H12S 4191   3.019   5.591  14.575  0.3368  1.8972  2.0532
   33DOPE  C213 4192   2.844   5.678  14.676 -0.9431 -0.2131  0.2088
   33DOPE  H13R 4193   2.823   5.579  14.722  0.2983  0.0921  1.5257
   33DOPE  H13S 4194   2.743   5.705  14.639 -0.4534 -0.9754 -1.8338
   33DOPE  C214 4195   2.889   5.793  14.760 -0.1254  0.0609 -0.2032
   33DOPE  H14R 4196   2.894   5.881  14.693 -0.3896 -0.7395 -1.3040
   33DOPE  H14S 4197   2.993   5.786  14.798 -0.2427  0.5049  0.2036
   33DOPE  C215 4198   2.806   5.806  14.889 -0.4329  0.2663 -0.1455
   33DOPE  H15R 4199   2.826   5.718  14.952 -0.8844 -0.1911 -0.6275
   33DOPE  H15S 4200   2.706   5.806  14.840  0.3302 -2.3871 -1.9128
   33DOPE  C216 4201   2.821   5.928  14.987 -0.5272  0.1111  0.0090
   33DOPE  H16R 4202   2.767   6.011  14.939 -1.6288 -0.2264  0.6273
   33DOPE  H16S 4203   2.927   5.960  14.974 -0.2113 -1.0813 -0.4525
   33DOPE  C217 4204   2.773   5.918  15.130  0.2928  0.6372  0.3426
   33DOPE  H17R 4205   2.840   5.837  15.165 -3.4363 -2.4859  0.8394
   33DOPE  H17S 4206   2.668   5.885  15.145  0.9090 -1.2837  0.7379
   33DOPE  C218 4207   2.788   6.057  15.192 -0.2478  0.2568  0.0440
   33DOPE  H18R 4208   2.717   6.125  15.140 -1.2564 -0.3361  0.6009
   33DOPE  H18S 4209   2.893   6.090  15.186 -0.1782 -0.0199 -0.2363
   33DOPE  H18T 4210   2.753   6.050  15.298  0.2165 -1.5508  0.1176
   33DOPE   C33 4211   2.474   6.089  13.625 -0.0302  0.1056  0.5230
   33DOPE   H3X 4212   2.539   6.001  13.643  0.2604  0.0709 -0.6412
   33DOPE   H3Y 4213   2.378   6.036  13.608 -0.2764  1.0197 -1.0778
   33DOPE   C34 4214   2.486   6.170  13.758 -0.7732  0.2268  0.1931
   33DOPE   H4X 4215   2.577   6.234  13.749 -1.7759  1.6455 -0.1864
   33DOPE   H4Y 4216   2.394   6.230  13.769 -0.0109  0.9692  3.7995
   33DOPE   C35 4217   2.495   6.078  13.882 -0.9003 -0.1546  0.1715
   33DOPE   H5X 4218   2.599   6.059  13.918 -0.2903  1.7335 -0.4775
   33DOPE   H5Y 4219   2.447   5.979  13.863  3.0151 -2.1903 -0.3114
   33DOPE   C36 4220   2.442   6.136  14.013  0.3118  0.5188 -0.8136
   33DOPE   H6X 4221   2.350   6.197  13.999 -1.8523 -2.7889 -2.4926
   33DOPE   H6Y 4222   2.521   6.205  14.049  0.4686  0.1305 -0.4120
   33DOPE   C37 4223   2.418   6.017  14.117 -0.3523  0.0875  0.3391
   33DOPE   H7X 4224   2.337   5.949  14.083  0.5060 -0.6121 -0.3520
   33DOPE   H7Y 4225   2.511   5.961  14.142 -0.3362  0.2858  0.7268
   33DOPE   C38 4226   2.379   6.081  14.248  0.5143 -0.5682 -0.6163
   33DOPE   H8X 4227   2.285   6.139  14.238  0.9874  0.3631  0.1587
   33DOPE   H8Y 4228   2.456   6.149  14.290 -1.6910  1.2842  0.6955
   33DOPE   C39 4229   2.350   5.978  14.351  0.1151  0.7795 -0.3510
   33DOPE   H9X 4230   2.294   5.894  14.308  1.0079 -0.5873  1.0496
   33DOPE  C310 4231   2.414   5.956  14.473  0.7210  0.2234  1.0755
   33DOPE  H10X 4232   2.371   5.878  14.536  0.2488 -0.1340  0.3231
   33DOPE  C311 4233   2.522   6.041  14.544 -0.1729  0.2946 -0.3661
   33DOPE  H11X 4234   2.623   6.005  14.515 -0.6765 -0.2813 -1.4721
   33DOPE  H11Y 4235   2.532   6.145  14.506 -0.8624  0.6760  0.4643
   33DOPE  C312 4236   2.504   6.051  14.697  0.4195  0.2192  0.5861
   33DOPE  H12X 4237   2.602   6.060  14.748 -0.2129 -1.0503  2.1229
   33DOPE  H12Y 4238   2.456   5.959  14.738  0.9673 -1.8047 -2.9181
   33DOPE  C313 4239   2.423   6.168  14.748  0.2317  0.8364 -0.4664
   33DOPE  H13X 4240   2.460   6.257  14.692 -0.5140 -0.1441 -2.6499
   33DOPE  H13Y 4241   2.314   6.158  14.730 -0.1559  1.9923  0.9903
   33DOPE  C314 4242   2.432   6.191  14.904  0.2206 -0.3080 -0.3611
   33DOPE  H14X 4243   2.541   6.201  14.924 -0.2309 -0.0065  2.2363
   33DOPE  H14Y 4244   2.409   6.093  14.949  2.0190 -1.6856 -2.2316
   33DOPE  C315 4245   2.342   6.304  14.953 -0.7011  0.7962  0.5486
   33DOPE  H15X 4246   2.235   6.274  14.944 -0.6805  0.9710 -0.3483
   33DOPE  H15Y 4247   2.356   6.389  14.883  0.6693 -0.4008 -0.7009
   33DOPE  C316 4248   2.385   6.342  15.095 -0.3926  0.3818 -0.0990
   33DOPE  H16X 4249   2.346   6.436  15.141  1.5981  0.3243  1.8905
   33DOPE  H16Y 4250   2.496   6.352  15.094 -0.1142 -2.0175 -2.2947
   33DOPE  C317 4251   2.356   6.236  15.210  0.7355 -0.5431 -0.0506
   33DOPE  H17X 4252   2.416   6.144  15.192  0.2464 -0.6781 -1.0137
   33DOPE  H17Y 4253   2.395   6.276  15.306  0.2857 -1.5462  0.5618
   33DOPE  C318 4254   2.210   6.203  15.218 -0.1779 -0.0652 -0.4210
   33DOPE  H18X 4255   2.189   6.139  15.307 -3.3025  3.8644  2.0180
   33DOPE  H18Y 4256   2.152   6.298  15.219  0.6944  0.4784 -0.2343
   33DOPE  H18Z 4257   2.178   6.161  15.120  3.9624  0.3029 -2.1328
   34DOPE     N 4258   1.005   0.394  13.132 -0.2565 -0.3802  0.2406
   34DOPE   HN1 4259   0.919   0.337  13.148 -0.2814 -1.3356 -2.7605
   34DOPE   HN2 4260   1.013   0.480  13.189  1.2396  0.9543 -1.8435
   34DOPE   HN3 4261   1.002   0.418  13.031 -0.7052  0.6889  0.4912
   34DOPE   C12 4262   1.126   0.311  13.168 -0.0764  0.0795  0.9096
   34DOPE  H12A 4263   1.214   0.379  13.157 -0.6499  0.8033  0.7209
   34DOPE  H12B 4264   1.136   0.222  13.102  1.1248  0.5236  0.4693
   34DOPE   C11 4265   1.132   0.274  13.311 -0.6080  0.2568 -0.1344
   34DOPE  H11A 4266   1.125   0.368  13.370  0.1164 -0.3203  0.9067
   34DOPE  H11B 4267   1.233   0.234  13.336  0.0101  1.3211 -0.8532
   34DOPE     P 4268   1.070   0.027  13.340 -0.3842 -0.3884  0.1783
   34DOPE   O13 4269   1.161  -0.004  13.225  0.1192 -0.1143  0.3033
   34DOPE   O14 4270   0.946  -0.049  13.342  0.3130 -0.2905 -0.3737
   34DOPE   O11 4271   1.155   0.006  13.469 -0.5410  0.0436  0.5271
   34DOPE   O12 4272   1.025   0.180  13.343 -0.2612 -0.2263 -0.5524
   34DOPE    C1 4273   1.108   0.021  13.605  0.9003 -0.3220  1.0719
   34DOPE    HA 4274   1.085  -0.080  13.644  0.3716 -0.2949  0.8372
   34DOPE    HB 4275   1.008   0.068  13.617  1.4663  1.0097  0.8012
   34DOPE    C2 4276   1.212   0.094  13.691  0.5639  0.2492  0.0645
   34DOPE    HS 4277   1.307   0.038  13.702  0.8210  0.9708  1.7879
   34DOPE   O21 4278   1.138   0.124  13.813  0.0032  0.4639  0.0051
   34DOPE   C21 4279   1.187   0.053  13.921 -0.2853  0.4062  0.0045
   34DOPE   O22 4280   1.258  -0.044  13.921 -0.3269 -0.1009  0.1735
   34DOPE   C22 4281   1.150   0.131  14.043 -0.2730 -0.9525 -0.0385
   34DOPE   H2R 4282   1.042   0.151  14.056 -0.3542 -2.1208  1.3463
   34DOPE   H2S 4283   1.208   0.226  14.050  1.2617 -1.9306  1.3047
   34DOPE    C3 4284   1.253   0.227  13.633  0.5412  0.1039  0.0899
   34DOPE    HX 4285   1.161   0.288  13.621 -0.4050 -1.4756 -0.9435
   34DOPE    HY 4286   1.289   0.227  13.528 -0.4756  0.9304 -0.2718
   34DOPE   O31 4287   1.335   0.306  13.724 -0.4886 -0.2023 -0.5262
   34DOPE   C31 4288   1.465   0.278  13.719  0.9253 -0.3188  0.2803
   34DOPE   O32 4289   1.515   0.205  13.631 -0.3340 -0.2052  0.6036
   34DOPE   C32 4290   1.529   0.340  13.842  0.8072  0.6853 -0.1750
   34DOPE   H2X 4291   1.635   0.366  13.826  1.4917 -0.7786  1.6835
   34DOPE   H2Y 4292   1.476   0.434  13.869 -0.8333 -0.4321  0.6693
   34DOPE   C23 4293   1.177   0.039  14.162  0.7039 -0.3455 -0.1740
   34DOPE   H3R 4294   1.277  -0.008  14.169  0.8297 -0.2688 -1.3206
   34DOPE   H3S 4295   1.101  -0.041  14.170 -0.4733  0.7876  0.3126
   34DOPE   C24 4296   1.174   0.136  14.290  0.4535 -0.7928  0.2228
   34DOPE   H4R 4297   1.075   0.187  14.284  1.4404  1.1127 -3.3635
   34DOPE   H4S 4298   1.250   0.217  14.294  0.4459 -0.8340  3.4109
   34DOPE   C25 4299   1.185   0.053  14.419 -0.1368 -0.5638  0.3369
   34DOPE   H5R 4300   1.293   0.027  14.422 -0.0805 -0.4128 -0.2237
   34DOPE   H5S 4301   1.120  -0.035  14.397  2.5619 -2.3829 -0.8064
   34DOPE   C26 4302   1.141   0.138  14.536 -0.4936 -0.0494  0.8756
   34DOPE   H6R 4303   1.032   0.163  14.535 -0.5596 -0.0806  2.7359
   34DOPE   H6S 4304   1.201   0.231  14.524 -0.9251  0.1065 -0.1570
   34DOPE   C27 4305   1.172   0.070  14.669  0.2610  0.0050 -0.4114
   34DOPE   H7R 4306   1.265   0.109  14.715  0.5320  0.9005 -1.6589
   34DOPE   H7S 4307   1.193  -0.038  14.658  0.0379  0.1362 -2.6334
   34DOPE   C28 4308   1.060   0.082  14.768  0.0308 -0.8380 -0.4385
   34DOPE   H8R 4309   1.080   0.022  14.860 -0.7381  0.6261  0.7167
   34DOPE   H8S 4310   0.966   0.045  14.723 -1.3736  1.3123  0.5837
   34DOPE   C29 4311   1.030   0.228  14.807  0.3609  0.3581  0.2486
   34DOPE   H9R 4312   0.990   0.288  14.723  0.8845 -1.9773 -1.7904
   34DOPE  C210 4313   1.042   0.280  14.928  0.1762  0.4025  0.3576
   34DOPE  H10R 4314   1.012   0.385  14.932  1.8092  1.1497 -3.0903
   34DOPE  C211 4315   1.111   0.223  15.049 -0.0167  0.1028  0.1924
   34DOPE  H11R 4316   1.172   0.304  15.094  2.2115 -1.5718  0.3472
   34DOPE  H11S 4317   1.184   0.144  15.019  0.5584  0.4025  0.7993
   34DOPE  C212 4318   1.009   0.158  15.144 -0.4898  0.0753  0.5997
   34DOPE  H12R 4319   0.924   0.227  15.163 -0.4342 -0.3520  2.5650
   34DOPE  H12S 4320   1.071   0.153  15.236  0.0509 -0.2069  0.2321
   34DOPE  C213 4321   0.967   0.018  15.115 -0.4476  0.6974 -0.0727
   34DOPE  H13R 4322   1.060  -0.029  15.075 -0.9188 -0.5064  0.1965
   34DOPE  H13S 4323   0.889   0.030  15.037 -0.0307  1.9752 -0.3151
   34DOPE  C214 4324   0.919  -0.057  15.234  0.4871  0.0316 -0.3632
   34DOPE  H14R 4325   0.812  -0.033  15.253  0.2850 -1.0304 -0.0766
   34DOPE  H14S 4326   0.982  -0.028  15.321  0.1027 -0.4122  0.0726
   34DOPE  C215 4327   0.959  -0.203  15.238  0.1157 -0.2768  0.4734
   34DOPE  H15R 4328   1.068  -0.222  15.252  0.2023  0.3150  0.6305
   34DOPE  H15S 4329   0.936  -0.238  15.136  1.9432  1.3467 -0.5629
   34DOPE  C216 4330   0.881  -0.282  15.338 -0.2614  0.2004 -0.4319
   34DOPE  H16R 4331   0.905  -0.390  15.329  1.0928  0.4492  0.0076
   34DOPE  H16S 4332   0.774  -0.253  15.332 -0.0755  1.3210  1.1713
   34DOPE  C217 4333   0.925  -0.249  15.486 -0.0106 -0.1032 -0.4197
   34DOPE  H17R 4334   0.911  -0.141  15.510 -0.3642  0.1006 -1.5177
   34DOPE  H17S 4335   1.029  -0.274  15.517 -0.4192  0.5279  1.6463
   34DOPE  C218 4336   0.832  -0.335  15.576  0.3682  0.3167  0.6615
   34DOPE  H18R 4337   0.733  -0.285  15.571  0.9722  1.4214 -0.9241
   34DOPE  H18S 4338   0.855  -0.336  15.685  1.8578  1.7903  0.4105
   34DOPE  H18T 4339   0.839  -0.438  15.536  0.8490  0.4250  0.4485
   34DOPE   C33 4340   1.531   0.246  13.966  0.6946  0.1769 -0.0219
   34DOPE   H3X 4341   1.613   0.177  13.939  0.9118 -0.1734  1.4414
   34DOPE   H3Y 4342   1.435   0.192  13.980  0.2145  1.1955  0.8307
   34DOPE   C34 4343   1.565   0.324  14.095 -0.1657  0.5621 -0.4724
   34DOPE   H4X 4344   1.656   0.388  14.087 -0.8515  1.3282 -2.6204
   34DOPE   H4Y 4345   1.484   0.395  14.121 -2.1120 -1.6116 -0.2248
   34DOPE   C35 4346   1.563   0.233  14.221 -0.3025  0.3889  0.2939
   34DOPE   H5X 4347   1.638   0.152  14.205 -0.9676  0.0377 -1.2729
   34DOPE   H5Y 4348   1.466   0.179  14.231  0.8973 -1.7150  1.1820
   34DOPE   C36 4349   1.591   0.312  14.345 -0.4304 -0.2806 -0.4158
   34DOPE   H6X 4350   1.535   0.407  14.344 -0.3109 -0.1956  0.4446
   34DOPE   H6Y 4351   1.698   0.338  14.358 -0.4538 -0.6659  0.6616
   34DOPE   C37 4352   1.559   0.220  14.461 -0.2257 -0.3674 -0.5127
   34DOPE   H7X 4353   1.449   0.210  14.462 -0.1353 -1.5049 -0.6194
   34DOPE   H7Y 4354   1.600   0.116  14.455  0.4531 -0.0451 -2.5588
   34DOPE   C38 4355   1.616   0.280  14.595 -0.3629  0.2590 -0.1313
   34DOPE   H8X 4356   1.724   0.293  14.575 -0.2731  0.7711  0.6086
   34DOPE   H8Y 4357   1.612   0.198  14.670 -1.7944  0.7393  0.3533
   34DOPE   C39 4358   1.549   0.405  14.635  0.1239 -0.3402 -0.1843
   34DOPE   H9X 4359   1.572   0.495  14.576 -1.5251  0.6974  0.6739
   34DOPE  C310 4360   1.472   0.429  14.741  0.1205 -0.1697  0.1281
   34DOPE  H10X 4361   1.425   0.529  14.745  1.8380  0.6224  2.3447
   34DOPE  C311 4362   1.430   0.328  14.843  0.2046 -0.7788 -0.4210
   34DOPE  H11X 4363   1.320   0.315  14.854  0.0775 -0.5223 -1.2847
   34DOPE  H11Y 4364   1.459   0.225  14.817  0.0022 -1.1975  0.9457
   34DOPE  C312 4365   1.479   0.365  14.990 -0.1306 -0.4394  0.7987
   34DOPE  H12X 4366   1.401   0.324  15.059 -0.8222  0.2632  0.4520
   34DOPE  H12Y 4367   1.478   0.476  14.991  0.7984 -0.3209 -2.2524
   34DOPE  C313 4368   1.616   0.316  15.015  0.1442  0.0541  0.7405
   34DOPE  H13X 4369   1.613   0.205  15.023 -0.1641 -0.0314 -0.3990
   34DOPE  H13Y 4370   1.685   0.336  14.930  0.9130 -0.6618  1.1785
   34DOPE  C314 4371   1.675   0.356  15.151 -0.1985 -0.6415  0.1376
   34DOPE  H14X 4372   1.663   0.464  15.176 -4.3597 -1.0690  0.7011
   34DOPE  H14Y 4373   1.779   0.322  15.137 -0.8591 -2.1866 -1.3124
   34DOPE  C315 4374   1.622   0.276  15.265 -0.3082  0.1713 -0.7562
   34DOPE  H15X 4375   1.619   0.173  15.225  2.3661 -0.3507  0.2140
   34DOPE  H15Y 4376   1.516   0.308  15.277  0.0494  0.7790  1.1043
   34DOPE  C316 4377   1.715   0.290  15.385  0.4323  0.0390  0.4615
   34DOPE  H16X 4378   1.699   0.394  15.421  1.0966  0.4764 -0.4747
   34DOPE  H16Y 4379   1.822   0.275  15.358  0.2480 -1.1916  0.3581
   34DOPE  C317 4380   1.667   0.189  15.491  0.1585 -0.6419 -0.6494
   34DOPE  H17X 4381   1.564   0.215  15.522  0.3842 -1.4179  0.8744
   34DOPE  H17Y 4382   1.677   0.086  15.451 -0.5728 -1.0264  0.1158
   34DOPE  C318 4383   1.751   0.190  15.619 -0.2490 -0.5378  0.7547
   34DOPE  H18X 4384   1.766   0.293  15.659 -1.7701  0.6815 -1.5756
   34DOPE  H18Y 4385   1.707   0.123  15.695 -1.2510 -0.4060  0.2990
   34DOPE  H18Z 4386   1.855   0.152  15.608 -0.4484 -0.4267 -2.4909
   35DOPE     N 4387   3.815   0.508  12.390 -0.1095 -0.4787  0.3101
   35DOPE   HN1 4388   3.856   0.503  12.485  1.2045  2.4715  0.0169
   35DOPE   HN2 4389   3.785   0.607  12.382  0.6314 -0.2732 -0.0418
   35DOPE   HN3 4390   3.727   0.453  12.379 -0.0984 -0.6043  0.8471
   35DOPE   C12 4391   3.918   0.471  12.288 -0.4703 -1.0584  0.0799
   35DOPE  H12A 4392   4.000   0.545  12.298 -0.9103 -0.4868 -0.4092
   35DOPE  H12B 4393   3.881   0.477  12.183  1.7276 -3.2562 -0.9186
   35DOPE   C11 4394   3.964   0.322  12.306 -0.0763 -0.1584  0.2829
   35DOPE  H11A 4395   4.053   0.313  12.240  0.6361 -1.8666  1.4061
   35DOPE  H11B 4396   3.887   0.250  12.271 -0.2955 -0.5167  1.4739
   35DOPE     P 4397   4.155   0.316  12.492  0.0239 -0.0243 -0.2521
   35DOPE   O13 4398   4.157   0.450  12.552  0.1411  0.0926  0.3285
   35DOPE   O14 4399   4.243   0.289  12.376 -0.1379 -0.1552 -0.3032
   35DOPE   O11 4400   4.175   0.201  12.604  0.1536 -0.8034  0.4673
   35DOPE   O12 4401   4.002   0.293  12.440 -0.0151  0.7343  0.3914
   35DOPE    C1 4402   4.075   0.169  12.699 -0.5646  0.2296  0.1792
   35DOPE    HA 4403   4.064   0.059  12.704  1.2603 -0.0134 -0.5046
   35DOPE    HB 4404   3.976   0.205  12.663  0.4720  2.7741 -0.3245
   35DOPE    C2 4405   4.108   0.210  12.844 -0.5681 -0.5701  0.2022
   35DOPE    HS 4406   4.099   0.320  12.855  1.3932  0.0956 -3.2100
   35DOPE   O21 4407   4.241   0.155  12.873  0.4677 -0.1427 -0.4442
   35DOPE   C21 4408   4.304   0.217  12.968 -0.0815 -0.5431 -0.1611
   35DOPE   O22 4409   4.258   0.308  13.035 -0.1064 -0.1421 -0.1303
   35DOPE   C22 4410   4.431   0.141  13.003 -0.5412  0.5557 -0.2735
   35DOPE   H2R 4411   4.474   0.185  13.095  0.1127  1.0874 -0.8227
   35DOPE   H2S 4412   4.512   0.165  12.931  2.0730  1.6100  2.7656
   35DOPE    C3 4413   4.003   0.135  12.943  0.6133 -0.9639  0.8421
   35DOPE    HX 4414   4.013   0.024  12.933 -0.5352 -1.0332  0.3171
   35DOPE    HY 4415   3.901   0.157  12.905  0.2007 -3.0195  0.6085
   35DOPE   O31 4416   4.022   0.180  13.074 -0.3459 -0.2934 -0.1176
   35DOPE   C31 4417   3.950   0.274  13.118  0.1667 -0.1394 -0.2119
   35DOPE   O32 4418   3.860   0.339  13.062 -0.8060 -0.2982  0.2009
   35DOPE   C32 4419   3.990   0.300  13.274  0.0925 -1.2398 -0.3634
   35DOPE   H2X 4420   4.010   0.209  13.334 -1.1785 -0.0551  2.0062
   35DOPE   H2Y 4421   4.084   0.359  13.273 -1.6229  1.7108 -0.9883
   35DOPE   C23 4422   4.411  -0.008  13.014 -0.7782 -0.2080 -0.0776
   35DOPE   H3R 4423   4.516  -0.044  13.027  0.1721  2.5830  0.7655
   35DOPE   H3S 4424   4.375  -0.049  12.917  1.7336  2.0477 -2.1110
   35DOPE   C24 4425   4.333  -0.062  13.137 -0.4686 -0.2713  0.5557
   35DOPE   H4R 4426   4.352  -0.170  13.157 -2.2344 -0.5312  1.0837
   35DOPE   H4S 4427   4.224  -0.048  13.115 -1.0288 -0.4662  2.9368
   35DOPE   C25 4428   4.356   0.006  13.274 -0.7863 -0.2006  0.3396
   35DOPE   H5R 4429   4.301   0.103  13.280 -2.5424 -0.9885 -1.7502
   35DOPE   H5S 4430   4.466   0.016  13.288 -0.7102 -0.0210 -0.3613
   35DOPE   C26 4431   4.295  -0.081  13.384 -0.0404 -1.2332 -0.7718
   35DOPE   H6R 4432   4.375  -0.141  13.431 -0.4472 -0.0924  1.5405
   35DOPE   H6S 4433   4.212  -0.140  13.340  0.5478 -1.2069 -1.9337
   35DOPE   C27 4434   4.242   0.003  13.503 -0.4184  0.1380  0.1187
   35DOPE   H7R 4435   4.160   0.064  13.460 -2.2098 -3.2694 -1.6255
   35DOPE   H7S 4436   4.323   0.076  13.526 -0.4257  0.0432  0.4591
   35DOPE   C28 4437   4.213  -0.079  13.631 -0.1919  0.9145 -0.2223
   35DOPE   H8R 4438   4.185  -0.183  13.606 -1.5754  0.5327  2.5107
   35DOPE   H8S 4439   4.121  -0.042  13.682 -0.7681  0.6312 -1.0400
   35DOPE   C29 4440   4.331  -0.086  13.730  0.3978  0.5772 -0.2021
   35DOPE   H9R 4441   4.431  -0.059  13.691 -0.4019  1.0566 -1.9932
   35DOPE  C210 4442   4.329  -0.109  13.866  0.2557 -0.3975  0.8912
   35DOPE  H10R 4443   4.428  -0.112  13.913  1.4420  1.4489 -1.2944
   35DOPE  C211 4444   4.218  -0.137  13.961  0.1470 -0.4455 -0.5319
   35DOPE  H11R 4445   4.237  -0.238  14.005 -1.5733  0.4440  2.4968
   35DOPE  H11S 4446   4.115  -0.136  13.920 -0.0315 -0.7462 -0.1043
   35DOPE  C212 4447   4.239  -0.042  14.086  0.2531  0.3293 -0.2029
   35DOPE  H12R 4448   4.260   0.064  14.058  0.5102  0.2823 -0.1818
   35DOPE  H12S 4449   4.329  -0.083  14.135  0.6277  0.2542 -0.9453
   35DOPE  C213 4450   4.123  -0.047  14.179  0.4368 -0.0228 -0.1569
   35DOPE  H13R 4451   4.091  -0.152  14.192 -1.6822  0.6878  0.7224
   35DOPE  H13S 4452   4.036  -0.002  14.128 -1.1028  1.6464  3.6097
   35DOPE  C214 4453   4.153   0.033  14.307  0.0419 -1.0220 -0.1917
   35DOPE  H14R 4454   4.157   0.143  14.293  1.7093 -0.6579  2.5200
   35DOPE  H14S 4455   4.258   0.017  14.339  0.7198  1.4759 -0.9307
   35DOPE  C215 4456   4.048   0.008  14.415 -0.3267  0.0011  0.3828
   35DOPE  H15R 4457   4.022  -0.095  14.449 -3.7580  1.2381  1.9106
   35DOPE  H15S 4458   3.946   0.020  14.374 -0.2150 -3.1966 -1.2022
   35DOPE  C216 4459   4.064   0.102  14.529 -0.5153  1.0739 -0.5479
   35DOPE  H16R 4460   3.972   0.112  14.591 -0.0963 -0.2492  0.3290
   35DOPE  H16S 4461   4.090   0.203  14.489  5.1102  0.3516  0.4467
   35DOPE  C217 4462   4.178   0.078  14.632  0.0211  0.9441 -0.2802
   35DOPE  H17R 4463   4.168   0.160  14.705 -0.6666  0.5792  0.0410
   35DOPE  H17S 4464   4.280   0.090  14.588 -0.2113  1.2261 -0.7444
   35DOPE  C218 4465   4.159  -0.055  14.713 -0.2613 -0.2696  0.5895
   35DOPE  H18R 4466   4.167  -0.145  14.648  0.3885  0.2224 -0.0341
   35DOPE  H18S 4467   4.058  -0.062  14.757 -0.1558 -0.9483  0.7316
   35DOPE  H18T 4468   4.233  -0.060  14.796  0.9027 -0.9890 -0.4551
   35DOPE   C33 4469   3.893   0.407  13.338  0.2231  0.7242  0.1991
   35DOPE   H3X 4470   3.786   0.395  13.309 -0.3717 -1.0664  2.7399
   35DOPE   H3Y 4471   3.936   0.504  13.306  1.4991  0.1310  0.0385
   35DOPE   C34 4472   3.892   0.388  13.484  0.5235  0.4941 -0.4783
   35DOPE   H4X 4473   3.989   0.425  13.524  0.3171 -1.5938  2.2702
   35DOPE   H4Y 4474   3.817   0.456  13.530  0.5688 -1.3460  2.6367
   35DOPE   C35 4475   3.852   0.241  13.530 -0.3555 -1.0523  0.2682
   35DOPE   H5X 4476   3.948   0.192  13.558  0.8404  1.2186  0.4263
   35DOPE   H5Y 4477   3.797   0.189  13.449 -2.7195 -0.8647  1.6728
   35DOPE   C36 4478   3.759   0.240  13.648 -1.7500  0.0606 -0.8268
   35DOPE   H6X 4479   3.661   0.291  13.633 -1.6344  0.7096  0.5400
   35DOPE   H6Y 4480   3.820   0.289  13.726  0.1625  0.1189 -2.3121
   35DOPE   C37 4481   3.728   0.101  13.699  0.9613  0.0338 -0.6836
   35DOPE   H7X 4482   3.637   0.066  13.645  0.8184 -1.5555  0.5083
   35DOPE   H7Y 4483   3.811   0.040  13.658  0.5221  0.2388 -1.9056
   35DOPE   C38 4484   3.701   0.099  13.855 -0.0979 -0.3374  0.4856
   35DOPE   H8X 4485   3.664  -0.003  13.878  0.6310 -0.8902 -0.7033
   35DOPE   H8Y 4486   3.623   0.172  13.884 -0.3931 -0.4742  0.0492
   35DOPE   C39 4487   3.831   0.113  13.936  0.2603 -0.7385 -0.2527
   35DOPE   H9X 4488   3.917   0.051  13.906  1.8620  0.7698  1.0540
   35DOPE  C310 4489   3.845   0.189  14.043 -0.4822  0.8923  0.1057
   35DOPE  H10X 4490   3.942   0.188  14.096 -0.2925 -0.5529 -0.2229
   35DOPE  C311 4491   3.752   0.282  14.113  0.0204  0.0817 -0.1572
   35DOPE  H11X 4492   3.758   0.381  14.064  0.4022  0.1729  0.0714
   35DOPE  H11Y 4493   3.647   0.247  14.097  0.6561 -2.2638  0.4551
   35DOPE  C312 4494   3.796   0.297  14.262 -0.7787 -0.6793 -0.1565
   35DOPE  H12X 4495   3.874   0.376  14.271 -0.7090 -0.9393  2.4330
   35DOPE  H12Y 4496   3.831   0.197  14.294 -2.7664 -1.1941  0.5881
   35DOPE  C313 4497   3.690   0.344  14.355  0.5703  0.2865  0.8129
   35DOPE  H13X 4498   3.651   0.443  14.325 -0.5654 -0.4867 -0.3853
   35DOPE  H13Y 4499   3.604   0.274  14.348  2.0242 -1.4416 -0.5945
   35DOPE  C314 4500   3.748   0.344  14.495 -0.5725 -0.8437  0.0410
   35DOPE  H14X 4501   3.844   0.400  14.489 -1.0699 -0.1236 -1.8903
   35DOPE  H14Y 4502   3.769   0.239  14.526 -2.8817 -2.0717 -2.1675
   35DOPE  C315 4503   3.667   0.420  14.606  0.0392 -0.9452  0.6845
   35DOPE  H15X 4504   3.564   0.379  14.616 -0.8386  0.3552 -1.9669
   35DOPE  H15Y 4505   3.653   0.521  14.562 -0.7988 -1.5856 -0.5819
   35DOPE  C316 4506   3.743   0.408  14.738 -0.7425 -0.4711 -0.9970
   35DOPE  H16X 4507   3.707   0.488  14.806 -0.1550  1.1894 -2.5520
   35DOPE  H16Y 4508   3.847   0.444  14.722 -0.2014 -1.5052  0.0585
   35DOPE  C317 4509   3.755   0.280  14.819 -0.0497  0.8060 -0.0336
   35DOPE  H17X 4510   3.660   0.235  14.855  1.3872 -1.5205  1.0861
   35DOPE  H17Y 4511   3.808   0.201  14.761 -1.0889  1.1028 -1.4407
   35DOPE  C318 4512   3.835   0.310  14.944 -0.8769  0.9178  0.1129
   35DOPE  H18X 4513   3.773   0.367  15.017 -1.1416 -0.4504  0.9994
   35DOPE  H18Y 4514   3.867   0.212  14.987  2.6187  0.9937 -1.9020
   35DOPE  H18Z 4515   3.929   0.366  14.927 -0.0209  0.0460  1.7348
   36DOPE     N 4516   4.636   1.411  12.391  0.1151 -0.2390  0.0580
   36DOPE   HN1 4517   4.554   1.475  12.389  0.5752  0.4254  1.4017
   36DOPE   HN2 4518   4.612   1.315  12.422 -0.9323  0.2067  0.6991
   36DOPE   HN3 4519   4.693   1.451  12.468  1.7881 -1.3477 -0.5470
   36DOPE   C12 4520   4.695   1.408  12.256  1.0158  0.0442  0.7693
   36DOPE  H12A 4521   4.648   1.336  12.186  1.6911 -0.1573  0.5061
   36DOPE  H12B 4522   4.799   1.368  12.262  0.0015 -3.7024 -2.4534
   36DOPE   C11 4523   4.706   1.551  12.189 -0.4266  0.1900 -1.1081
   36DOPE  H11A 4524   4.605   1.596  12.198 -0.0771  0.6498  0.9347
   36DOPE  H11B 4525   4.747   1.545  12.086  0.0134 -1.0865 -0.8760
   36DOPE     P 4526   4.879   1.739  12.208  0.2230 -0.5222  0.0845
   36DOPE   O13 4527   4.803   1.864  12.175 -0.0187  0.0133  0.1640
   36DOPE   O14 4528   4.943   1.672  12.089 -0.4122  0.5199  0.4512
   36DOPE   O11 4529   4.987   1.772  12.318 -0.0954 -0.1313  0.4514
   36DOPE   O12 4530   4.781   1.639  12.275 -0.1988 -0.0935 -0.4452
   36DOPE    C1 4531   5.044   1.674  12.405 -0.3619  0.1056 -0.0522
   36DOPE    HA 4532   5.148   1.696  12.436  1.3537 -2.9505 -2.9100
   36DOPE    HB 4533   5.049   1.570  12.367  3.6351 -0.3986  1.3125
   36DOPE    C2 4534   4.962   1.685  12.543 -0.2666 -0.2261  0.9827
   36DOPE    HS 4535   4.860   1.645  12.524 -0.0516 -0.2390 -0.2310
   36DOPE   O21 4536   4.967   1.820  12.596  0.3179 -0.0236 -0.2973
   36DOPE   C21 4537   4.873   1.854  12.684  0.2231 -0.4523 -0.3872
   36DOPE   O22 4538   4.773   1.791  12.705 -0.0860  0.6325 -0.1896
   36DOPE   C22 4539   4.905   1.995  12.742 -0.1621  0.2551 -0.2269
   36DOPE   H2R 4540   4.808   2.032  12.782 -0.1792 -1.2816  1.2594
   36DOPE   H2S 4541   4.941   2.057  12.657  2.6755 -0.0398  0.6368
   36DOPE    C3 4542   5.014   1.571  12.634 -0.1398  0.3809  0.3622
   36DOPE    HX 4543   5.112   1.616  12.659  0.8278  0.1498 -2.6417
   36DOPE    HY 4544   5.035   1.484  12.569  1.1399  2.1158 -1.6790
   36DOPE   O31 4545   4.933   1.543  12.750 -0.6965  0.3541  0.3932
   36DOPE   C31 4546   4.852   1.441  12.735  0.0977 -0.3806 -0.2462
   36DOPE   O32 4547   4.813   1.394  12.628  0.6031  0.4214  0.0993
   36DOPE   C32 4548   4.801   1.400  12.871 -0.0484  0.2740 -0.3931
   36DOPE   H2X 4549   4.728   1.319  12.847 -0.3530  1.0888 -2.4212
   36DOPE   H2Y 4550   4.888   1.360  12.926  0.4883  1.4725 -0.3384
   36DOPE   C23 4551   5.007   1.987  12.852  0.5933 -0.0354 -0.6071
   36DOPE   H3R 4552   5.054   2.086  12.866  0.2493  0.1742 -0.9299
   36DOPE   H3S 4553   5.085   1.915  12.819  1.4203  0.3752  0.4027
   36DOPE   C24 4554   4.940   1.946  12.978  0.4440 -0.8394 -0.2147
   36DOPE   H4R 4555   4.880   1.854  12.968  1.7127 -1.8360  0.9451
   36DOPE   H4S 4556   4.864   2.023  13.005  0.5065 -0.3661 -1.3231
   36DOPE   C25 4557   5.026   1.912  13.103  0.0612  0.1287  0.0222
   36DOPE   H5R 4558   5.112   1.979  13.081 -0.2663  0.5018 -0.1376
   36DOPE   H5S 4559   5.062   1.808  13.089  0.4398 -0.0049  1.8190
   36DOPE   C26 4560   4.956   1.948  13.233  0.3561  0.1465  0.0193
   36DOPE   H6R 4561   4.851   1.914  13.226 -0.4263  2.1867  1.2089
   36DOPE   H6S 4562   4.959   2.058  13.242 -0.9556  0.3491 -1.5462
   36DOPE   C27 4563   5.011   1.882  13.359 -0.2370  0.0933  0.6401
   36DOPE   H7R 4564   5.119   1.903  13.367  0.0817 -0.7663 -1.0592
   36DOPE   H7S 4565   5.011   1.771  13.356  2.1041  0.0674 -0.6292
   36DOPE   C28 4566   4.939   1.915  13.488  0.0103  0.3059  0.0414
   36DOPE   H8R 4567   4.939   2.026  13.483  1.2193  0.3072 -0.4453
   36DOPE   H8S 4568   5.008   1.892  13.572  0.2431  1.3661  0.1564
   36DOPE   C29 4569   4.802   1.858  13.491 -0.2389 -0.5654 -0.5808
   36DOPE   H9R 4570   4.741   1.897  13.408  1.9930 -0.7134 -2.3896
   36DOPE  C210 4571   4.734   1.800  13.588 -0.0781  0.8107  0.0057
   36DOPE  H10R 4572   4.629   1.774  13.567 -0.8982  1.3033  2.9693
   36DOPE  C211 4573   4.781   1.763  13.725 -0.5476 -0.4214  0.4516
   36DOPE  H11R 4574   4.858   1.683  13.726 -1.0632 -0.9329  1.4080
   36DOPE  H11S 4575   4.691   1.728  13.781 -0.6778  1.3479  1.4227
   36DOPE  C212 4576   4.824   1.883  13.813 -0.4506  0.2859  0.3235
   36DOPE  H12R 4577   4.769   1.978  13.799  1.8030  1.4211 -1.5181
   36DOPE  H12S 4578   4.927   1.905  13.778 -0.5243  0.7124  0.3676
   36DOPE  C213 4579   4.838   1.841  13.957  0.3863  0.5504 -0.2710
   36DOPE  H13R 4580   4.891   1.744  13.965 -2.3288 -1.0641 -0.4936
   36DOPE  H13S 4581   4.733   1.831  13.993  0.6649  4.0821  2.0564
   36DOPE  C214 4582   4.912   1.939  14.051  0.3817  0.2598  0.1045
   36DOPE  H14R 4583   4.853   2.033  14.044 -0.0983 -0.1475 -1.9085
   36DOPE  H14S 4584   5.013   1.973  14.019  0.4437 -0.1653 -0.1502
   36DOPE  C215 4585   4.911   1.893  14.197 -0.3178  0.1918  0.1886
   36DOPE  H15R 4586   4.983   1.963  14.243 -1.4142  0.5998  1.3542
   36DOPE  H15S 4587   4.947   1.789  14.190  1.6480  0.8242  0.3017
   36DOPE  C216 4588   4.774   1.896  14.270  0.2530  0.3909  0.9654
   36DOPE  H16R 4589   4.724   1.810  14.221  1.8929  0.1154 -0.3082
   36DOPE  H16S 4590   4.704   1.982  14.258 -0.1760 -0.3208 -2.4091
   36DOPE  C217 4591   4.803   1.873  14.417  0.2372  0.5254 -0.8972
   36DOPE  H17R 4592   4.879   1.947  14.447  1.1712  0.6459 -3.3297
   36DOPE  H17S 4593   4.851   1.773  14.426  0.0437  0.2015 -2.9758
   36DOPE  C218 4594   4.695   1.882  14.525 -0.4164 -0.1264  0.0719
   36DOPE  H18R 4595   4.633   1.790  14.531 -0.2297 -0.4356 -2.0037
   36DOPE  H18S 4596   4.632   1.973  14.517  1.8501  1.5809  0.5989
   36DOPE  H18T 4597   4.742   1.878  14.626 -2.2125  2.2116  1.0868
   36DOPE   C33 4598   4.731   1.505  12.961 -0.5784 -0.0463  0.6242
   36DOPE   H3X 4599   4.624   1.524  12.936 -0.0772 -1.0527 -2.8717
   36DOPE   H3Y 4600   4.771   1.608  12.970 -0.8714  0.1559 -0.2946
   36DOPE   C34 4601   4.727   1.455  13.107  0.0287 -0.5363 -1.1087
   36DOPE   H4X 4602   4.674   1.357  13.110 -2.0098  0.5378  1.5432
   36DOPE   H4Y 4603   4.831   1.443  13.145  0.1037 -1.8127 -1.6608
   36DOPE   C35 4604   4.652   1.546  13.205 -0.0947 -0.3513 -0.0310
   36DOPE   H5X 4605   4.542   1.546  13.189 -0.0812 -2.5140 -0.4329
   36DOPE   H5Y 4606   4.699   1.647  13.195  0.4185 -0.7354 -1.9106
   36DOPE   C36 4607   4.682   1.511  13.346 -0.0990 -0.4460 -0.3458
   36DOPE   H6X 4608   4.638   1.596  13.402  1.0677 -1.1284  1.7081
   36DOPE   H6Y 4609   4.793   1.498  13.353  0.0875  0.1436 -1.8247
   36DOPE   C37 4610   4.619   1.387  13.408 -0.1457 -0.1160  0.0411
   36DOPE   H7X 4611   4.508   1.388  13.395 -0.2361 -2.2177  0.3789
   36DOPE   H7Y 4612   4.664   1.302  13.353 -1.3852 -1.4531  1.0247
   36DOPE   C38 4613   4.657   1.381  13.558 -0.4018  0.0881  0.1676
   36DOPE   H8X 4614   4.666   1.487  13.590  0.4818 -0.0786  0.5026
   36DOPE   H8Y 4615   4.751   1.322  13.562 -1.2166 -1.3465 -1.0497
   36DOPE   C39 4616   4.548   1.311  13.631 -0.4833 -0.4428  0.2434
   36DOPE   H9X 4617   4.529   1.212  13.586  0.6240 -0.7423  0.4108
   36DOPE  C310 4618   4.478   1.356  13.734  0.7058 -0.0897  0.0906
   36DOPE  H10X 4619   4.392   1.295  13.767  1.2058 -0.9494 -0.1559
   36DOPE  C311 4620   4.490   1.489  13.802  0.0147 -0.2331 -0.1202
   36DOPE  H11X 4621   4.525   1.553  13.719  0.0625  0.2873  0.3023
   36DOPE  H11Y 4622   4.385   1.524  13.816 -0.2680 -0.4519 -1.5197
   36DOPE  C312 4623   4.584   1.503  13.925 -0.2386  0.1722  0.6817
   36DOPE  H12X 4624   4.589   1.610  13.952  0.8915  0.3161 -0.0376
   36DOPE  H12Y 4625   4.689   1.475  13.903 -1.2889 -2.8993 -1.0290
   36DOPE  C313 4626   4.528   1.426  14.043  0.8156 -0.1182 -0.0893
   36DOPE  H13X 4627   4.424   1.465  14.052  1.4722  1.9556 -1.0320
   36DOPE  H13Y 4628   4.531   1.316  14.023  2.0258 -0.5821  2.3338
   36DOPE  C314 4629   4.598   1.458  14.181  0.2828 -0.4060  0.5970
   36DOPE  H14X 4630   4.593   1.568  14.195  1.2294 -0.3096  0.2275
   36DOPE  H14Y 4631   4.706   1.431  14.180  0.2537 -0.5722 -1.0923
   36DOPE  C315 4632   4.532   1.390  14.302  0.1545 -0.1930 -0.3532
   36DOPE  H15X 4633   4.541   1.279  14.292  3.0698 -0.1183  0.4843
   36DOPE  H15Y 4634   4.425   1.418  14.296  0.0704 -0.2423  0.6926
   36DOPE  C316 4635   4.591   1.441  14.429 -0.3424 -0.0659 -0.0137
   36DOPE  H16X 4636   4.576   1.551  14.437 -2.2166 -0.1288 -1.8871
   36DOPE  H16Y 4637   4.699   1.417  14.420 -0.3605  0.4027 -1.7484
   36DOPE  C317 4638   4.526   1.373  14.545 -0.0488 -0.0694 -0.2220
   36DOPE  H17X 4639   4.417   1.390  14.532 -0.0527 -1.5782 -3.0130
   36DOPE  H17Y 4640   4.551   1.265  14.538  0.2566  0.0191 -0.5175
   36DOPE  C318 4641   4.565   1.431  14.683 -0.5720  0.7361 -0.2259
   36DOPE  H18X 4642   4.675   1.426  14.695 -0.5451 -1.3878 -0.9218
   36DOPE  H18Y 4643   4.524   1.533  14.704 -0.1196  0.5348  1.8845
   36DOPE  H18Z 4644   4.506   1.375  14.759  0.3632  0.6163  0.4335
   37DOPE     N 4645   1.591   5.702  13.335 -0.3137  0.0359 -0.4255
   37DOPE   HN1 4646   1.670   5.635  13.327  0.3876  0.4870  2.0768
   37DOPE   HN2 4647   1.516   5.672  13.269  0.5765 -2.3915 -0.4462
   37DOPE   HN3 4648   1.623   5.797  13.308 -0.8534  0.5590  0.7241
   37DOPE   C12 4649   1.524   5.704  13.471 -0.3378 -0.3952  0.0235
   37DOPE  H12A 4650   1.608   5.713  13.543 -0.9490  0.1475  0.6827
   37DOPE  H12B 4651   1.468   5.610  13.490 -1.3262 -0.5055 -3.0093
   37DOPE   C11 4652   1.441   5.829  13.482 -0.4664 -0.7602 -0.0665
   37DOPE  H11A 4653   1.500   5.921  13.461 -0.4779 -0.6910  0.2034
   37DOPE  H11B 4654   1.409   5.822  13.588 -0.8242  0.5079 -0.0712
   37DOPE     P 4655   1.237   5.946  13.367 -0.0244 -0.4026 -0.1911
   37DOPE   O13 4656   1.101   5.905  13.328 -0.2643 -0.0722  0.3011
   37DOPE   O14 4657   1.312   6.042  13.284  0.8145 -0.1108 -0.2807
   37DOPE   O11 4658   1.226   6.008  13.512  0.2382  0.0978 -0.0532
   37DOPE   O12 4659   1.325   5.823  13.398  0.2065 -0.1243  0.2173
   37DOPE    C1 4660   1.123   5.969  13.606 -0.5899 -0.0104 -0.2711
   37DOPE    HA 4661   1.108   5.859  13.604 -1.6390  0.1268 -1.5365
   37DOPE    HB 4662   1.022   6.011  13.587 -1.1250 -0.6814  0.9605
   37DOPE    C2 4663   1.160   6.008  13.749  0.1227  0.1149 -0.0209
   37DOPE    HS 4664   1.163   6.119  13.738  1.0311  0.4438  2.7598
   37DOPE   O21 4665   1.298   5.964  13.779 -0.1152  0.0501 -0.2500
   37DOPE   C21 4666   1.372   6.049  13.838 -0.5302  0.0928 -0.5203
   37DOPE   O22 4667   1.341   6.145  13.906  0.1719 -0.5375  0.2105
   37DOPE   C22 4668   1.519   6.000  13.833 -0.2857  0.2281 -0.5743
   37DOPE   H2R 4669   1.587   6.068  13.887  1.3080 -0.9019 -1.0840
   37DOPE   H2S 4670   1.546   5.984  13.726 -0.2759  0.7567 -0.6524
   37DOPE    C3 4671   1.056   5.960  13.856 -0.4107 -0.6153 -0.0744
   37DOPE    HX 4672   1.046   5.850  13.845  0.5446 -0.5953 -1.3926
   37DOPE    HY 4673   0.960   6.009  13.827 -0.6426 -1.4208 -0.7419
   37DOPE   O31 4674   1.098   5.994  13.991 -0.1865 -0.1385  0.3967
   37DOPE   C31 4675   1.079   6.115  14.034 -0.9629  0.7374  0.0272
   37DOPE   O32 4676   1.034   6.205  13.969 -0.3850 -0.1087  0.0943
   37DOPE   C32 4677   1.123   6.122  14.180 -0.3430  0.5676  0.1662
   37DOPE   H2X 4678   1.096   6.027  14.231  2.3023 -0.7515 -0.7136
   37DOPE   H2Y 4679   1.232   6.140  14.179 -0.1415 -0.4936  0.9831
   37DOPE   C23 4680   1.542   5.860  13.907 -0.1987  0.2631  0.0485
   37DOPE   H3R 4681   1.647   5.824  13.902 -0.0999 -0.0690  2.7685
   37DOPE   H3S 4682   1.473   5.791  13.854  0.7483 -0.3848 -0.3805
   37DOPE   C24 4683   1.500   5.865  14.059  0.9253 -0.2269  0.0221
   37DOPE   H4R 4684   1.511   5.762  14.098 -2.1692  0.7321  4.1136
   37DOPE   H4S 4685   1.390   5.882  14.063  0.8129 -0.3604 -1.6028
   37DOPE   C25 4686   1.579   5.964  14.153  0.0430 -0.1103  0.1428
   37DOPE   H5R 4687   1.562   6.071  14.129 -0.2923  0.4006  2.4320
   37DOPE   H5S 4688   1.688   5.949  14.135  0.2774  1.6963 -0.2129
   37DOPE   C26 4689   1.543   5.937  14.298  0.1213 -0.1894  0.5035
   37DOPE   H6R 4690   1.432   5.949  14.302  0.1648  1.2567 -1.5388
   37DOPE   H6S 4691   1.577   6.025  14.357  0.3250 -0.6415  1.0749
   37DOPE   C27 4692   1.577   5.803  14.372  0.0438  0.3386  0.7551
   37DOPE   H7R 4693   1.684   5.778  14.362  0.0038 -0.1342  1.4709
   37DOPE   H7S 4694   1.514   5.731  14.315  0.1990 -2.1675  3.5327
   37DOPE   C28 4695   1.546   5.799  14.517  0.2884  1.0406 -0.3033
   37DOPE   H8R 4696   1.628   5.853  14.569 -0.6211  1.0706  1.1483
   37DOPE   H8S 4697   1.558   5.694  14.551 -2.3575  0.2638 -1.5025
   37DOPE   C29 4698   1.413   5.846  14.572 -0.4926  0.2655  0.3564
   37DOPE   H9R 4699   1.326   5.813  14.513  0.0882 -1.6501  0.5061
   37DOPE  C210 4700   1.403   5.926  14.678  0.0221  0.2732 -0.3211
   37DOPE  H10R 4701   1.305   5.966  14.710 -0.7275 -0.1566 -2.0107
   37DOPE  C211 4702   1.521   5.973  14.764 -1.0851  0.3599  0.1263
   37DOPE  H11R 4703   1.478   6.047  14.834  0.7231  1.5661  0.0246
   37DOPE  H11S 4704   1.606   6.018  14.710 -1.4073 -0.1264 -0.8033
   37DOPE  C212 4705   1.587   5.855  14.846  0.2032 -1.0696  0.6369
   37DOPE  H12R 4706   1.654   5.902  14.922  1.9015 -0.9726 -0.8458
   37DOPE  H12S 4707   1.658   5.818  14.769 -0.1913  1.6219 -1.1518
   37DOPE  C213 4708   1.490   5.758  14.920 -0.4488 -0.5297 -0.2215
   37DOPE  H13R 4709   1.412   5.706  14.860  0.0811 -0.5170 -0.9239
   37DOPE  H13S 4710   1.442   5.822  14.998  1.5717  0.6454  0.1181
   37DOPE  C214 4711   1.564   5.651  15.003  0.4343  0.3061 -0.3437
   37DOPE  H14R 4712   1.605   5.705  15.092  1.7633 -2.0179  0.5308
   37DOPE  H14S 4713   1.648   5.618  14.939  1.3919  0.8781  0.5691
   37DOPE  C215 4714   1.483   5.536  15.060  1.0261  0.6068 -0.5738
   37DOPE  H15R 4715   1.548   5.454  15.098  0.7019  0.5556 -0.1134
   37DOPE  H15S 4716   1.407   5.493  14.991 -0.3119  1.6515  0.1822
   37DOPE  C216 4717   1.397   5.569  15.178 -0.2692  0.1574  0.5538
   37DOPE  H16R 4718   1.318   5.492  15.165 -0.0308  0.1946 -1.3977
   37DOPE  H16S 4719   1.352   5.670  15.164 -2.8361 -1.0554 -0.7559
   37DOPE  C217 4720   1.464   5.562  15.318 -0.1439 -0.7437  0.5917
   37DOPE  H17R 4721   1.394   5.616  15.385 -1.4586 -0.5116 -0.9195
   37DOPE  H17S 4722   1.562   5.615  15.316  0.5825 -1.9537  2.0311
   37DOPE  C218 4723   1.484   5.421  15.388  0.3992 -0.2189  0.4975
   37DOPE  H18R 4724   1.553   5.425  15.475  0.1873 -0.9544  0.7082
   37DOPE  H18S 4725   1.537   5.354  15.316  0.8112 -0.7238  1.2498
   37DOPE  H18T 4726   1.390   5.381  15.432  0.0909  0.5590  0.5538
   37DOPE   C33 4727   1.075   6.246  14.259  0.0127 -0.3776 -0.1634
   37DOPE   H3X 4728   0.979   6.280  14.214  1.1763 -0.7625 -3.1727
   37DOPE   H3Y 4729   1.146   6.332  14.257  0.9187 -0.9009  3.2293
   37DOPE   C34 4730   1.053   6.197  14.400  0.2625 -0.3148  0.4579
   37DOPE   H4X 4731   0.988   6.108  14.408  0.4365 -0.6061 -1.1294
   37DOPE   H4Y 4732   1.147   6.173  14.455  0.4690  1.9455  1.2354
   37DOPE   C35 4733   0.994   6.316  14.487  0.1546 -0.0189  0.7750
   37DOPE   H5X 4734   0.892   6.324  14.446 -0.0753  0.3950  1.4201
   37DOPE   H5Y 4735   1.051   6.410  14.470 -0.4711  0.1195 -0.7199
   37DOPE   C36 4736   0.972   6.285  14.638  0.6623  0.4520  0.1155
   37DOPE   H6X 4737   0.907   6.197  14.650  1.4963 -0.3068 -0.7542
   37DOPE   H6Y 4738   0.911   6.368  14.679  0.5673 -0.3646  1.6697
   37DOPE   C37 4739   1.109   6.286  14.708 -0.6923  0.3027  0.1114
   37DOPE   H7X 4740   1.157   6.189  14.681 -1.4199  0.4552 -1.9174
   37DOPE   H7Y 4741   1.161   6.374  14.664 -0.6088  0.7605  1.0889
   37DOPE   C38 4742   1.113   6.317  14.856  0.2773  0.8224 -0.5511
   37DOPE   H8X 4743   1.057   6.408  14.886 -1.3045 -1.0142  2.6938
   37DOPE   H8Y 4744   1.215   6.336  14.895 -0.0862  0.6670  0.5265
   37DOPE   C39 4745   1.041   6.199  14.919 -0.4518  0.4632 -0.3425
   37DOPE   H9X 4746   0.933   6.196  14.898 -0.0657  0.1170 -2.5994
   37DOPE  C310 4747   1.094   6.105  14.999  0.5437 -0.2976 -0.0594
   37DOPE  H10X 4748   1.021   6.035  15.041  1.8026 -1.4598  0.2859
   37DOPE  C311 4749   1.248   6.091  15.036  0.2667  0.4070 -0.7375
   37DOPE  H11X 4750   1.290   5.990  15.018  0.3513  0.7362 -2.5034
   37DOPE  H11Y 4751   1.311   6.151  14.967  1.7879  0.4355  0.6174
   37DOPE  C312 4752   1.281   6.136  15.179  0.4249  0.2294  0.0804
   37DOPE  H12X 4753   1.255   6.244  15.179  0.4054  0.2622 -1.8402
   37DOPE  H12Y 4754   1.390   6.112  15.177  0.1836 -1.0384  0.8042
   37DOPE  C313 4755   1.212   6.061  15.295 -0.2299  0.7645  0.6109
   37DOPE  H13X 4756   1.101   6.076  15.289  0.1593  4.1364 -2.6419
   37DOPE  H13Y 4757   1.233   5.954  15.273 -0.9867  0.8436 -0.6066
   37DOPE  C314 4758   1.256   6.105  15.430  0.2167 -0.0919  0.4806
   37DOPE  H14X 4759   1.173   6.166  15.473  0.4630  0.1684  0.5863
   37DOPE  H14Y 4760   1.343   6.173  15.429 -1.2917  1.9687  1.1766
   37DOPE  C315 4761   1.273   5.972  15.511 -0.8009 -0.1847  1.0467
   37DOPE  H15X 4762   1.364   5.921  15.474  0.1877  1.4370  1.1218
   37DOPE  H15Y 4763   1.181   5.909  15.504  0.5566 -2.1699  0.2108
   37DOPE  C316 4764   1.299   6.014  15.653 -0.1797 -0.3274 -0.6476
   37DOPE  H16X 4765   1.234   6.097  15.690  0.5994 -0.2668  0.6608
   37DOPE  H16Y 4766   1.403   6.052  15.650 -0.1972 -0.2300 -0.1668
   37DOPE  C317 4767   1.300   5.889  15.741  0.5008  0.1207  0.3652
   37DOPE  H17X 4768   1.349   5.912  15.838 -0.4139  0.4444  0.7632
   37DOPE  H17Y 4769   1.195   5.862  15.764 -0.4193 -0.9418 -4.1445
   37DOPE  C318 4770   1.364   5.766  15.672 -1.1575  0.1656 -0.7865
   37DOPE  H18X 4771   1.377   5.689  15.752  0.0980  1.0750 -0.0902
   37DOPE  H18Y 4772   1.309   5.710  15.593 -0.8893  0.3548 -1.1107
   37DOPE  H18Z 4773   1.468   5.788  15.640 -0.8026 -0.7972 -0.3259
   38DOPE     N 4774   3.787   1.507  12.219  0.0159 -0.0208  0.4549
   38DOPE   HN1 4775   3.746   1.426  12.271 -0.7506 -0.4303 -0.7340
   38DOPE   HN2 4776   3.751   1.494  12.123 -0.9407  1.6042  0.5522
   38DOPE   HN3 4777   3.890   1.499  12.216  0.0655  0.9835 -1.2871
   38DOPE   C12 4778   3.758   1.639  12.267  0.6161  0.2321 -0.5557
   38DOPE  H12A 4779   3.648   1.652  12.281  0.7358  1.7986 -0.9247
   38DOPE  H12B 4780   3.797   1.709  12.191  0.6570  0.3347 -0.4384
   38DOPE   C11 4781   3.841   1.640  12.399  0.1063 -0.6216  0.2146
   38DOPE  H11A 4782   3.816   1.553  12.464  0.4095 -1.5506 -0.8837
   38DOPE  H11B 4783   3.825   1.733  12.456  2.4776 -0.3977  0.6059
   38DOPE     P 4784   4.089   1.742  12.372  0.1134 -0.0918 -0.0371
   38DOPE   O13 4785   4.145   1.766  12.236  0.1988 -0.8148 -0.0382
   38DOPE   O14 4786   4.175   1.698  12.479  0.6546 -0.0077 -0.0602
   38DOPE   O11 4787   4.003   1.871  12.420  0.6458 -0.1030 -0.0340
   38DOPE   O12 4788   3.976   1.635  12.356 -0.2173 -0.0094 -0.2973
   38DOPE    C1 4789   4.073   1.986  12.475  0.4641  0.0413  0.1597
   38DOPE    HA 4790   4.039   2.072  12.413  0.1917  0.5039  0.9440
   38DOPE    HB 4791   4.183   1.981  12.462  0.4983 -0.0813  0.4935
   38DOPE    C2 4792   4.041   2.014  12.624 -0.3882  0.6329  0.0130
   38DOPE    HS 4793   4.077   2.116  12.650 -0.1137  1.0241 -1.7963
   38DOPE   O21 4794   4.111   1.912  12.710  0.3287 -0.5454 -0.0616
   38DOPE   C21 4795   4.241   1.947  12.721 -0.2643 -0.1281 -0.3797
   38DOPE   O22 4796   4.288   2.052  12.690 -0.6684 -0.1107 -0.0871
   38DOPE   C22 4797   4.324   1.821  12.741  0.2300 -0.6146  0.2168
   38DOPE   H2R 4798   4.368   1.788  12.645  0.4844 -0.0579  0.1352
   38DOPE   H2S 4799   4.255   1.739  12.772 -1.2769  0.0785 -1.1828
   38DOPE    C3 4800   3.886   2.007  12.642  0.2022 -0.7719 -0.3955
   38DOPE    HX 4801   3.838   1.907  12.634 -0.8222 -0.5483  2.0374
   38DOPE    HY 4802   3.838   2.083  12.577 -1.0553  0.0327  1.4049
   38DOPE   O31 4803   3.855   2.055  12.778 -0.2514 -0.0571 -0.5881
   38DOPE   C31 4804   3.812   1.962  12.865  0.3012 -0.0846  0.2878
   38DOPE   O32 4805   3.783   1.845  12.847  0.4837  0.0429 -0.3271
   38DOPE   C32 4806   3.816   2.027  13.008  0.0734 -0.2070 -0.1019
   38DOPE   H2X 4807   3.922   2.054  13.028 -0.3471  1.4249  0.0835
   38DOPE   H2Y 4808   3.752   2.118  12.998 -1.9715 -1.5742  0.0624
   38DOPE   C23 4809   4.443   1.846  12.830 -0.2593  0.5978 -0.5363
   38DOPE   H3R 4810   4.504   1.912  12.765 -1.9331  0.4087 -2.4121
   38DOPE   H3S 4811   4.502   1.753  12.849  0.7408  1.6646  1.9653
   38DOPE   C24 4812   4.406   1.888  12.972  0.2324 -0.0342  0.2253
   38DOPE   H4R 4813   4.312   1.841  13.008  0.2909  0.3123  0.8497
   38DOPE   H4S 4814   4.370   1.992  12.987 -1.7227 -0.7708  1.0711
   38DOPE   C25 4815   4.525   1.862  13.074  0.5558  0.7569 -0.6604
   38DOPE   H5R 4816   4.617   1.916  13.043  1.9546  0.1931  2.1142
   38DOPE   H5S 4817   4.550   1.756  13.095 -2.0849  0.1208 -0.2663
   38DOPE   C26 4818   4.486   1.924  13.209  0.7708  0.4997 -0.2472
   38DOPE   H6R 4819   4.435   2.020  13.187 -1.8230 -0.9019 -0.8498
   38DOPE   H6S 4820   4.572   1.942  13.277  0.0663 -1.1509  1.1753
   38DOPE   C27 4821   4.379   1.847  13.291 -0.0832 -0.4094 -0.2164
   38DOPE   H7R 4822   4.434   1.759  13.331  0.3366 -1.7128 -3.4234
   38DOPE   H7S 4823   4.299   1.810  13.223 -1.6831  1.0123  0.7872
   38DOPE   C28 4824   4.317   1.931  13.405  0.6812  0.4687 -1.3440
   38DOPE   H8R 4825   4.243   1.862  13.452 -0.1614  1.5965 -0.9812
   38DOPE   H8S 4826   4.235   2.002  13.380 -1.2583 -1.7278 -1.6239
   38DOPE   C29 4827   4.411   1.989  13.511 -0.9849  0.1101 -0.2422
   38DOPE   H9R 4828   4.511   2.017  13.473 -0.2623 -0.8570  0.8775
   38DOPE  C210 4829   4.394   1.959  13.640  0.2075 -0.2297  0.8042
   38DOPE  H10R 4830   4.473   1.999  13.704  1.1162 -0.3637 -0.2099
   38DOPE  C211 4831   4.267   1.913  13.702  0.0866 -0.0969  0.0333
   38DOPE  H11R 4832   4.244   1.810  13.666  0.4189 -0.1805  0.0585
   38DOPE  H11S 4833   4.182   1.981  13.681  0.2734  0.0943 -0.1002
   38DOPE  C212 4834   4.274   1.912  13.857  0.4952 -0.3649 -0.3271
   38DOPE  H12R 4835   4.177   1.866  13.885 -1.2243  2.3275 -1.4904
   38DOPE  H12S 4836   4.271   2.013  13.902  0.6899  0.7369 -2.6396
   38DOPE  C213 4837   4.404   1.847  13.918  0.0384  0.3240 -0.6652
   38DOPE  H13R 4838   4.491   1.910  13.891  0.1954  1.4249  2.1403
   38DOPE  H13S 4839   4.434   1.745  13.884 -0.9543 -1.4638  3.2322
   38DOPE  C214 4840   4.414   1.839  14.070  0.2837 -0.4464 -0.0869
   38DOPE  H14R 4841   4.415   1.940  14.117 -1.2724 -0.3383 -0.2061
   38DOPE  H14S 4842   4.512   1.796  14.095 -0.2916 -1.9634 -0.3420
   38DOPE  C215 4843   4.311   1.753  14.136  0.5324  0.7978 -0.3722
   38DOPE  H15R 4844   4.316   1.647  14.103 -2.8039 -0.0481  1.3411
   38DOPE  H15S 4845   4.206   1.785  14.116  0.4022  1.2787  0.9319
   38DOPE  C216 4846   4.325   1.753  14.288 -1.0198  0.3964 -0.7105
   38DOPE  H16R 4847   4.362   1.846  14.336  0.1035 -1.3718  2.0891
   38DOPE  H16S 4848   4.400   1.674  14.312 -0.6895  0.2910 -1.9905
   38DOPE  C217 4849   4.199   1.710  14.362 -0.1582 -0.0248 -0.1217
   38DOPE  H17R 4850   4.180   1.604  14.336  1.3914  0.0351 -1.6829
   38DOPE  H17S 4851   4.114   1.773  14.328 -0.3076  0.6656  1.4600
   38DOPE  C218 4852   4.226   1.733  14.509  0.6018  0.2172 -0.2102
   38DOPE  H18R 4853   4.132   1.704  14.561 -1.3381  1.1504 -2.9565
   38DOPE  H18S 4854   4.258   1.835  14.538  2.2979 -0.8665  2.0950
   38DOPE  H18T 4855   4.301   1.657  14.540  2.0253  2.1157  1.2580
   38DOPE   C33 4856   3.759   1.950  13.129  1.0332  0.0294 -0.8329
   38DOPE   H3X 4857   3.781   1.841  13.130 -0.5496 -0.2979 -0.5368
   38DOPE   H3Y 4858   3.649   1.946  13.123  0.9866 -0.1647  0.0548
   38DOPE   C34 4859   3.827   2.001  13.265  0.3005 -0.0023 -0.7654
   38DOPE   H4X 4860   3.936   1.984  13.272  0.0268 -1.2200  2.3869
   38DOPE   H4Y 4861   3.814   2.111  13.260 -0.2094 -0.1117 -2.3858
   38DOPE   C35 4862   3.764   1.956  13.391 -0.4031 -0.1319 -0.5592
   38DOPE   H5X 4863   3.755   1.846  13.388  3.5903 -0.5700 -1.0435
   38DOPE   H5Y 4864   3.662   2.001  13.398  1.3982  4.5414 -0.9475
   38DOPE   C36 4865   3.840   1.995  13.521  0.2988 -0.0994  0.4018
   38DOPE   H6X 4866   3.849   2.106  13.524 -0.3772  0.0022  3.9637
   38DOPE   H6Y 4867   3.947   1.967  13.527  0.2257 -0.0767  3.6083
   38DOPE   C37 4868   3.758   1.953  13.644 -0.1963 -0.0151 -0.2514
   38DOPE   H7X 4869   3.654   1.961  13.607 -0.7631 -1.2156  1.0090
   38DOPE   H7Y 4870   3.764   1.846  13.673 -2.1035 -0.0818  0.0196
   38DOPE   C38 4871   3.782   2.038  13.773  0.8997 -0.0021 -0.3479
   38DOPE   H8X 4872   3.777   2.146  13.747 -1.4211  0.3312  1.2165
   38DOPE   H8Y 4873   3.885   2.008  13.805  0.1928 -2.5655 -0.2431
   38DOPE   C39 4874   3.685   2.010  13.892  1.0028  0.4174  0.4005
   38DOPE   H9X 4875   3.581   2.002  13.855  0.0318  3.7794  1.9633
   38DOPE  C310 4876   3.723   1.973  14.017  0.0114  0.4302 -0.2226
   38DOPE  H10X 4877   3.641   1.939  14.083  0.7521  2.6452  2.0463
   38DOPE  C311 4878   3.858   1.968  14.071 -0.6012 -0.6382 -0.2213
   38DOPE  H11X 4879   3.942   1.979  13.998  1.1425 -0.5453  1.6927
   38DOPE  H11Y 4880   3.869   2.049  14.147 -2.3582 -2.1496  1.7575
   38DOPE  C312 4881   3.877   1.837  14.151  0.8784  0.2345 -0.1491
   38DOPE  H12X 4882   3.984   1.833  14.180  0.8497 -2.4785 -0.1269
   38DOPE  H12Y 4883   3.858   1.750  14.085 -0.0830 -0.3010  0.8108
   38DOPE  C313 4884   3.794   1.815  14.285 -0.0079 -0.4010  0.1555
   38DOPE  H13X 4885   3.684   1.807  14.277 -0.0200 -0.4319  0.3603
   38DOPE  H13Y 4886   3.832   1.720  14.327  1.1316  1.2101  3.0884
   38DOPE  C314 4887   3.839   1.917  14.397  0.5314  0.0788 -0.0270
   38DOPE  H14X 4888   3.822   2.018  14.355  2.0918  0.2458 -0.3089
   38DOPE  H14Y 4889   3.950   1.919  14.406  0.4621  1.2971  0.7190
   38DOPE  C315 4890   3.784   1.902  14.542 -0.1150 -0.2757  0.5555
   38DOPE  H15X 4891   3.822   1.803  14.575 -0.0551  0.1544  1.8402
   38DOPE  H15Y 4892   3.674   1.888  14.543 -0.3613  1.2919 -0.4910
   38DOPE  C316 4893   3.822   2.017  14.638  0.6920  0.0444  0.0237
   38DOPE  H16X 4894   3.766   2.010  14.734  0.9498 -3.5954  0.0489
   38DOPE  H16Y 4895   3.781   2.109  14.591 -0.1179 -1.2690 -1.9597
   38DOPE  C317 4896   3.963   2.039  14.673  0.2467  0.1798  0.5580
   38DOPE  H17X 4897   4.019   2.042  14.577 -0.6126  2.0404  0.0573
   38DOPE  H17Y 4898   3.974   2.137  14.724 -1.5313  0.7730 -0.1376
   38DOPE  C318 4899   4.037   1.934  14.766  0.2201  0.5245  0.2736
   38DOPE  H18X 4900   3.993   1.936  14.868 -1.1757  0.6240 -0.3152
   38DOPE  H18Y 4901   4.029   1.826  14.740  1.8432  0.6380 -0.8240
   38DOPE  H18Z 4902   4.145   1.961  14.766  0.6376 -1.0186  0.2301
   39DOPE     N 4903   1.199   1.343  13.392  0.0075  0.1421 -0.3746
   39DOPE   HN1 4904   1.250   1.272  13.336  0.6941  2.6489 -3.1641
   39DOPE   HN2 4905   1.194   1.425  13.328  0.3847 -0.3483 -1.0461
   39DOPE   HN3 4906   1.250   1.356  13.482 -1.3209 -1.2784  0.6446
   39DOPE   C12 4907   1.061   1.285  13.408  0.3392  0.0252  0.0267
   39DOPE  H12A 4908   1.008   1.312  13.314  0.7175  2.0070  0.3209
   39DOPE  H12B 4909   1.004   1.345  13.483 -3.0771 -0.2790 -2.1290
   39DOPE   C11 4910   1.077   1.136  13.441 -0.2612  0.1118 -0.6568
   39DOPE  H11A 4911   0.998   1.058  13.432 -0.1457 -0.3369  1.6843
   39DOPE  H11B 4912   1.084   1.136  13.552  0.6514 -0.6991 -0.7033
   39DOPE     P 4913   1.217   0.928  13.376 -0.5632 -0.2949 -0.0002
   39DOPE   O13 4914   1.338   0.892  13.308  0.1042  0.2051  0.0037
   39DOPE   O14 4915   1.093   0.879  13.307  0.1281 -0.4382  0.1894
   39DOPE   O11 4916   1.222   0.883  13.527 -0.1223 -0.1507  0.0650
   39DOPE   O12 4917   1.204   1.086  13.390 -0.4795  0.0641 -0.2476
   39DOPE    C1 4918   1.348   0.896  13.597  0.3278  0.5608 -0.3444
   39DOPE    HA 4919   1.402   0.993  13.589 -2.5760  2.4035  0.8880
   39DOPE    HB 4920   1.408   0.805  13.574 -0.1988  0.2593 -0.5614
   39DOPE    C2 4921   1.335   0.885  13.758  0.4254 -0.2353  0.2479
   39DOPE    HS 4922   1.436   0.854  13.791  0.7007  0.3017 -0.0768
   39DOPE   O21 4923   1.241   0.780  13.782  0.1061 -0.2341 -0.5445
   39DOPE   C21 4924   1.269   0.703  13.883  0.0342  0.6682  0.6337
   39DOPE   O22 4925   1.367   0.707  13.956  0.1585 -0.2628 -1.0707
   39DOPE   C22 4926   1.162   0.605  13.911  0.1817 -0.4755 -1.4081
   39DOPE   H2R 4927   1.164   0.526  13.833 -1.4872 -2.6197  0.5694
   39DOPE   H2S 4928   1.062   0.653  13.914  1.0789  1.4482 -0.3578
   39DOPE    C3 4929   1.294   1.019  13.819  0.2471  1.1916  0.5209
   39DOPE    HX 4930   1.191   1.048  13.787  0.4062  1.5432  0.3276
   39DOPE    HY 4931   1.360   1.095  13.774 -0.0867  0.7403 -0.7654
   39DOPE   O31 4932   1.309   1.008  13.958 -0.0936 -0.2621 -0.5114
   39DOPE   C31 4933   1.201   1.011  14.041  0.3202 -0.2505  0.2450
   39DOPE   O32 4934   1.086   0.995  14.004 -0.1853  0.1186 -0.5256
   39DOPE   C32 4935   1.242   1.023  14.182  0.0848  0.6488 -0.0224
   39DOPE   H2X 4936   1.321   0.947  14.200  0.9902  1.3947 -0.7220
   39DOPE   H2Y 4937   1.300   1.118  14.191 -1.2716  1.5299 -0.2852
   39DOPE   C23 4938   1.177   0.535  14.046 -0.6534  0.4528  0.2583
   39DOPE   H3R 4939   1.274   0.482  14.055 -0.4887  0.3610 -1.6816
   39DOPE   H3S 4940   1.092   0.463  14.054 -2.4449  2.5030  0.8559
   39DOPE   C24 4941   1.151   0.618  14.179 -0.4301 -0.2346  0.3090
   39DOPE   H4R 4942   1.049   0.660  14.173 -0.7011 -0.8222  0.7021
   39DOPE   H4S 4943   1.218   0.707  14.172 -1.0960  0.1807 -1.1305
   39DOPE   C25 4944   1.161   0.526  14.297 -0.2810 -0.7713  0.5531
   39DOPE   H5R 4945   1.268   0.499  14.304 -0.7395 -2.6392  1.0384
   39DOPE   H5S 4946   1.101   0.436  14.273  0.7214 -1.1054 -0.7725
   39DOPE   C26 4947   1.121   0.593  14.421 -0.6161 -0.3958  0.2839
   39DOPE   H6R 4948   1.013   0.621  14.421 -0.7300 -0.8435  0.0761
   39DOPE   H6S 4949   1.172   0.691  14.429  2.3041 -1.8716  0.8537
   39DOPE   C27 4950   1.126   0.519  14.550  0.1840  0.0370 -0.1529
   39DOPE   H7R 4951   1.228   0.480  14.573  2.2468  3.3030 -2.7556
   39DOPE   H7S 4952   1.059   0.431  14.542  0.6230 -0.5418  1.9027
   39DOPE   C28 4953   1.050   0.596  14.653 -0.2901 -0.0502  0.4252
   39DOPE   H8R 4954   1.035   0.529  14.740 -2.1974 -1.0562 -0.6115
   39DOPE   H8S 4955   0.951   0.637  14.624 -0.0016  1.7301  1.7283
   39DOPE   C29 4956   1.127   0.716  14.706  0.3068  0.1245 -0.5196
   39DOPE   H9R 4957   1.172   0.786  14.634  0.3581  1.8976  1.1616
   39DOPE  C210 4958   1.128   0.753  14.836 -0.4003  0.1938 -0.2700
   39DOPE  H10R 4959   1.204   0.826  14.867  1.0907 -1.8953  1.3987
   39DOPE  C211 4960   1.049   0.685  14.946 -0.4689 -0.0960  0.0074
   39DOPE  H11R 4961   1.001   0.589  14.915  3.8852 -2.8054  0.7298
   39DOPE  H11S 4962   0.977   0.765  14.973 -0.4988 -0.4872  1.1440
   39DOPE  C212 4963   1.141   0.664  15.066  0.4527  0.0608  0.0215
   39DOPE  H12R 4964   1.181   0.762  15.102 -2.0972  0.8016  1.0257
   39DOPE  H12S 4965   1.227   0.599  15.042  0.5457 -0.3702  1.4413
   39DOPE  C213 4966   1.060   0.602  15.191 -0.1245 -0.0822  0.3172
   39DOPE  H13R 4967   1.050   0.492  15.181  2.4588 -0.3398 -0.2320
   39DOPE  H13S 4968   0.958   0.644  15.197  0.4478  1.2689  1.3526
   39DOPE  C214 4969   1.120   0.651  15.331 -0.6071 -0.9702 -0.5954
   39DOPE  H14R 4970   1.067   0.745  15.354  0.0170 -0.5419 -0.8823
   39DOPE  H14S 4971   1.225   0.685  15.319 -1.4753  2.2738  0.0502
   39DOPE  C215 4972   1.115   0.557  15.448 -0.4633 -0.1886  0.1633
   39DOPE  H15R 4973   1.008   0.529  15.459 -0.4652 -0.4139 -0.4023
   39DOPE  H15S 4974   1.144   0.607  15.542 -1.2773  0.7028 -0.0429
   39DOPE  C216 4975   1.196   0.431  15.418 -0.0720 -0.1722 -0.3121
   39DOPE  H16R 4976   1.251   0.425  15.322  2.3831  0.8194  0.9473
   39DOPE  H16S 4977   1.125   0.345  15.416  0.8869 -0.9759 -0.3670
   39DOPE  C217 4978   1.280   0.397  15.542 -0.1460  0.2403 -0.4590
   39DOPE  H17R 4979   1.319   0.293  15.529  0.8183  0.6571 -1.0549
   39DOPE  H17S 4980   1.215   0.388  15.631 -0.3798  1.0101 -0.5500
   39DOPE  C218 4981   1.401   0.481  15.564  0.8203  0.1180  0.0601
   39DOPE  H18R 4982   1.468   0.460  15.478 -0.1160  0.6049 -0.8073
   39DOPE  H18S 4983   1.444   0.455  15.663 -0.7679 -2.3957  0.1879
   39DOPE  H18T 4984   1.356   0.581  15.550 -3.8622 -1.8404 -0.7777
   39DOPE   C33 4985   1.125   1.000  14.280 -0.2255 -0.0321 -0.4030
   39DOPE   H3X 4986   1.129   0.895  14.317 -0.3320  0.4844  1.1356
   39DOPE   H3Y 4987   1.024   1.003  14.234 -0.8452 -0.2185  0.9172
   39DOPE   C34 4988   1.123   1.095  14.402 -0.4438  0.5109 -0.3886
   39DOPE   H4X 4989   1.226   1.099  14.442 -0.6848  1.0770  0.2150
   39DOPE   H4Y 4990   1.091   1.194  14.362 -4.4921 -0.4150  0.1250
   39DOPE   C35 4991   1.011   1.053  14.507 -0.4566  0.1356 -0.0023
   39DOPE   H5X 4992   1.009   0.944  14.530 -0.8901  0.4671  1.6489
   39DOPE   H5Y 4993   0.915   1.088  14.463  0.5439  3.5540  0.2683
   39DOPE   C36 4994   1.022   1.124  14.645  0.0416 -0.0182  0.0290
   39DOPE   H6X 4995   1.028   1.234  14.633  2.4699 -0.1135 -0.0156
   39DOPE   H6Y 4996   1.117   1.086  14.688 -0.3982 -2.8638 -1.2946
   39DOPE   C37 4997   0.913   1.093  14.755 -0.6564  0.0012  0.5405
   39DOPE   H7X 4998   0.820   1.126  14.704  1.0876  1.2351 -2.0333
   39DOPE   H7Y 4999   0.914   0.982  14.753  0.7959 -0.0201  1.1392
   39DOPE   C38 5000   0.920   1.139  14.897 -0.3629 -0.2837 -0.3535
   39DOPE   H8X 5001   0.841   1.105  14.968  0.9226  2.3028  2.5562
   39DOPE   H8Y 5002   0.917   1.250  14.893 -0.3239 -0.3209 -3.2089
   39DOPE   C39 5003   1.063   1.124  14.946  0.2498 -0.5111  0.2762
   39DOPE   H9X 5004   1.142   1.164  14.880 -0.2193 -0.2730 -0.1453
   39DOPE  C310 5005   1.098   1.056  15.061  1.0363 -0.5908 -0.1198
   39DOPE  H10X 5006   1.204   1.046  15.089  1.6004 -2.1219 -2.5133
   39DOPE  C311 5007   1.000   0.991  15.156  0.4502 -0.3197  0.6255
   39DOPE  H11X 5008   0.936   0.922  15.097 -1.0634  1.1961  0.4191
   39DOPE  H11Y 5009   1.052   0.917  15.221  0.4695  0.2590  1.2884
   39DOPE  C312 5010   0.903   1.077  15.237  0.0234 -0.5628 -0.3384
   39DOPE  H12X 5011   0.845   1.009  15.302 -2.0954  0.7931 -0.7305
   39DOPE  H12Y 5012   0.826   1.128  15.174  1.1848  0.4315 -1.0078
   39DOPE  C313 5013   0.964   1.185  15.327  0.5097 -0.0146  0.0639
   39DOPE  H13X 5014   1.030   1.259  15.278 -0.3793 -0.7391 -2.3332
   39DOPE  H13Y 5015   0.885   1.238  15.384  1.4813 -0.3792  1.8521
   39DOPE  C314 5016   1.042   1.124  15.437  0.2979 -0.7172 -0.5778
   39DOPE  H14X 5017   1.118   1.190  15.483 -0.1658 -0.9700  0.6191
   39DOPE  H14Y 5018   1.095   1.037  15.393  2.7765 -0.0586  0.9304
   39DOPE  C315 5019   0.952   1.083  15.556 -0.0097  0.0622 -0.7136
   39DOPE  H15X 5020   0.863   1.028  15.519  0.1552 -0.7177  0.0127
   39DOPE  H15Y 5021   0.932   1.176  15.612  0.2717 -0.5702  0.4678
   39DOPE  C316 5022   1.040   0.986  15.633  0.1490  0.1445  0.0430
   39DOPE  H16X 5023   1.145   1.016  15.652  0.4307 -1.6242  1.6258
   39DOPE  H16Y 5024   1.041   0.900  15.563 -0.4389 -1.0977  1.4956
   39DOPE  C317 5025   0.999   0.928  15.764  0.1038  0.0719  0.5633
   39DOPE  H17X 5026   0.975   1.004  15.842 -0.9949 -1.8547  2.2041
   39DOPE  H17Y 5027   0.908   0.868  15.741  0.0171  0.7193 -0.8540
   39DOPE  C318 5028   1.094   0.816  15.816  0.8625 -0.5557  0.6593
   39DOPE  H18X 5029   1.191   0.868  15.832  0.9868 -0.2081 -1.0011
   39DOPE  H18Y 5030   1.059   0.775  15.913  2.7383  1.7914  2.4412
   39DOPE  H18Z 5031   1.114   0.742  15.735 -1.8586 -0.2708 -0.3565
   40DOPE     N 5032   3.421   1.625  12.586  0.6258  0.1485  0.0150
   40DOPE   HN1 5033   3.440   1.716  12.540  0.4058  1.8078  2.9283
   40DOPE   HN2 5034   3.494   1.551  12.580  1.6196  1.2131 -1.6590
   40DOPE   HN3 5035   3.337   1.586  12.538 -0.3106  1.4408  0.5606
   40DOPE   C12 5036   3.389   1.643  12.733  0.0071  0.2550  0.4025
   40DOPE  H12A 5037   3.485   1.668  12.784  0.2823 -1.1434  0.6230
   40DOPE  H12B 5038   3.353   1.549  12.780  3.1396 -0.0949  2.4357
   40DOPE   C11 5039   3.297   1.768  12.759  0.1138  0.4279  0.4985
   40DOPE  H11A 5040   3.351   1.863  12.738  0.4439  0.0425 -0.4851
   40DOPE  H11B 5041   3.270   1.760  12.866 -1.1140  2.8662  0.4337
   40DOPE     P 5042   3.028   1.740  12.722 -0.0344 -0.6450  0.3315
   40DOPE   O13 5043   2.984   1.615  12.654  0.3817  0.6717  0.0788
   40DOPE   O14 5044   2.959   1.867  12.685 -0.0732  0.0783 -0.4485
   40DOPE   O11 5045   3.037   1.715  12.885  0.0908 -0.3976  0.6072
   40DOPE   O12 5046   3.181   1.755  12.680  0.1060 -0.1214 -0.3059
   40DOPE    C1 5047   2.963   1.809  12.964  0.0587  0.2306  0.2874
   40DOPE    HA 5048   2.859   1.805  12.927  0.1585  3.0310 -0.4573
   40DOPE    HB 5049   3.001   1.912  12.951  1.9085 -0.3415  0.8282
   40DOPE    C2 5050   2.963   1.780  13.119 -0.3251  0.1122  0.2197
   40DOPE    HS 5051   2.913   1.861  13.178  1.4034  1.7744 -0.5015
   40DOPE   O21 5052   3.100   1.762  13.161  0.0792 -0.0124  0.3745
   40DOPE   C21 5053   3.169   1.872  13.166  0.5409 -0.2106  0.6908
   40DOPE   O22 5054   3.128   1.983  13.141  0.5092 -0.2308 -0.2156
   40DOPE   C22 5055   3.317   1.845  13.201  0.7330  0.2448  0.1182
   40DOPE   H2R 5056   3.367   1.820  13.105  2.5279  3.1353  0.2009
   40DOPE   H2S 5057   3.327   1.745  13.249 -1.1386 -1.1793 -2.2244
   40DOPE    C3 5058   2.880   1.661  13.163 -0.0148  0.1364 -0.5773
   40DOPE    HX 5059   2.930   1.574  13.116  0.0267 -0.5917  0.7635
   40DOPE    HY 5060   2.784   1.670  13.108 -0.0700  0.2896 -0.4572
   40DOPE   O31 5061   2.872   1.652  13.307  0.1185  0.4874 -0.2089
   40DOPE   C31 5062   2.964   1.576  13.359  0.2209 -0.6416  0.2072
   40DOPE   O32 5063   3.066   1.534  13.302  0.0762 -0.2481 -0.4643
   40DOPE   C32 5064   2.941   1.584  13.509 -0.9060 -0.0286 -0.1229
   40DOPE   H2X 5065   2.834   1.577  13.537 -1.3280  1.7847 -1.1142
   40DOPE   H2Y 5066   2.980   1.494  13.562 -1.9578  0.6715  1.9494
   40DOPE   C23 5067   3.379   1.953  13.283 -0.0353 -0.1189  0.3170
   40DOPE   H3R 5068   3.370   2.055  13.239 -1.1564 -0.8390 -1.2171
   40DOPE   H3S 5069   3.487   1.926  13.291 -0.2542 -1.6907 -1.3433
   40DOPE   C24 5070   3.320   1.955  13.425 -0.5314 -0.1040 -0.2285
   40DOPE   H4R 5071   3.338   1.857  13.474  0.8280  0.2464  0.0052
   40DOPE   H4S 5072   3.209   1.964  13.427 -0.5115  0.0973  0.1108
   40DOPE   C25 5073   3.375   2.070  13.518 -0.3876 -0.6983 -0.4228
   40DOPE   H5R 5074   3.347   2.164  13.467 -2.2629 -0.6201  0.7063
   40DOPE   H5S 5075   3.484   2.057  13.535 -0.3566  0.7996  0.7316
   40DOPE   C26 5076   3.306   2.056  13.656 -0.3399  0.2009  0.2406
   40DOPE   H6R 5077   3.336   1.954  13.688 -0.9322  0.1704  0.7207
   40DOPE   H6S 5078   3.197   2.080  13.650  0.0512  2.0788  0.0067
   40DOPE   C27 5079   3.358   2.156  13.755 -0.2267  0.0778  0.6749
   40DOPE   H7R 5080   3.331   2.257  13.719  0.2340 -0.7455 -2.2715
   40DOPE   H7S 5081   3.469   2.156  13.748 -0.2674 -1.6289 -0.6407
   40DOPE   C28 5082   3.321   2.117  13.894  0.0036 -1.2254 -0.2482
   40DOPE   H8R 5083   3.389   2.037  13.931 -0.2046 -1.4309 -0.3132
   40DOPE   H8S 5084   3.216   2.086  13.911 -0.5910  0.2022 -1.2047
   40DOPE   C29 5085   3.330   2.242  13.987 -0.2870  0.1953  0.6836
   40DOPE   H9R 5086   3.331   2.336  13.929 -0.8898 -0.2725 -0.1105
   40DOPE  C210 5087   3.345   2.245  14.119  0.0737 -0.2660 -0.1698
   40DOPE  H10R 5088   3.337   2.347  14.160 -0.9408 -0.1816 -0.5584
   40DOPE  C211 5089   3.362   2.124  14.202 -0.1433 -0.8447 -0.3316
   40DOPE  H11R 5090   3.439   2.062  14.152  0.0725 -0.7336 -0.1389
   40DOPE  H11S 5091   3.265   2.070  14.210 -0.4673 -0.1388  0.7660
   40DOPE  C212 5092   3.405   2.150  14.346  0.9168 -0.5581 -0.3738
   40DOPE  H12R 5093   3.504   2.200  14.339  1.7578 -2.0464  0.3875
   40DOPE  H12S 5094   3.430   2.055  14.397  1.6857 -0.4993 -0.6274
   40DOPE  C213 5095   3.302   2.231  14.432  0.1532 -0.6276  0.0583
   40DOPE  H13R 5096   3.200   2.187  14.423  1.0383 -2.4963 -1.5585
   40DOPE  H13S 5097   3.285   2.334  14.394 -1.8388 -0.8468  0.2363
   40DOPE  C214 5098   3.350   2.233  14.575 -0.2692  0.0866 -0.1652
   40DOPE  H14R 5099   3.441   2.296  14.577  0.0012 -0.0915 -2.8345
   40DOPE  H14S 5100   3.372   2.128  14.605  0.9525 -0.5256 -2.9108
   40DOPE  C215 5101   3.244   2.294  14.664  0.1652  0.3336  0.0446
   40DOPE  H15R 5102   3.147   2.245  14.638  0.4954  0.3315 -1.2790
   40DOPE  H15S 5103   3.236   2.404  14.651 -0.1508  0.3605  0.4529
   40DOPE  C216 5104   3.274   2.260  14.811 -0.7470  0.4219  0.4714
   40DOPE  H16R 5105   3.252   2.154  14.836 -0.3418  0.6746  1.9941
   40DOPE  H16S 5106   3.209   2.332  14.865 -0.7367 -0.2560  1.4003
   40DOPE  C217 5107   3.416   2.296  14.855  0.0268  0.1795 -0.1077
   40DOPE  H17R 5108   3.439   2.401  14.829  2.6206 -1.0901 -3.6612
   40DOPE  H17S 5109   3.496   2.237  14.804  0.1866  0.4706 -0.1957
   40DOPE  C218 5110   3.449   2.283  15.005  0.0552 -0.7651  0.2696
   40DOPE  H18R 5111   3.454   2.182  15.051  0.4717 -1.1751 -0.6543
   40DOPE  H18S 5112   3.375   2.342  15.064 -2.1662 -0.6771 -2.3971
   40DOPE  H18T 5113   3.544   2.338  15.023 -1.5590  3.2433 -2.0047
   40DOPE   C33 5114   3.000   1.714  13.574  0.5810 -0.1301  0.0200
   40DOPE   H3X 5115   2.942   1.804  13.544  0.5689 -0.7174 -1.8406
   40DOPE   H3Y 5116   3.106   1.729  13.545  0.4279 -0.4432 -0.7214
   40DOPE   C34 5117   2.993   1.707  13.728  0.4537  0.3447 -0.0583
   40DOPE   H4X 5118   2.892   1.742  13.758  0.0987 -1.7282  1.4245
   40DOPE   H4Y 5119   2.998   1.604  13.769  1.1394  1.7162  3.6861
   40DOPE   C35 5120   3.107   1.783  13.805  0.2296 -0.3244 -0.1152
   40DOPE   H5X 5121   3.099   1.890  13.777  0.5760 -0.5319 -1.0373
   40DOPE   H5Y 5122   3.200   1.739  13.764  0.4702 -1.2262  1.3249
   40DOPE   C36 5123   3.097   1.761  13.962 -0.1065  0.0025 -0.0988
   40DOPE   H6X 5124   3.197   1.785  14.004 -1.5021  1.7933  2.4630
   40DOPE   H6Y 5125   3.078   1.659  14.003  1.1987  0.6026  2.1572
   40DOPE   C37 5126   2.983   1.851  14.026 -0.0302 -0.7318 -0.3730
   40DOPE   H7X 5127   3.017   1.956  14.040 -2.1327  0.1437 -1.3165
   40DOPE   H7Y 5128   2.887   1.859  13.970 -0.1278 -3.0180 -0.6330
   40DOPE   C38 5129   2.954   1.802  14.169  0.4843  0.6188 -0.5377
   40DOPE   H8X 5130   2.906   1.885  14.225 -0.2781  0.3580 -0.7991
   40DOPE   H8Y 5131   3.052   1.777  14.215 -0.7230 -3.3383  0.2255
   40DOPE   C39 5132   2.863   1.683  14.177  0.8236 -0.6892  0.3527
   40DOPE   H9X 5133   2.797   1.675  14.089 -0.3862 -4.0468  1.3946
   40DOPE  C310 5134   2.855   1.583  14.268 -0.1714  0.1412  0.0914
   40DOPE  H10X 5135   2.784   1.500  14.256 -1.6104  0.9008  2.6330
   40DOPE  C311 5136   2.937   1.565  14.387  0.3901  1.4031  0.1047
   40DOPE  H11X 5137   2.964   1.457  14.390  0.4578  1.3788 -0.9851
   40DOPE  H11Y 5138   3.035   1.613  14.364  0.7497 -0.1333 -1.8674
   40DOPE  C312 5139   2.886   1.616  14.523  0.4506  0.0703  0.0804
   40DOPE  H12X 5140   2.779   1.589  14.531  0.3536  0.5650  0.5538
   40DOPE  H12Y 5141   2.886   1.727  14.521  0.1564  0.0737  0.2626
   40DOPE  C313 5142   2.967   1.561  14.637  0.2565 -0.4225 -0.1120
   40DOPE  H13X 5143   2.952   1.451  14.647 -1.2159 -0.3400 -1.1281
   40DOPE  H13Y 5144   3.075   1.575  14.615  0.9102 -3.9078  0.2543
   40DOPE  C314 5145   2.921   1.608  14.773 -0.1486  0.3201  0.5116
   40DOPE  H14X 5146   2.823   1.566  14.805 -0.3782  1.4707  1.4343
   40DOPE  H14Y 5147   2.900   1.717  14.767 -4.1290 -0.1843  2.0167
   40DOPE  C315 5148   3.018   1.582  14.891 -0.6017 -0.4948 -0.2955
   40DOPE  H15X 5149   3.114   1.638  14.890 -1.8587  1.7907 -1.3825
   40DOPE  H15Y 5150   3.055   1.479  14.875  0.0152 -0.4021  0.4618
   40DOPE  C316 5151   2.950   1.597  15.027 -0.5383 -0.4431 -0.2967
   40DOPE  H16X 5152   3.001   1.530  15.099 -1.0515 -0.1519  0.3410
   40DOPE  H16Y 5153   2.842   1.578  15.016 -0.5800  0.3442 -1.3966
   40DOPE  C317 5154   2.967   1.734  15.096 -0.1302 -0.4107 -0.1815
   40DOPE  H17X 5155   3.076   1.750  15.109 -0.2151  1.7724 -1.5319
   40DOPE  H17Y 5156   2.920   1.813  15.033 -2.0428 -1.0558  0.3864
   40DOPE  C318 5157   2.897   1.738  15.233  0.2197  0.1019  0.0184
   40DOPE  H18X 5158   2.789   1.718  15.220  0.3063 -0.2876 -0.1297
   40DOPE  H18Y 5159   2.932   1.652  15.294 -0.1653  0.3806  0.6315
   40DOPE  H18Z 5160   2.912   1.835  15.285 -2.0806  0.4407  0.1414
   41DOPE     N 5161   0.604   1.884  12.973 -0.6874 -0.9488 -0.0646
   41DOPE   HN1 5162   0.524   1.882  13.040 -0.6593  1.0475  0.1091
   41DOPE   HN2 5163   0.576   1.944  12.893 -0.3648 -3.0393 -1.8158
   41DOPE   HN3 5164   0.608   1.790  12.930  0.3354 -0.0811 -1.9626
   41DOPE   C12 5165   0.733   1.925  13.047  0.6741  0.1341  0.0502
   41DOPE  H12A 5166   0.745   2.036  13.044 -0.3180  0.2343 -0.7983
   41DOPE  H12B 5167   0.817   1.889  12.984  1.5448  1.5922  0.3294
   41DOPE   C11 5168   0.728   1.866  13.188  0.2101 -0.4064 -0.5757
   41DOPE  H11A 5169   0.644   1.915  13.244  0.1565 -1.9275  0.7322
   41DOPE  H11B 5170   0.816   1.906  13.243  0.2930 -0.8510 -0.3799
   41DOPE     P 5171   0.842   1.634  13.216  0.0551  0.2379 -0.3147
   41DOPE   O13 5172   0.959   1.676  13.136 -0.5063  0.1044 -0.0024
   41DOPE   O14 5173   0.796   1.497  13.210  0.3005  0.5424  0.4827
   41DOPE   O11 5174   0.874   1.667  13.366  0.3840  0.1824 -0.6859
   41DOPE   O12 5175   0.716   1.724  13.188  0.8334  0.2344 -0.2721
   41DOPE    C1 5176   0.765   1.640  13.460  0.1022 -0.2482  0.6972
   41DOPE    HA 5177   0.756   1.532  13.485 -1.9768  0.1085  1.7302
   41DOPE    HB 5178   0.667   1.681  13.427  0.8290  0.5043 -0.5905
   41DOPE    C2 5179   0.791   1.704  13.597  0.2995 -0.2222 -0.0699
   41DOPE    HS 5180   0.899   1.686  13.615  0.2947 -1.2502 -0.9678
   41DOPE   O21 5181   0.722   1.642  13.709  0.1163 -0.2787 -0.0308
   41DOPE   C21 5182   0.751   1.526  13.744  0.2137 -0.2468 -0.1636
   41DOPE   O22 5183   0.852   1.466  13.718  0.0645 -0.1301  0.2036
   41DOPE   C22 5184   0.647   1.482  13.850  0.1074 -0.5349 -0.2021
   41DOPE   H2R 5185   0.582   1.405  13.801 -1.1890  0.4296 -0.0520
   41DOPE   H2S 5186   0.581   1.569  13.870  0.8433  0.0577 -0.3329
   41DOPE    C3 5187   0.781   1.853  13.600  0.2873  0.2832  0.1279
   41DOPE    HX 5188   0.675   1.867  13.571  0.0024 -2.1819 -0.2713
   41DOPE    HY 5189   0.841   1.892  13.515 -0.1482  0.9969  0.1424
   41DOPE   O31 5190   0.823   1.912  13.728 -0.4173 -0.0306  0.1882
   41DOPE   C31 5191   0.760   2.028  13.756  0.0126  0.2638 -0.1982
   41DOPE   O32 5192   0.668   2.079  13.697  0.0234 -0.7573 -0.3243
   41DOPE   C32 5193   0.828   2.087  13.886  0.3367 -0.2722  0.2095
   41DOPE   H2X 5194   0.851   2.013  13.966  1.2703  0.6331  0.8005
   41DOPE   H2Y 5195   0.929   2.099  13.842  0.4782 -3.7348 -0.6647
   41DOPE   C23 5196   0.705   1.428  13.982 -0.1202 -0.4694 -1.1363
   41DOPE   H3R 5197   0.730   1.513  14.049 -5.1612 -0.4222  1.0639
   41DOPE   H3S 5198   0.802   1.377  13.960  0.5409  0.3220 -0.1561
   41DOPE   C24 5199   0.610   1.334  14.061  0.3045 -0.3569 -0.4054
   41DOPE   H4R 5200   0.592   1.250  13.990  0.5030  0.2239 -1.1569
   41DOPE   H4S 5201   0.513   1.387  14.072 -0.1030 -1.3387  1.0766
   41DOPE   C25 5202   0.667   1.281  14.199  0.0319 -0.0128  0.3925
   41DOPE   H5R 5203   0.772   1.249  14.185  0.4401  0.3455  2.3008
   41DOPE   H5S 5204   0.614   1.184  14.214  2.0124 -1.3432 -0.8094
   41DOPE   C26 5205   0.648   1.381  14.317  0.3638  0.3314 -0.3728
   41DOPE   H6R 5206   0.697   1.474  14.281  1.4151  0.4747  1.3173
   41DOPE   H6S 5207   0.701   1.360  14.413  0.4512 -0.7375 -0.6340
   41DOPE   C27 5208   0.501   1.409  14.348  0.3797  0.2705 -0.0339
   41DOPE   H7R 5209   0.435   1.326  14.314  0.0029  0.4948  0.1498
   41DOPE   H7S 5210   0.473   1.497  14.286 -0.5310  0.8714  1.1905
   41DOPE   C28 5211   0.468   1.430  14.499 -0.2835 -0.1911  0.2879
   41DOPE   H8R 5212   0.362   1.462  14.502 -0.7725 -1.7998  1.2022
   41DOPE   H8S 5213   0.529   1.507  14.551 -1.3542  1.5205 -0.8628
   41DOPE   C29 5214   0.493   1.298  14.569  0.7680  0.2320  0.2020
   41DOPE   H9R 5215   0.442   1.214  14.520 -0.5552  0.5409  1.0093
   41DOPE  C210 5216   0.559   1.271  14.681  0.5642 -0.8454 -1.1471
   41DOPE  H10R 5217   0.560   1.164  14.707  1.1488 -0.4705  0.5383
   41DOPE  C211 5218   0.635   1.369  14.781 -0.1082 -0.2466 -0.4728
   41DOPE  H11R 5219   0.631   1.476  14.752 -0.4818 -0.0620  0.2419
   41DOPE  H11S 5220   0.738   1.331  14.800 -0.7578 -1.2063  1.3800
   41DOPE  C212 5221   0.575   1.366  14.924 -0.4017 -0.4046  0.5800
   41DOPE  H12R 5222   0.568   1.260  14.957  0.1294 -1.7007 -3.0163
   41DOPE  H12S 5223   0.475   1.415  14.923  0.9778  2.6531  1.2687
   41DOPE  C213 5224   0.661   1.445  15.026 -0.0585  0.5561 -0.0472
   41DOPE  H13R 5225   0.669   1.549  14.989  3.4486  0.4302  0.0133
   41DOPE  H13S 5226   0.768   1.412  15.030 -0.6599 -1.6449  4.0772
   41DOPE  C214 5227   0.610   1.447  15.171  0.7247  0.2002 -0.0883
   41DOPE  H14R 5228   0.516   1.503  15.157 -0.0048 -1.2412 -1.2375
   41DOPE  H14S 5229   0.675   1.497  15.246  0.7848 -1.6365  1.1532
   41DOPE  C215 5230   0.568   1.310  15.238  0.1178 -0.3915  0.3211
   41DOPE  H15R 5231   0.663   1.254  15.252  0.3269 -0.3036 -0.7168
   41DOPE  H15S 5232   0.498   1.253  15.173  1.0563  0.9861 -1.9892
   41DOPE  C216 5233   0.503   1.325  15.377  0.0657  0.2836  0.7966
   41DOPE  H16R 5234   0.404   1.377  15.376 -1.2489 -2.0583  1.4881
   41DOPE  H16S 5235   0.573   1.387  15.438 -0.7565 -0.4755  2.6117
   41DOPE  C217 5236   0.469   1.193  15.451 -0.3393  0.6778 -0.5091
   41DOPE  H17R 5237   0.426   1.111  15.389 -0.2339 -0.0783  0.4006
   41DOPE  H17S 5238   0.408   1.212  15.541  2.5539 -2.0807  2.3107
   41DOPE  C218 5239   0.592   1.120  15.512 -0.1651 -0.2238 -0.1750
   41DOPE  H18R 5240   0.656   1.074  15.434 -0.6125  0.6396 -1.0703
   41DOPE  H18S 5241   0.568   1.035  15.580 -0.4673  0.5989  0.7742
   41DOPE  H18T 5242   0.650   1.195  15.571 -1.3589 -0.3466  1.1998
   41DOPE   C33 5243   0.768   2.215  13.940 -0.3861  0.2657 -1.0288
   41DOPE   H3X 5244   0.657   2.207  13.939 -0.4861 -1.6427  3.5759
   41DOPE   H3Y 5245   0.802   2.308  13.890 -0.7994  1.4610  0.8305
   41DOPE   C34 5246   0.826   2.231  14.087  0.1013 -0.1028 -0.0988
   41DOPE   H4X 5247   0.855   2.133  14.129  0.3114 -0.5862 -1.3185
   41DOPE   H4Y 5248   0.920   2.289  14.100 -0.1143 -0.2744  2.8923
   41DOPE   C35 5249   0.721   2.289  14.188  0.4003  0.1397  0.7773
   41DOPE   H5X 5250   0.622   2.250  14.156  1.4001 -1.2754 -0.7198
   41DOPE   H5Y 5251   0.723   2.397  14.163  1.8039 -0.0022  0.2022
   41DOPE   C36 5252   0.759   2.261  14.333 -0.2737  0.6113 -0.3906
   41DOPE   H6X 5253   0.853   2.313  14.362 -0.3519  0.9380 -0.7192
   41DOPE   H6Y 5254   0.771   2.151  14.339  0.2527  0.7268  2.0143
   41DOPE   C37 5255   0.649   2.320  14.428 -0.5317  0.4993  0.5388
   41DOPE   H7X 5256   0.614   2.424  14.411 -0.9495  0.1861 -0.5926
   41DOPE   H7Y 5257   0.552   2.265  14.425 -1.3051  1.5279  3.2305
   41DOPE   C38 5258   0.695   2.303  14.574  0.2430 -0.5404  0.4250
   41DOPE   H8X 5259   0.607   2.321  14.640  0.0760 -1.1651  0.3774
   41DOPE   H8Y 5260   0.765   2.390  14.580 -0.3770  0.2636 -2.3872
   41DOPE   C39 5261   0.766   2.180  14.610 -0.1682 -0.0169 -0.1055
   41DOPE   H9X 5262   0.734   2.093  14.552  0.8192  1.0408 -2.3741
   41DOPE  C310 5263   0.840   2.163  14.715  0.0493 -0.1809  0.4090
   41DOPE  H10X 5264   0.888   2.066  14.732  0.8163  0.1747  0.3082
   41DOPE  C311 5265   0.871   2.270  14.816  0.9929 -0.0030 -0.6620
   41DOPE  H11X 5266   0.961   2.327  14.785  0.7057  0.5005 -0.5732
   41DOPE  H11Y 5267   0.784   2.337  14.836  1.6933  0.5936  0.4741
   41DOPE  C312 5268   0.892   2.206  14.953  0.2311  0.1071  0.2290
   41DOPE  H12X 5269   0.795   2.167  14.992  0.9201  0.1855  2.1203
   41DOPE  H12Y 5270   0.911   2.289  15.025  0.6818  1.1030 -0.9969
   41DOPE  C313 5271   1.007   2.102  14.963 -0.0971 -0.2719 -0.5135
   41DOPE  H13X 5272   0.976   2.004  14.921  0.9129 -0.3701 -1.0502
   41DOPE  H13Y 5273   1.086   2.143  14.897 -1.5455 -0.0645 -2.1779
   41DOPE  C314 5274   1.080   2.088  15.099  0.8784 -0.1580 -0.1716
   41DOPE  H14X 5275   1.176   2.036  15.077  0.0977 -0.8672 -2.0477
   41DOPE  H14Y 5276   1.025   2.025  15.172 -0.8012 -0.9857 -2.0938
   41DOPE  C315 5277   1.118   2.226  15.159 -0.2392  0.3931 -1.2395
   41DOPE  H15X 5278   1.033   2.264  15.220 -1.4324 -0.5890 -2.2312
   41DOPE  H15Y 5279   1.135   2.299  15.077 -0.6060  0.6256 -1.1103
   41DOPE  C316 5280   1.233   2.221  15.255 -0.4430 -0.0097 -0.8333
   41DOPE  H16X 5281   1.323   2.189  15.197  0.3163  0.7410 -0.0925
   41DOPE  H16Y 5282   1.212   2.141  15.329  3.1111  0.3155  0.7103
   41DOPE  C317 5283   1.259   2.358  15.329 -0.1781  0.0137 -0.0290
   41DOPE  H17X 5284   1.263   2.437  15.250  0.7364  0.8213  0.7988
   41DOPE  H17Y 5285   1.185   2.372  15.410  1.4767 -0.8345  1.7076
   41DOPE  C318 5286   1.391   2.383  15.397  0.0270  0.1502 -0.6593
   41DOPE  H18X 5287   1.409   2.298  15.466  0.2307 -0.7985 -1.8438
   41DOPE  H18Y 5288   1.475   2.382  15.324  0.6194  0.8696 -0.0064
   41DOPE  H18Z 5289   1.394   2.469  15.467  2.9371  1.2762 -2.0141
   42DOPE     N 5290   0.880   2.263  13.308  0.8190  0.7273  0.1237
   42DOPE   HN1 5291   0.797   2.202  13.316 -0.4411  2.0734 -1.7603
   42DOPE   HN2 5292   0.849   2.360  13.285 -2.9685 -0.8859 -2.6501
   42DOPE   HN3 5293   0.940   2.232  13.229  0.2249  0.9661 -0.4379
   42DOPE   C12 5294   0.968   2.270  13.431 -0.0011  0.4342 -0.0478
   42DOPE  H12A 5295   0.908   2.320  13.510 -0.3482  0.1238 -0.1115
   42DOPE  H12B 5296   1.052   2.338  13.405  0.4796  0.5177  1.5690
   42DOPE   C11 5297   1.011   2.134  13.485  0.2213 -0.0459  0.4310
   42DOPE  H11A 5298   0.930   2.084  13.541  0.1917 -0.0102  0.4200
   42DOPE  H11B 5299   1.091   2.162  13.557 -1.2444 -0.3345  2.2478
   42DOPE     P 5300   1.213   2.061  13.337 -0.1860 -0.1426  0.4146
   42DOPE   O13 5301   1.266   2.198  13.352  0.1186 -0.7023 -0.9001
   42DOPE   O14 5302   1.230   1.996  13.205  0.4909 -0.3955 -0.2045
   42DOPE   O11 5303   1.281   1.954  13.436  0.0936  0.3925 -0.7619
   42DOPE   O12 5304   1.059   2.051  13.378 -0.2900 -0.0554 -0.2458
   42DOPE    C1 5305   1.219   1.829  13.444 -0.0564 -0.2136 -0.3485
   42DOPE    HA 5306   1.251   1.768  13.357  2.9364  2.2516 -1.1424
   42DOPE    HB 5307   1.108   1.832  13.449 -0.0510 -1.2642  1.9563
   42DOPE    C2 5308   1.268   1.754  13.575 -0.1971  0.6036 -0.1891
   42DOPE    HS 5309   1.205   1.664  13.564 -2.3260  2.2346 -2.3408
   42DOPE   O21 5310   1.249   1.837  13.693 -0.1698  0.9025  0.5453
   42DOPE   C21 5311   1.200   1.764  13.786 -0.0200  0.3809 -0.3951
   42DOPE   O22 5312   1.203   1.644  13.790  0.0883  0.1011 -0.1906
   42DOPE   C22 5313   1.141   1.865  13.888  0.7150 -0.5428  0.4855
   42DOPE   H2R 5314   1.041   1.897  13.852  1.0991  0.3897  0.2244
   42DOPE   H2S 5315   1.206   1.955  13.895  1.8822 -1.1207 -1.7613
   42DOPE    C3 5316   1.417   1.711  13.567 -0.5848  0.2686  0.0029
   42DOPE    HX 5317   1.474   1.806  13.572 -0.2811  0.1045 -0.3147
   42DOPE    HY 5318   1.435   1.666  13.467 -0.7952 -0.2271  0.1858
   42DOPE   O31 5319   1.447   1.620  13.674  0.0832 -0.3732  0.6428
   42DOPE   C31 5320   1.436   1.485  13.655 -0.2801  0.2313 -0.1295
   42DOPE   O32 5321   1.416   1.431  13.546 -0.3186  0.1800 -0.1699
   42DOPE   C32 5322   1.484   1.401  13.777 -0.4082 -0.7197 -0.2001
   42DOPE   H2X 5323   1.460   1.462  13.867 -0.6367 -1.5913  0.3528
   42DOPE   H2Y 5324   1.428   1.305  13.782 -1.3739 -0.1541  0.0904
   42DOPE   C23 5325   1.114   1.806  14.029 -0.4417 -0.3662  0.8517
   42DOPE   H3R 5326   1.069   1.897  14.074 -1.7940 -2.1482  3.3535
   42DOPE   H3S 5327   1.208   1.774  14.078  0.4143 -0.0447 -0.5353
   42DOPE   C24 5328   1.003   1.701  14.030  0.0270 -0.1864 -0.1969
   42DOPE   H4R 5329   1.040   1.598  14.012  1.1699  0.5803 -2.5992
   42DOPE   H4S 5330   0.921   1.717  13.956 -0.6954  1.1040  0.8361
   42DOPE   C25 5331   0.932   1.697  14.169 -0.3673 -0.6749  0.0658
   42DOPE   H5R 5332   0.827   1.665  14.154 -0.7278 -0.2295  1.5278
   42DOPE   H5S 5333   0.913   1.801  14.202 -0.8935 -1.2325  1.5868
   42DOPE   C26 5334   1.009   1.614  14.271  0.0579  0.0725  0.0251
   42DOPE   H6R 5335   1.112   1.652  14.286  0.1699 -0.9867  2.3515
   42DOPE   H6S 5336   1.012   1.506  14.247  2.4071 -0.3966  2.0696
   42DOPE   C27 5337   0.948   1.621  14.414 -0.0492  0.0450  0.2895
   42DOPE   H7R 5338   0.839   1.604  14.405 -0.1686  0.8222  0.2043
   42DOPE   H7S 5339   0.964   1.718  14.466  2.2470 -1.3416  2.3824
   42DOPE   C28 5340   1.014   1.521  14.508  0.0755  0.2970 -0.2956
   42DOPE   H8R 5341   1.117   1.561  14.514 -0.7078  2.5026 -0.3019
   42DOPE   H8S 5342   1.028   1.428  14.449  1.9597  0.0609  0.4665
   42DOPE   C29 5343   0.949   1.512  14.635 -0.6472 -0.4431 -0.4397
   42DOPE   H9R 5344   0.857   1.453  14.626 -0.9200  0.0755 -1.1007
   42DOPE  C210 5345   1.004   1.546  14.760  0.0785 -0.0885  0.5462
   42DOPE  H10R 5346   0.939   1.523  14.845 -1.6863 -2.4155 -1.2863
   42DOPE  C211 5347   1.134   1.605  14.792  0.3403  0.1939 -0.3962
   42DOPE  H11R 5348   1.120   1.715  14.803  0.2781  0.0259  1.4871
   42DOPE  H11S 5349   1.203   1.581  14.709 -0.3287 -0.9070 -0.6489
   42DOPE  C212 5350   1.188   1.542  14.918  0.7214  0.3744 -0.2874
   42DOPE  H12R 5351   1.290   1.582  14.933  1.3838 -0.6840 -1.6684
   42DOPE  H12S 5352   1.203   1.432  14.906 -0.4628 -0.1026  2.0725
   42DOPE  C213 5353   1.101   1.574  15.049  0.3284 -0.7809 -0.0402
   42DOPE  H13R 5354   1.004   1.522  15.039 -0.2501  0.2279  0.2189
   42DOPE  H13S 5355   1.073   1.682  15.051  0.3758 -0.7728  0.1347
   42DOPE  C214 5356   1.180   1.541  15.178  0.5380 -0.1219 -1.3318
   42DOPE  H14R 5357   1.266   1.611  15.186 -0.6277  1.7206 -3.5930
   42DOPE  H14S 5358   1.214   1.437  15.194  0.3853  0.0995  0.7540
   42DOPE  C215 5359   1.090   1.559  15.307  0.4940 -0.5812  0.1038
   42DOPE  H15R 5360   0.995   1.502  15.295 -0.0959  0.6999 -1.7771
   42DOPE  H15S 5361   1.057   1.664  15.325  3.2930  0.4618 -0.3869
   42DOPE  C216 5362   1.167   1.527  15.437  0.5003 -0.7631 -0.9604
   42DOPE  H16R 5363   1.258   1.589  15.448  0.1281 -0.1707 -1.1709
   42DOPE  H16S 5364   1.186   1.418  15.430  0.1931 -0.9719  0.8040
   42DOPE  C217 5365   1.092   1.553  15.568 -0.1224 -0.3069  0.3578
   42DOPE  H17R 5366   1.002   1.488  15.568 -0.9110  0.6470 -2.3957
   42DOPE  H17S 5367   1.059   1.659  15.572  1.9257  0.3445  0.8102
   42DOPE  C218 5368   1.176   1.522  15.693 -0.4902 -0.1041  0.5182
   42DOPE  H18R 5369   1.273   1.575  15.681 -0.3823 -0.4097  0.0330
   42DOPE  H18S 5370   1.201   1.414  15.690 -0.6878 -0.1397 -1.7667
   42DOPE  H18T 5371   1.128   1.544  15.791 -1.3581  0.5259 -0.0365
   42DOPE   C33 5372   1.638   1.387  13.778  0.7450  0.0297 -0.1878
   42DOPE   H3X 5373   1.689   1.482  13.751 -1.0948  1.2600  0.4463
   42DOPE   H3Y 5374   1.667   1.325  13.690  2.8424 -1.1926  1.2808
   42DOPE   C34 5375   1.695   1.315  13.899 -0.5839  0.4170  0.1241
   42DOPE   H4X 5376   1.800   1.286  13.876 -0.7421 -1.1164  1.2025
   42DOPE   H4Y 5377   1.701   1.371  13.995 -0.4692  0.4590  0.0936
   42DOPE   C35 5378   1.616   1.188  13.933 -0.4106  0.1976 -0.0877
   42DOPE   H5X 5379   1.599   1.131  13.839  1.8511  1.3144 -1.2639
   42DOPE   H5Y 5380   1.518   1.215  13.978  0.4844  2.4719  0.6493
   42DOPE   C36 5381   1.691   1.096  14.034  0.2716  1.0058 -0.6167
   42DOPE   H6X 5382   1.721   1.168  14.113  1.4511 -0.1365  0.0198
   42DOPE   H6Y 5383   1.788   1.051  14.006  0.1168  0.8884 -0.9672
   42DOPE   C37 5384   1.589   1.002  14.102 -0.0543  0.5293 -0.6454
   42DOPE   H7X 5385   1.500   1.058  14.138 -1.1463 -1.2263 -0.4732
   42DOPE   H7Y 5386   1.546   0.925  14.035  0.0193  0.1296 -0.2368
   42DOPE   C38 5387   1.643   0.918  14.224 -0.2525  0.2917  0.5251
   42DOPE   H8X 5388   1.659   0.979  14.316 -2.1500 -0.4558  1.4179
   42DOPE   H8Y 5389   1.741   0.875  14.195 -1.6093 -1.4091 -1.8260
   42DOPE   C39 5390   1.557   0.798  14.258 -0.2545 -0.3872  0.4706
   42DOPE   H9X 5391   1.554   0.722  14.178  1.1732  0.5072 -0.4973
   42DOPE  C310 5392   1.483   0.776  14.369  0.4076  0.0800 -0.6215
   42DOPE  H10X 5393   1.405   0.698  14.367  0.4338  0.0446 -0.2743
   42DOPE  C311 5394   1.458   0.874  14.477 -0.1196  0.0734 -0.5306
   42DOPE  H11X 5395   1.493   0.974  14.444 -0.9934  0.1608 -1.2331
   42DOPE  H11Y 5396   1.350   0.861  14.497 -0.0369  0.3116  0.0853
   42DOPE  C312 5397   1.526   0.828  14.608  0.0788  0.0429  0.0631
   42DOPE  H12X 5398   1.636   0.840  14.601  0.5247 -2.3415  1.6043
   42DOPE  H12Y 5399   1.533   0.717  14.613  1.7944  0.0346 -1.3741
   42DOPE  C313 5400   1.475   0.898  14.734 -0.9436 -0.3078  0.4750
   42DOPE  H13X 5401   1.543   0.985  14.747 -1.5171  0.1089  0.7425
   42DOPE  H13Y 5402   1.369   0.930  14.726 -0.5728  0.7126 -0.4824
   42DOPE  C314 5403   1.493   0.804  14.859 -0.0773  0.4910  0.2162
   42DOPE  H14X 5404   1.591   0.753  14.853 -0.2197  0.3898 -2.5349
   42DOPE  H14Y 5405   1.417   0.726  14.837  0.6952 -0.0886 -0.4331
   42DOPE  C315 5406   1.473   0.881  14.994  0.0086 -0.0326  0.4402
   42DOPE  H15X 5407   1.368   0.915  15.002 -0.4679 -1.4873  0.6503
   42DOPE  H15Y 5408   1.523   0.981  14.987  0.6565 -0.4233 -1.1419
   42DOPE  C316 5409   1.528   0.805  15.109  0.3417  0.6360  0.2920
   42DOPE  H16X 5410   1.632   0.773  15.086  0.2279  1.0191 -0.8274
   42DOPE  H16Y 5411   1.460   0.721  15.135  3.7836 -1.7894  2.2920
   42DOPE  C317 5412   1.514   0.882  15.247  0.1448 -0.8161  0.5503
   42DOPE  H17X 5413   1.558   0.984  15.242 -1.0559 -0.3428 -0.9683
   42DOPE  H17Y 5414   1.406   0.890  15.271 -0.2599  0.4356 -1.4390
   42DOPE  C318 5415   1.572   0.799  15.360  0.2327  0.3102 -1.2568
   42DOPE  H18X 5416   1.519   0.702  15.376  0.8447  0.3490  1.6034
   42DOPE  H18Y 5417   1.679   0.779  15.337  0.8867 -1.2416  2.4087
   42DOPE  H18Z 5418   1.570   0.854  15.456 -0.5803  0.0884 -1.1365
   43DOPE     N 5419   6.508   1.972  12.700 -0.0001  0.2569 -0.3517
   43DOPE   HN1 5420   6.573   1.973  12.782  1.3729  0.5094 -1.4209
   43DOPE   HN2 5421   6.558   1.941  12.614 -0.2058  1.4075 -0.9051
   43DOPE   HN3 5422   6.473   2.069  12.687 -1.0090  0.1417  1.2627
   43DOPE   C12 5423   6.378   1.887  12.725 -0.4332  0.0180 -0.0150
   43DOPE  H12A 5424   6.365   1.822  12.636 -0.9528  0.7008 -0.4462
   43DOPE  H12B 5425   6.293   1.958  12.723 -1.5834 -1.2776  0.8022
   43DOPE   C11 5426   6.378   1.817  12.860 -0.7880 -0.3900  0.2480
   43DOPE  H11A 5427   6.282   1.763  12.872  0.7530 -3.6779 -1.0893
   43DOPE  H11B 5428   6.392   1.897  12.935  0.8687  0.6722 -1.1136
   43DOPE     P 5429   6.608   1.742  12.955 -0.1010 -0.0676  0.2860
   43DOPE   O13 5430   6.664   1.869  12.907 -0.6167 -0.2703 -0.1139
   43DOPE   O14 5431   6.694   1.622  12.945  0.1960 -0.2262 -0.2753
   43DOPE   O11 5432   6.558   1.749  13.105  0.6240 -0.7319  0.0740
   43DOPE   O12 5433   6.478   1.720  12.871 -0.1905  0.0581 -0.4694
   43DOPE    C1 5434   6.500   1.630  13.160  0.4666  0.3148  0.5138
   43DOPE    HA 5435   6.531   1.633  13.267 -0.1603 -0.1152  0.7164
   43DOPE    HB 5436   6.537   1.535  13.116  0.4763  1.2224 -1.5011
   43DOPE    C2 5437   6.335   1.626  13.162 -0.0400 -1.0683 -0.7210
   43DOPE    HS 5438   6.307   1.726  13.122 -0.0243 -0.5405  0.5389
   43DOPE   O21 5439   6.291   1.604  13.298  0.3127 -0.1124 -0.4213
   43DOPE   C21 5440   6.309   1.700  13.383  0.2338 -0.3791 -0.1102
   43DOPE   O22 5441   6.333   1.817  13.361 -0.2413  0.7470 -0.4231
   43DOPE   C22 5442   6.288   1.643  13.526 -0.8658 -0.4147  0.1004
   43DOPE   H2R 5443   6.350   1.551  13.520 -0.6382 -0.2051 -0.8507
   43DOPE   H2S 5444   6.187   1.598  13.540 -1.4759  0.9215  0.1418
   43DOPE    C3 5445   6.289   1.513  13.074 -0.0885 -0.0224  0.3544
   43DOPE    HX 5446   6.358   1.428  13.091 -1.3088 -0.9614  0.7355
   43DOPE    HY 5447   6.307   1.548  12.970  1.1017  1.7483  1.1102
   43DOPE   O31 5448   6.151   1.474  13.095  0.0875 -0.3010  0.0691
   43DOPE   C31 5449   6.126   1.347  13.118  0.6154  0.1400 -0.6644
   43DOPE   O32 5450   6.205   1.257  13.105  0.2764 -0.1536 -0.4699
   43DOPE   C32 5451   5.982   1.323  13.164 -0.0968  0.1623  0.2544
   43DOPE   H2X 5452   5.936   1.423  13.180 -2.1683 -0.0535 -3.1460
   43DOPE   H2Y 5453   5.931   1.267  13.082 -0.8330  0.9066  0.1895
   43DOPE   C23 5454   6.340   1.740  13.639  0.7058  0.0057 -0.2144
   43DOPE   H3R 5455   6.284   1.836  13.631 -1.8644 -1.3489  0.4011
   43DOPE   H3S 5456   6.451   1.751  13.640  0.8856 -1.5822 -0.0386
   43DOPE   C24 5457   6.306   1.696  13.782 -0.6709 -0.3246 -0.3295
   43DOPE   H4R 5458   6.340   1.593  13.806 -1.9712 -0.0950  3.0182
   43DOPE   H4S 5459   6.196   1.682  13.792 -0.5099 -1.8025 -0.3810
   43DOPE   C25 5460   6.356   1.784  13.893 -0.8029 -0.2109 -0.5289
   43DOPE   H5R 5461   6.312   1.886  13.897 -3.0298 -1.0351 -2.1029
   43DOPE   H5S 5462   6.467   1.783  13.901 -0.7630  0.4391 -0.9142
   43DOPE   C26 5463   6.317   1.727  14.033 -0.6303 -0.4370 -0.5604
   43DOPE   H6R 5464   6.375   1.632  14.040 -2.4686 -1.6476 -0.9426
   43DOPE   H6S 5465   6.213   1.687  14.033 -0.4472 -1.0182  1.6442
   43DOPE   C27 5466   6.363   1.805  14.159  0.1350 -0.1928  0.7193
   43DOPE   H7R 5467   6.336   1.911  14.137  0.7580 -0.1416  0.1909
   43DOPE   H7S 5468   6.473   1.810  14.175  0.0433 -0.1126  1.3559
   43DOPE   C28 5469   6.294   1.758  14.293  0.3275  0.0864 -0.7153
   43DOPE   H8R 5470   6.350   1.798  14.380 -0.3022 -0.6441  0.0305
   43DOPE   H8S 5471   6.305   1.648  14.303 -3.1587 -0.1731  2.9231
   43DOPE   C29 5472   6.149   1.799  14.310 -0.0116 -0.1642  0.1631
   43DOPE   H9R 5473   6.087   1.806  14.220 -2.4008  0.3899  1.7711
   43DOPE  C210 5474   6.090   1.840  14.427  0.0672  0.9022 -0.7578
   43DOPE  H10R 5475   5.983   1.867  14.434 -0.2244 -0.4109  0.3929
   43DOPE  C211 5476   6.164   1.852  14.562 -0.1780 -0.1507  0.1633
   43DOPE  H11R 5477   6.227   1.943  14.551  1.6788 -1.1873  1.5735
   43DOPE  H11S 5478   6.232   1.764  14.573 -2.4018 -1.8617  0.9104
   43DOPE  C212 5479   6.063   1.864  14.675  0.4795  0.1562 -0.3502
   43DOPE  H12R 5480   6.002   1.774  14.698  1.7791 -0.6262  0.0969
   43DOPE  H12S 5481   5.988   1.946  14.665 -0.3172 -0.4261  0.6460
   43DOPE  C213 5482   6.140   1.908  14.797  0.2033 -0.0547 -0.2221
   43DOPE  H13R 5483   6.154   2.019  14.798 -2.4868  0.3700  1.9274
   43DOPE  H13S 5484   6.245   1.871  14.805 -0.1114 -0.5329  2.1797
   43DOPE  C214 5485   6.077   1.871  14.929  0.0824 -0.0728 -0.0833
   43DOPE  H14R 5486   6.078   1.760  14.929  0.8552 -0.0731 -0.1233
   43DOPE  H14S 5487   5.973   1.905  14.947  0.2203 -0.2955  1.1997
   43DOPE  C215 5488   6.159   1.904  15.055  0.5023 -0.0912  0.8431
   43DOPE  H15R 5489   6.173   2.013  15.042 -0.3015 -0.2051 -1.4492
   43DOPE  H15S 5490   6.257   1.851  15.058 -0.6426 -2.5187 -1.0975
   43DOPE  C216 5491   6.088   1.895  15.186  0.0914  0.0517  0.2420
   43DOPE  H16R 5492   5.989   1.944  15.178  0.8876  1.5916 -1.0089
   43DOPE  H16S 5493   6.144   1.953  15.263  1.8027 -0.1652 -0.7698
   43DOPE  C217 5494   6.068   1.750  15.220 -0.4117 -0.4526 -0.1890
   43DOPE  H17R 5495   6.154   1.694  15.178 -0.1045 -1.8834  2.1667
   43DOPE  H17S 5496   5.974   1.709  15.176 -1.3650  0.6064  0.8102
   43DOPE  C218 5497   6.062   1.742  15.374 -0.4107 -0.6609  0.0034
   43DOPE  H18R 5498   5.986   1.809  15.420  0.5842 -0.1186  0.9056
   43DOPE  H18S 5499   6.153   1.773  15.430 -2.0090  0.7896  1.9717
   43DOPE  H18T 5500   6.022   1.641  15.397 -0.9542 -1.1629 -2.7550
   43DOPE   C33 5501   5.980   1.232  13.288  0.3444 -0.4392 -0.5817
   43DOPE   H3X 5502   6.018   1.133  13.254  1.7911 -0.1036 -0.0099
   43DOPE   H3Y 5503   5.873   1.224  13.316  0.7952 -0.3836  1.3375
   43DOPE   C34 5504   6.040   1.301  13.415 -0.0585 -0.2742 -0.3785
   43DOPE   H4X 5505   6.149   1.321  13.407  0.0158 -0.5054 -0.0074
   43DOPE   H4Y 5506   5.992   1.400  13.408 -0.6628 -0.5150  0.1990
   43DOPE   C35 5507   6.007   1.232  13.551 -0.2894 -0.2096  0.4659
   43DOPE   H5X 5508   6.065   1.138  13.567 -0.9433 -0.5671  0.7647
   43DOPE   H5Y 5509   5.899   1.208  13.542 -0.6926  1.6005  0.2542
   43DOPE   C36 5510   6.030   1.328  13.671  0.1992 -0.8261  0.2203
   43DOPE   H6X 5511   5.971   1.421  13.657  0.5350 -0.9918 -2.6992
   43DOPE   H6Y 5512   6.139   1.352  13.670 -0.0909  0.5593 -1.2982
   43DOPE   C37 5513   5.992   1.258  13.805  1.2948  0.2648  0.1734
   43DOPE   H7X 5514   5.892   1.211  13.794  0.7196  1.3847  0.4415
   43DOPE   H7Y 5515   6.065   1.175  13.820  1.1835  0.0943 -0.2056
   43DOPE   C38 5516   5.981   1.347  13.931  0.0548  0.3662 -0.0816
   43DOPE   H8X 5517   5.930   1.285  14.008  0.5047  1.0049  0.7508
   43DOPE   H8Y 5518   5.913   1.432  13.910  0.5076  0.7746  0.0891
   43DOPE   C39 5519   6.116   1.393  13.984 -1.1434 -0.2638  0.0422
   43DOPE   H9X 5520   6.180   1.444  13.910 -0.9368  0.4177  0.6685
   43DOPE  C310 5521   6.140   1.407  14.117  0.1783  0.7539 -0.3191
   43DOPE  H10X 5522   6.237   1.439  14.158 -0.0116  0.6269  0.2408
   43DOPE  C311 5523   6.051   1.359  14.234 -0.8191  0.0334 -0.2773
   43DOPE  H11X 5524   5.973   1.288  14.201 -0.0827 -0.2259 -1.5110
   43DOPE  H11Y 5525   6.112   1.307  14.311 -2.4801  2.0658  2.6094
   43DOPE  C312 5526   5.972   1.470  14.313 -0.2584 -0.5532 -0.3540
   43DOPE  H12X 5527   5.899   1.516  14.243  1.4471  1.1994 -1.0897
   43DOPE  H12Y 5528   6.039   1.544  14.361 -1.7438 -0.5982  1.9115
   43DOPE  C313 5529   5.882   1.410  14.428  0.1168  0.6988 -0.3196
   43DOPE  H13X 5530   5.821   1.491  14.471  1.0386  0.8592  0.7412
   43DOPE  H13Y 5531   5.806   1.351  14.373  0.5676  1.2612 -1.5873
   43DOPE  C314 5532   5.964   1.330  14.538 -0.0281  0.6871  0.8291
   43DOPE  H14X 5533   6.015   1.246  14.487 -0.2454  1.3802 -0.5712
   43DOPE  H14Y 5534   5.897   1.279  14.611  1.1281  0.6467  1.8938
   43DOPE  C315 5535   6.061   1.424  14.613  0.0367  0.0302 -0.2005
   43DOPE  H15X 5536   6.002   1.498  14.671 -0.8635  0.4586 -1.5957
   43DOPE  H15Y 5537   6.120   1.479  14.536 -0.1502 -1.3245 -1.3558
   43DOPE  C316 5538   6.153   1.350  14.700  0.9399 -0.1669  0.7465
   43DOPE  H16X 5539   6.218   1.284  14.639 -1.1051 -1.5494 -0.0342
   43DOPE  H16Y 5540   6.097   1.282  14.767  0.9506 -0.6149  0.3030
   43DOPE  C317 5541   6.248   1.455  14.778  0.7224 -0.5215  0.0633
   43DOPE  H17X 5542   6.318   1.502  14.706  1.3550  0.2952  1.1786
   43DOPE  H17Y 5543   6.192   1.544  14.816 -1.2878 -2.0358  0.8294
   43DOPE  C318 5544   6.320   1.401  14.898 -1.4550 -0.0228 -0.0219
   43DOPE  H18X 5545   6.356   1.488  14.956 -4.2635  0.3750  1.2810
   43DOPE  H18Y 5546   6.261   1.338  14.967  1.0733  1.1483  3.4693
   43DOPE  H18Z 5547   6.405   1.341  14.859 -0.6350 -0.4506  2.2886
   44DOPE     N 5548   2.305   5.707  13.188 -0.4971  0.4349 -0.3622
   44DOPE   HN1 5549   2.349   5.713  13.094  0.6829  0.2915  0.1667
   44DOPE   HN2 5550   2.243   5.791  13.195 -0.3375  0.5682 -0.5298
   44DOPE   HN3 5551   2.381   5.705  13.258 -2.0628 -3.4731  1.5134
   44DOPE   C12 5552   2.235   5.582  13.210  0.2596  0.2434 -0.0155
   44DOPE  H12A 5553   2.162   5.552  13.132  2.7674  0.6216 -2.6472
   44DOPE  H12B 5554   2.187   5.595  13.309  0.2588 -1.7132  0.2828
   44DOPE   C11 5555   2.339   5.465  13.224  0.9877  0.0321 -0.1922
   44DOPE  H11A 5556   2.284   5.379  13.267 -0.7565  1.0922 -0.1970
   44DOPE  H11B 5557   2.414   5.504  13.296 -0.1049  0.3457  0.8189
   44DOPE     P 5558   2.459   5.285  13.056 -0.1083 -0.5044 -0.0161
   44DOPE   O13 5559   2.521   5.305  12.923  0.1438  0.4983  0.0812
   44DOPE   O14 5560   2.370   5.173  13.070  0.3564 -0.1806  0.1429
   44DOPE   O11 5561   2.567   5.271  13.177 -0.5870 -0.1854 -0.0368
   44DOPE   O12 5562   2.377   5.418  13.100 -0.4476  0.2962  0.7450
   44DOPE    C1 5563   2.657   5.388  13.187  0.7521 -0.2276  0.1951
   44DOPE    HA 5564   2.600   5.483  13.175  0.1835 -0.3156  1.9162
   44DOPE    HB 5565   2.737   5.379  13.111  0.1935 -2.7224 -0.1729
   44DOPE    C2 5566   2.734   5.401  13.321 -0.2234 -0.6109  0.1674
   44DOPE    HS 5567   2.743   5.510  13.337  2.0715 -0.7120 -0.0923
   44DOPE   O21 5568   2.862   5.336  13.315  0.3322 -0.3894  0.0703
   44DOPE   C21 5569   2.960   5.420  13.260 -0.2385  0.0696 -0.6823
   44DOPE   O22 5570   2.937   5.525  13.208  0.0897  0.1948  0.3516
   44DOPE   C22 5571   3.099   5.368  13.291  1.0995  0.6309 -0.4522
   44DOPE   H2R 5572   3.148   5.353  13.192  3.2502  1.5296  0.4177
   44DOPE   H2S 5573   3.073   5.274  13.343 -0.6853  0.0183 -2.3098
   44DOPE    C3 5574   2.652   5.348  13.445 -0.7494 -0.4150  0.1485
   44DOPE    HX 5575   2.637   5.238  13.441 -2.6199 -0.1539 -2.7711
   44DOPE    HY 5576   2.550   5.386  13.425 -0.7470 -0.3563  0.2507
   44DOPE   O31 5577   2.703   5.403  13.572 -0.0375  0.4385  0.2484
   44DOPE   C31 5578   2.785   5.323  13.631 -0.3272 -0.2508 -0.4698
   44DOPE   O32 5579   2.840   5.223  13.584  0.0921 -0.1036 -0.4424
   44DOPE   C32 5580   2.793   5.365  13.782 -0.2791  0.3580 -0.0492
   44DOPE   H2X 5581   2.760   5.470  13.797  1.0173  0.6936  0.6054
   44DOPE   H2Y 5582   2.726   5.295  13.837 -0.5157 -1.1441 -2.1106
   44DOPE   C23 5583   3.178   5.457  13.388 -0.0358 -0.8425 -0.2655
   44DOPE   H3R 5584   3.174   5.552  13.331 -5.0951 -1.4959 -1.4540
   44DOPE   H3S 5585   3.284   5.422  13.386  0.0866 -0.4669 -1.7065
   44DOPE   C24 5586   3.130   5.459  13.534  0.0433  0.7882  0.2077
   44DOPE   H4R 5587   3.156   5.361  13.578 -1.0624  1.1120  1.6423
   44DOPE   H4S 5588   3.020   5.469  13.532 -0.1277 -0.9063 -0.2095
   44DOPE   C25 5589   3.179   5.574  13.621 -0.3464 -0.0133  0.0663
   44DOPE   H5R 5590   3.116   5.584  13.712  0.4679  0.8408  0.5610
   44DOPE   H5S 5591   3.179   5.669  13.563  2.9615  0.1671  0.1734
   44DOPE   C26 5592   3.320   5.558  13.670  0.0761 -0.2131 -0.5824
   44DOPE   H6R 5593   3.357   5.660  13.696  0.5264 -0.7904  1.1591
   44DOPE   H6S 5594   3.399   5.528  13.597 -1.5790  1.1674 -3.1180
   44DOPE   C27 5595   3.326   5.477  13.798 -0.1173 -0.2816 -0.2122
   44DOPE   H7R 5596   3.430   5.457  13.831  0.0172  2.0380  0.9531
   44DOPE   H7S 5597   3.273   5.381  13.778 -0.5667  0.0929 -0.8506
   44DOPE   C28 5598   3.252   5.534  13.921 -0.0057 -0.7909 -0.5376
   44DOPE   H8R 5599   3.258   5.458  14.002 -0.0086  0.1554  0.3767
   44DOPE   H8S 5600   3.144   5.543  13.896  0.1395  2.0003 -0.4781
   44DOPE   C29 5601   3.306   5.663  13.968  0.1563  0.7080 -0.1259
   44DOPE   H9R 5602   3.310   5.740  13.891 -1.2078 -1.3047 -2.3419
   44DOPE  C210 5603   3.378   5.672  14.086 -0.3468  0.2406  1.0181
   44DOPE  H10R 5604   3.404   5.776  14.110 -2.5767  1.5504 -1.6687
   44DOPE  C211 5605   3.396   5.567  14.201 -0.0779  0.0862  0.2040
   44DOPE  H11R 5606   3.496   5.519  14.196  0.4463  0.6973  2.9811
   44DOPE  H11S 5607   3.321   5.486  14.187  1.0405 -0.8092 -0.8124
   44DOPE  C212 5608   3.367   5.628  14.342 -0.2024 -0.0369 -0.3319
   44DOPE  H12R 5609   3.267   5.674  14.335  1.4402  3.7370 -2.0265
   44DOPE  H12S 5610   3.435   5.713  14.365 -0.9547 -0.0388  2.0905
   44DOPE  C213 5611   3.388   5.518  14.452  0.0102  0.5178  0.0913
   44DOPE  H13R 5612   3.496   5.523  14.481 -0.1007  0.3235  0.5549
   44DOPE  H13S 5613   3.368   5.414  14.418 -1.4028  0.7863  0.0601
   44DOPE  C214 5614   3.302   5.555  14.576 -0.6538  0.2895 -0.6230
   44DOPE  H14R 5615   3.200   5.512  14.580 -0.8456  0.7986  1.6934
   44DOPE  H14S 5616   3.290   5.665  14.573  0.2289  0.4978  1.5476
   44DOPE  C215 5617   3.373   5.526  14.706  0.4850  0.3194  0.5475
   44DOPE  H15R 5618   3.480   5.552  14.689  0.1387  2.2505  1.0509
   44DOPE  H15S 5619   3.357   5.417  14.717  0.4000  0.4280  1.5987
   44DOPE  C216 5620   3.315   5.593  14.835 -0.4108  0.8918 -0.0283
   44DOPE  H16R 5621   3.385   5.573  14.919 -3.4933  1.7876  2.9857
   44DOPE  H16S 5622   3.223   5.540  14.867  1.0162 -0.2239  2.4754
   44DOPE  C217 5623   3.298   5.746  14.835 -0.7186 -0.2448 -0.0294
   44DOPE  H17R 5624   3.219   5.761  14.759 -0.3670 -1.6933 -0.7186
   44DOPE  H17S 5625   3.397   5.786  14.803 -0.9590  0.0673 -0.3826
   44DOPE  C218 5626   3.261   5.821  14.960 -0.4003  0.1872  0.4401
   44DOPE  H18R 5627   3.311   5.786  15.053 -0.3442  0.6039  0.5674
   44DOPE  H18S 5628   3.153   5.796  14.971 -0.2332 -0.5349  0.4785
   44DOPE  H18T 5629   3.267   5.932  14.953  2.1850  0.0048 -1.4673
   44DOPE   C33 5630   2.933   5.351  13.854  0.7239 -0.1131  0.4949
   44DOPE   H3X 5631   2.996   5.429  13.806  0.3882 -0.8989 -1.3113
   44DOPE   H3Y 5632   2.982   5.252  13.839  1.8435  0.3806  0.8751
   44DOPE   C34 5633   2.919   5.380  14.005 -0.2792  0.5577 -0.3147
   44DOPE   H4X 5634   3.025   5.395  14.036 -0.1635 -0.8742  0.0783
   44DOPE   H4Y 5635   2.866   5.476  14.024  0.6368  0.8476  0.8812
   44DOPE   C35 5636   2.864   5.251  14.085  0.1373  0.2223 -0.4241
   44DOPE   H5X 5637   2.919   5.163  14.045  0.5258  0.8747 -1.3840
   44DOPE   H5Y 5638   2.757   5.248  14.057 -0.1770  0.3098  0.7546
   44DOPE   C36 5639   2.871   5.258  14.242  0.0657  0.3499 -0.4225
   44DOPE   H6X 5640   2.802   5.181  14.284 -0.0604 -1.2209 -3.2161
   44DOPE   H6Y 5641   2.840   5.362  14.263  1.7342  0.9222 -0.6506
   44DOPE   C37 5642   3.011   5.243  14.289  0.5105 -0.0937 -0.2501
   44DOPE   H7X 5643   3.059   5.148  14.255  0.8879  0.4958 -1.4250
   44DOPE   H7Y 5644   3.070   5.320  14.235  3.0200 -1.0874  0.9059
   44DOPE   C38 5645   3.037   5.262  14.442  0.3586 -0.8037  0.1956
   44DOPE   H8X 5646   3.014   5.368  14.468  1.2217 -0.4158 -0.5852
   44DOPE   H8Y 5647   3.145   5.253  14.469  0.2776 -0.5440  0.6089
   44DOPE   C39 5648   2.958   5.157  14.508 -0.4151 -0.2124 -0.3335
   44DOPE   H9X 5649   2.963   5.055  14.467  0.2075  0.0016 -0.8063
   44DOPE  C310 5650   2.868   5.178  14.607 -0.4266 -0.1809 -0.2806
   44DOPE  H10X 5651   2.819   5.092  14.655  0.4916 -1.5613 -1.7271
   44DOPE  C311 5652   2.855   5.300  14.685 -0.2825 -0.7173  0.2985
   44DOPE  H11X 5653   2.918   5.387  14.659  2.8709 -1.8356  3.4449
   44DOPE  H11Y 5654   2.751   5.338  14.676  0.2126  0.9117  1.1603
   44DOPE  C312 5655   2.883   5.282  14.836 -0.5962 -0.3355  0.2330
   44DOPE  H12X 5656   2.868   5.181  14.879 -1.3874  0.6239  2.3324
   44DOPE  H12Y 5657   2.824   5.355  14.896  1.8485  1.5903  0.4737
   44DOPE  C313 5658   3.033   5.296  14.876 -0.0271 -0.1020 -0.2233
   44DOPE  H13X 5659   3.081   5.201  14.842 -1.1206 -0.8745  0.3224
   44DOPE  H13Y 5660   3.091   5.367  14.814  0.2203 -0.6028 -0.5747
   44DOPE  C314 5661   3.050   5.339  15.020 -0.0972  0.2897  0.0284
   44DOPE  H14X 5662   2.990   5.274  15.088 -0.7148 -0.5688 -1.2779
   44DOPE  H14Y 5663   3.007   5.438  15.046  1.1581  0.5674  1.1085
   44DOPE  C315 5664   3.196   5.333  15.061 -0.0938  0.7790  0.4449
   44DOPE  H15X 5665   3.273   5.357  14.984  0.1924 -2.3199 -0.4018
   44DOPE  H15Y 5666   3.210   5.225  15.081  1.7516  1.1114  1.1280
   44DOPE  C316 5667   3.223   5.391  15.199 -0.1263 -0.5356 -0.2584
   44DOPE  H16X 5668   3.165   5.332  15.273  0.8862 -1.1834  0.0358
   44DOPE  H16Y 5669   3.195   5.498  15.202  0.7784 -0.2613 -0.9585
   44DOPE  C317 5670   3.363   5.358  15.239  0.1567  0.7243 -0.2323
   44DOPE  H17X 5671   3.387   5.252  15.218  0.8043  0.6617  0.7623
   44DOPE  H17Y 5672   3.439   5.416  15.183  1.9054  2.0151  3.1332
   44DOPE  C318 5673   3.374   5.396  15.384 -0.3578 -0.0805  0.5064
   44DOPE  H18X 5674   3.296   5.354  15.451 -0.8695 -1.3981 -0.8740
   44DOPE  H18Y 5675   3.472   5.373  15.430 -0.4151  0.0270  0.6822
   44DOPE  H18Z 5676   3.354   5.505  15.398 -0.5096  0.5783 -3.4684
   45DOPE     N 5677   5.102   4.702  13.186 -0.3703 -0.4222  0.3058
   45DOPE   HN1 5678   5.169   4.780  13.195  0.9565 -1.4696 -0.1653
   45DOPE   HN2 5679   5.008   4.725  13.225 -1.4260 -0.1416 -2.1826
   45DOPE   HN3 5680   5.146   4.624  13.238  2.0126  1.8960  2.0140
   45DOPE   C12 5681   5.115   4.667  13.038  0.0458 -0.4300 -0.1572
   45DOPE  H12A 5682   5.209   4.707  12.995  0.9813 -0.5841  1.6458
   45DOPE  H12B 5683   5.028   4.719  12.993 -1.8246 -2.7478  0.5402
   45DOPE   C11 5684   5.098   4.519  13.005  0.1931  0.7599 -0.3164
   45DOPE  H11A 5685   5.104   4.501  12.895  0.8649  1.3871 -0.3927
   45DOPE  H11B 5686   4.992   4.493  13.024  0.7077 -0.4110  1.1784
   45DOPE     P 5687   5.326   4.389  13.021  0.1602 -0.3269 -0.5820
   45DOPE   O13 5688   5.413   4.375  13.143  0.0058  0.5011  0.0881
   45DOPE   O14 5689   5.376   4.493  12.926  0.1002  0.2656  0.1985
   45DOPE   O11 5690   5.303   4.253  12.942  0.2704 -0.4329  0.0755
   45DOPE   O12 5691   5.191   4.439  13.078 -0.2757  0.3395 -0.2021
   45DOPE    C1 5692   5.183   4.180  12.964  0.6412  0.9032  0.0120
   45DOPE    HA 5693   5.154   4.122  12.873 -1.8708  2.0547 -0.0049
   45DOPE    HB 5694   5.096   4.244  12.991  1.1969  0.9258  1.8725
   45DOPE    C2 5695   5.202   4.074  13.075  0.5530  0.3544 -0.0444
   45DOPE    HS 5696   5.106   4.018  13.077  0.1474  0.7956 -2.7409
   45DOPE   O21 5697   5.243   4.123  13.199  0.0625  0.2218 -0.0792
   45DOPE   C21 5698   5.141   4.166  13.277  0.2769 -0.3767 -0.5433
   45DOPE   O22 5699   5.026   4.159  13.245 -0.2394 -0.0618  0.2107
   45DOPE   C22 5700   5.181   4.236  13.407 -0.0885 -0.1938  0.2798
   45DOPE   H2R 5701   5.157   4.344  13.400 -1.5129 -0.4431  0.8698
   45DOPE   H2S 5702   5.290   4.214  13.413  0.2282  0.9605 -0.8566
   45DOPE    C3 5703   5.308   3.971  13.035  0.6330 -0.1393  0.0953
   45DOPE    HX 5704   5.401   4.029  13.020  0.4411  1.2679  3.4258
   45DOPE    HY 5705   5.271   3.927  12.940 -0.1348 -0.4709  0.5331
   45DOPE   O31 5706   5.315   3.864  13.128  0.2720  0.1859  0.5886
   45DOPE   C31 5707   5.417   3.866  13.215 -0.1613 -0.9612  0.6859
   45DOPE   O32 5708   5.522   3.928  13.198 -0.1380 -0.1440 -0.9789
   45DOPE   C32 5709   5.393   3.779  13.329 -0.1718  1.0488  0.1612
   45DOPE   H2X 5710   5.327   3.695  13.300  0.0304  1.4701 -1.5869
   45DOPE   H2Y 5711   5.483   3.731  13.374 -1.8769 -0.4444  2.1739
   45DOPE   C23 5712   5.105   4.186  13.535  0.2011 -0.2689  0.3983
   45DOPE   H3R 5713   5.128   4.078  13.545  0.2627 -0.3978 -0.9625
   45DOPE   H3S 5714   4.996   4.189  13.517  0.0875 -1.3972  0.8434
   45DOPE   C24 5715   5.153   4.269  13.658 -0.1041  0.3283  0.0944
   45DOPE   H4R 5716   5.091   4.360  13.662 -1.7031 -0.6632 -1.1242
   45DOPE   H4S 5717   5.259   4.299  13.640 -0.6594  2.1946 -0.2836
   45DOPE   C25 5718   5.144   4.193  13.794  0.5089 -0.2320 -0.3521
   45DOPE   H5R 5719   5.221   4.114  13.787  0.0314 -0.7167 -0.1983
   45DOPE   H5S 5720   5.054   4.130  13.811  1.9766 -2.3718 -0.0897
   45DOPE   C26 5721   5.184   4.273  13.915  0.7648  0.1905 -0.0235
   45DOPE   H6R 5722   5.144   4.377  13.914  0.4645  0.0973  0.9168
   45DOPE   H6S 5723   5.294   4.264  13.924  0.8115  1.5658  1.1434
   45DOPE   C27 5724   5.127   4.216  14.053  0.2275  1.1488  0.6170
   45DOPE   H7R 5725   5.185   4.130  14.091 -0.2234 -0.8287 -2.7422
   45DOPE   H7S 5726   5.032   4.163  14.031  0.2084  2.1467 -2.1194
   45DOPE   C28 5727   5.089   4.335  14.138 -0.2241 -0.1788 -1.0454
   45DOPE   H8R 5728   5.031   4.291  14.222  2.0303  0.8005  1.1569
   45DOPE   H8S 5729   5.025   4.405  14.080 -1.2773  0.4153  0.7777
   45DOPE   C29 5730   5.206   4.415  14.189  0.4212 -0.2489  0.7617
   45DOPE   H9R 5731   5.269   4.458  14.110  0.6484 -1.6608  0.1280
   45DOPE  C210 5732   5.258   4.428  14.310  0.5444 -0.1209 -0.5179
   45DOPE  H10R 5733   5.357   4.474  14.322 -0.6582  2.0855  2.0168
   45DOPE  C211 5734   5.213   4.350  14.432  0.2005  0.2460  0.7974
   45DOPE  H11R 5735   5.142   4.267  14.414  0.1506  0.8140 -2.1780
   45DOPE  H11S 5736   5.168   4.420  14.505 -1.8351  0.0735 -0.2290
   45DOPE  C212 5737   5.332   4.295  14.509 -0.4657  1.2393 -0.2032
   45DOPE  H12R 5738   5.403   4.369  14.552  0.7310  0.1486 -0.2567
   45DOPE  H12S 5739   5.393   4.226  14.448 -0.0712  0.1314  1.3777
   45DOPE  C213 5740   5.292   4.205  14.625 -0.1623  0.2238 -0.1467
   45DOPE  H13R 5741   5.392   4.175  14.663 -1.9187 -4.8541  1.3358
   45DOPE  H13S 5742   5.252   4.107  14.591 -1.6557  1.0462 -0.8708
   45DOPE  C214 5743   5.198   4.270  14.731 -0.0695  0.1589 -0.2257
   45DOPE  H14R 5744   5.092   4.268  14.697  0.1567  1.5926 -1.1266
   45DOPE  H14S 5745   5.221   4.376  14.755  0.4978 -0.0484  0.1781
   45DOPE  C215 5746   5.207   4.188  14.856  0.0296 -1.1526  0.1617
   45DOPE  H15R 5747   5.316   4.168  14.868  0.8081  0.0303 -3.5322
   45DOPE  H15S 5748   5.152   4.093  14.835 -0.5958 -0.5606 -0.9314
   45DOPE  C216 5749   5.148   4.255  14.982  0.7633 -1.1375  0.1619
   45DOPE  H16R 5750   5.160   4.184  15.066 -0.8658 -0.8969  0.6283
   45DOPE  H16S 5751   5.039   4.271  14.968  0.5084  1.2704  3.7135
   45DOPE  C217 5752   5.208   4.394  15.009  0.0394 -0.2323  0.0183
   45DOPE  H17R 5753   5.159   4.472  14.947  1.3867  0.5470 -0.0966
   45DOPE  H17S 5754   5.318   4.394  14.998  0.2348  1.8447  1.4363
   45DOPE  C218 5755   5.181   4.434  15.156  0.4525  0.7626  0.4169
   45DOPE  H18R 5756   5.073   4.451  15.175  0.4356 -0.0400  1.1036
   45DOPE  H18S 5757   5.241   4.520  15.193  0.1192  0.9765  0.4720
   45DOPE  H18T 5758   5.215   4.350  15.221  0.4538  2.2600  2.4587
   45DOPE   C33 5759   5.320   3.854  13.442 -0.1934  0.1148  0.2806
   45DOPE   H3X 5760   5.220   3.887  13.406  0.3431  1.6352  0.0730
   45DOPE   H3Y 5761   5.377   3.946  13.471 -0.7229  0.1465  1.2465
   45DOPE   C34 5762   5.308   3.771  13.568 -0.2688 -0.4906  0.3856
   45DOPE   H4X 5763   5.276   3.669  13.537 -0.5880 -0.2038 -0.2414
   45DOPE   H4Y 5764   5.405   3.762  13.621  0.0226  0.5854  0.0485
   45DOPE   C35 5765   5.207   3.833  13.665  0.6940  0.5308 -0.4132
   45DOPE   H5X 5766   5.106   3.854  13.625  0.5450  0.1503 -0.2453
   45DOPE   H5Y 5767   5.246   3.933  13.695  0.0607  0.0819  2.2169
   45DOPE   C36 5768   5.188   3.742  13.790  0.1686 -0.3103  0.6627
   45DOPE   H6X 5769   5.290   3.700  13.799 -0.1265 -1.0810  0.4435
   45DOPE   H6Y 5770   5.131   3.652  13.759  0.9401 -0.1057 -1.5658
   45DOPE   C37 5771   5.136   3.810  13.923 -0.0818  0.0499  0.0702
   45DOPE   H7X 5772   5.211   3.879  13.968 -0.8180 -0.4202  2.1374
   45DOPE   H7Y 5773   5.045   3.863  13.889 -0.1493  0.4269  0.8226
   45DOPE   C38 5774   5.105   3.706  14.030  0.2996 -0.2613 -0.1933
   45DOPE   H8X 5775   5.054   3.617  13.987  2.2094 -0.7904 -1.4918
   45DOPE   H8Y 5776   5.032   3.760  14.094 -0.0144  1.0979 -1.6135
   45DOPE   C39 5777   5.226   3.676  14.112 -0.4771 -1.2275 -0.4446
   45DOPE   H9X 5778   5.287   3.590  14.079 -1.2898 -1.8155 -0.4582
   45DOPE  C310 5779   5.273   3.752  14.211  0.0468  0.3095  0.2080
   45DOPE  H10X 5780   5.371   3.722  14.252  0.5047  1.2540 -0.1550
   45DOPE  C311 5781   5.220   3.876  14.266 -0.0990  0.4782 -0.2171
   45DOPE  H11X 5782   5.264   3.968  14.223  0.6234  0.5571  0.6711
   45DOPE  H11Y 5783   5.110   3.864  14.250 -0.1153  0.5567 -0.1635
   45DOPE  C312 5784   5.233   3.911  14.418 -0.6875 -0.0641  0.6328
   45DOPE  H12X 5785   5.191   4.012  14.437  2.9793  1.3719  1.9605
   45DOPE  H12Y 5786   5.340   3.896  14.445 -0.2468 -0.2386 -1.0621
   45DOPE  C313 5787   5.162   3.811  14.508 -0.8121 -0.3885 -0.6502
   45DOPE  H13X 5788   5.065   3.780  14.463  0.1294 -0.6628 -2.5693
   45DOPE  H13Y 5789   5.235   3.729  14.492  0.5663  0.7054 -0.0693
   45DOPE  C314 5790   5.168   3.843  14.660  0.4766  0.1188 -0.3593
   45DOPE  H14X 5791   5.122   3.943  14.675  0.9123  0.1827  0.5680
   45DOPE  H14Y 5792   5.270   3.860  14.699  0.4037  0.0970 -0.1609
   45DOPE  C315 5793   5.098   3.732  14.734 -0.1320  0.1207 -0.4921
   45DOPE  H15X 5794   5.150   3.636  14.713 -0.6794 -0.5138  0.9056
   45DOPE  H15Y 5795   4.997   3.710  14.695 -1.7620 -1.6420  3.9767
   45DOPE  C316 5796   5.079   3.759  14.886  0.7626  0.3585 -0.4966
   45DOPE  H16X 5797   5.026   3.852  14.916  0.1118 -0.0642 -0.3096
   45DOPE  H16Y 5798   5.182   3.756  14.928  0.6369 -0.5683 -0.2137
   45DOPE  C317 5799   4.987   3.654  14.958 -0.5503  0.1459  0.2983
   45DOPE  H17X 5800   4.887   3.657  14.909 -0.1836 -0.6120 -0.5236
   45DOPE  H17Y 5801   5.039   3.556  14.951  0.7029  0.9141 -1.9630
   45DOPE  C318 5802   4.964   3.675  15.104  0.0040 -0.0954  0.2324
   45DOPE  H18X 5803   4.930   3.582  15.153 -0.6990 -0.4372 -0.8662
   45DOPE  H18Y 5804   5.059   3.695  15.159 -0.5269 -0.6880  1.3958
   45DOPE  H18Z 5805   4.896   3.761  15.122 -0.4812 -0.1168 -1.3649
   46DOPE     N 5806   4.122   2.424  12.465  0.1807  0.1834  0.0807
   46DOPE   HN1 5807   4.024   2.390  12.475 -0.4101  1.7675 -0.0747
   46DOPE   HN2 5808   4.140   2.473  12.376  0.5609 -1.8612 -1.0334
   46DOPE   HN3 5809   4.184   2.340  12.464 -0.6952 -0.4799 -1.0032
   46DOPE   C12 5810   4.158   2.516  12.578 -0.8015 -0.5110 -0.0181
   46DOPE  H12A 5811   4.257   2.561  12.558 -0.3156 -1.7689 -0.5436
   46DOPE  H12B 5812   4.167   2.464  12.676 -0.6483 -2.1326 -0.8535
   46DOPE   C11 5813   4.060   2.629  12.607 -0.0220 -0.6929 -0.1907
   46DOPE  H11A 5814   4.100   2.687  12.693  0.8589  0.5130 -1.3746
   46DOPE  H11B 5815   3.967   2.578  12.642 -0.8292 -0.8724 -2.4801
   46DOPE     P 5816   3.902   2.786  12.462 -0.0508  0.4115 -0.0169
   46DOPE   O13 5817   3.814   2.684  12.399  0.1628  0.2994  0.3969
   46DOPE   O14 5818   3.931   2.910  12.393  0.1885 -0.6399  0.4885
   46DOPE   O11 5819   3.838   2.814  12.602  0.0104  0.6033 -0.3483
   46DOPE   O12 5820   4.035   2.711  12.492 -0.1654  0.1084 -0.5688
   46DOPE    C1 5821   3.899   2.897  12.703  0.1542  0.3357  0.3108
   46DOPE    HA 5822   3.883   3.005  12.682  0.4516  0.1512 -0.9242
   46DOPE    HB 5823   4.008   2.874  12.714 -0.2662 -1.3045  1.3926
   46DOPE    C2 5824   3.849   2.862  12.845  0.7621 -0.2157  0.1814
   46DOPE    HS 5825   3.881   2.756  12.859  1.5152  0.2682  2.5517
   46DOPE   O21 5826   3.707   2.886  12.851  0.6639  0.1441 -0.3612
   46DOPE   C21 5827   3.640   2.814  12.935  0.6240 -0.1246 -0.4405
   46DOPE   O22 5828   3.678   2.712  12.992  0.1379 -0.3767  0.4752
   46DOPE   C22 5829   3.502   2.867  12.947  0.2793 -1.4269  0.2364
   46DOPE   H2R 5830   3.428   2.823  12.876  1.0479 -1.5430 -0.5109
   46DOPE   H2S 5831   3.504   2.974  12.918 -1.1467 -0.9962  1.6140
   46DOPE    C3 5832   3.926   2.938  12.956  0.3788 -0.3248 -0.2621
   46DOPE    HX 5833   3.901   3.045  12.941  2.2374 -0.2084 -3.0009
   46DOPE    HY 5834   4.034   2.936  12.932  0.8658  0.5788  1.6695
   46DOPE   O31 5835   3.897   2.895  13.092  0.1859  0.2391 -0.1383
   46DOPE   C31 5836   3.955   2.785  13.130 -0.0247  0.1073 -0.5691
   46DOPE   O32 5837   4.049   2.728  13.080  0.6510 -0.1398  0.5310
   46DOPE   C32 5838   3.913   2.762  13.275  0.3813  0.4745 -0.4874
   46DOPE   H2X 5839   3.844   2.842  13.309  0.7092  0.5041  0.1326
   46DOPE   H2Y 5840   3.868   2.660  13.284 -1.7803  1.4166  0.3038
   46DOPE   C23 5841   3.442   2.868  13.091 -0.2861 -0.1550 -0.0859
   46DOPE   H3R 5842   3.419   2.761  13.110  2.0821 -0.3812  2.0417
   46DOPE   H3S 5843   3.346   2.922  13.099 -0.3838 -0.5322  1.7850
   46DOPE   C24 5844   3.545   2.926  13.193 -0.7974  0.0527 -0.0674
   46DOPE   H4R 5845   3.590   3.021  13.156  0.2082  0.0504  1.0698
   46DOPE   H4S 5846   3.637   2.864  13.204 -1.3763 -0.6378  0.9078
   46DOPE   C25 5847   3.487   2.943  13.331 -0.8967  0.0040  0.2277
   46DOPE   H5R 5848   3.442   2.845  13.358 -1.2392 -0.1016 -0.7115
   46DOPE   H5S 5849   3.410   3.023  13.338 -2.1944 -0.8749 -2.6792
   46DOPE   C26 5850   3.605   2.986  13.427 -0.1679  0.1860 -0.1430
   46DOPE   H6R 5851   3.669   3.063  13.379  1.9904 -1.8157 -0.6932
   46DOPE   H6S 5852   3.676   2.901  13.440 -1.8328 -1.0856  1.3530
   46DOPE   C27 5853   3.556   3.060  13.552  0.7656  0.0618  0.1473
   46DOPE   H7R 5854   3.498   3.138  13.499  2.4661  1.1016 -0.2736
   46DOPE   H7S 5855   3.643   3.112  13.597  0.1421 -1.0125  2.7700
   46DOPE   C28 5856   3.470   2.985  13.653  0.3215  0.3753  0.4778
   46DOPE   H8R 5857   3.381   2.946  13.600  1.1308 -1.7275  0.5823
   46DOPE   H8S 5858   3.444   3.057  13.734 -0.8903 -1.7053  2.0579
   46DOPE   C29 5859   3.548   2.860  13.706  0.0816  0.0879  0.6863
   46DOPE   H9R 5860   3.525   2.762  13.660 -0.3684 -0.2644  1.6322
   46DOPE  C210 5861   3.637   2.865  13.805  0.4394  0.0953  0.5465
   46DOPE  H10R 5862   3.684   2.772  13.839 -0.1952 -0.8600 -1.0436
   46DOPE  C211 5863   3.681   2.983  13.886  0.0610  0.1668 -1.1579
   46DOPE  H11R 5864   3.635   3.080  13.856 -1.5080  0.5151  1.9824
   46DOPE  H11S 5865   3.792   2.994  13.887  0.2679 -1.4469  1.0830
   46DOPE  C212 5866   3.640   2.956  14.030 -0.1019  0.7713 -0.2930
   46DOPE  H12R 5867   3.675   2.855  14.058 -0.8864  0.4311 -0.5193
   46DOPE  H12S 5868   3.529   2.956  14.023 -0.2049 -1.3091  0.7284
   46DOPE  C213 5869   3.657   3.075  14.127  0.0112  0.2226  0.5812
   46DOPE  H13R 5870   3.598   3.156  14.079 -0.7721 -0.6682 -0.0096
   46DOPE  H13S 5871   3.764   3.105  14.133  0.0665 -0.1749  1.8946
   46DOPE  C214 5872   3.609   3.056  14.266 -0.1011  0.0300  0.2449
   46DOPE  H14R 5873   3.668   2.967  14.295  1.4365  0.5391 -1.1317
   46DOPE  H14S 5874   3.504   3.033  14.294  0.3362  0.3763  2.2592
   46DOPE  C215 5875   3.641   3.181  14.364  0.0259 -0.0906 -0.7358
   46DOPE  H15R 5876   3.560   3.254  14.345  1.3348  1.5808 -0.2232
   46DOPE  H15S 5877   3.723   3.245  14.325 -1.1065  1.2982 -0.9156
   46DOPE  C216 5878   3.654   3.144  14.512 -0.2344 -0.1272  0.0242
   46DOPE  H16R 5879   3.556   3.103  14.544 -1.3481  0.7483 -2.0579
   46DOPE  H16S 5880   3.663   3.232  14.579 -0.4797  0.3445 -0.5541
   46DOPE  C217 5881   3.767   3.043  14.548  0.1328 -0.9856  1.0954
   46DOPE  H17R 5882   3.859   3.083  14.502 -0.9484  1.4985  0.9100
   46DOPE  H17S 5883   3.751   2.945  14.499 -1.4415  0.2122 -0.9555
   46DOPE  C218 5884   3.778   3.028  14.703 -0.2129 -0.3320  0.4471
   46DOPE  H18R 5885   3.869   2.974  14.737  1.1968  1.8986  0.4714
   46DOPE  H18S 5886   3.693   2.970  14.745  0.8471 -1.3824  1.2324
   46DOPE  H18T 5887   3.779   3.127  14.755 -0.5418 -1.2450  2.2968
   46DOPE   C33 5888   4.038   2.756  13.368 -0.3804 -0.7469 -0.5906
   46DOPE   H3X 5889   4.096   2.848  13.343  1.3175 -1.4790  0.4799
   46DOPE   H3Y 5890   4.102   2.671  13.337  0.2600 -0.4238 -0.1883
   46DOPE   C34 5891   4.011   2.744  13.517  0.3772  0.3756  0.0974
   46DOPE   H4X 5892   3.938   2.824  13.542  1.3493  0.7458  1.9240
   46DOPE   H4Y 5893   3.959   2.648  13.538 -1.1166  0.9352 -0.8463
   46DOPE   C35 5894   4.134   2.757  13.607  0.6966  0.0937  0.4256
   46DOPE   H5X 5895   4.162   2.864  13.622 -1.1738  0.5339  1.1386
   46DOPE   H5Y 5896   4.220   2.697  13.570 -0.8502 -2.6047  0.9032
   46DOPE   C36 5897   4.093   2.719  13.750  0.2402 -0.4678 -0.1941
   46DOPE   H6X 5898   4.048   2.618  13.756  0.2198 -0.4232  0.5270
   46DOPE   H6Y 5899   4.001   2.776  13.775  1.2741  2.1747 -1.9281
   46DOPE   C37 5900   4.201   2.720  13.865  0.4349 -0.5818  0.6373
   46DOPE   H7X 5901   4.288   2.653  13.848  0.5978  0.0749 -1.3858
   46DOPE   H7Y 5902   4.249   2.821  13.875 -2.1800  1.1767 -2.5875
   46DOPE   C38 5903   4.145   2.684  13.997 -0.2971 -0.0838 -0.1960
   46DOPE   H8X 5904   4.227   2.649  14.062  0.1519  3.1318  1.1424
   46DOPE   H8Y 5905   4.075   2.598  13.990  0.1654 -0.4418 -0.4598
   46DOPE   C39 5906   4.064   2.798  14.064  0.5656  0.0730  0.1857
   46DOPE   H9X 5907   4.088   2.897  14.022  0.1812  0.8976  1.8565
   46DOPE  C310 5908   4.004   2.796  14.184 -0.1284 -0.1828 -0.1163
   46DOPE  H10X 5909   3.958   2.887  14.225 -0.4558 -1.2394  2.0353
   46DOPE  C311 5910   4.009   2.680  14.279  0.2281  0.1835  0.2312
   46DOPE  H11X 5911   3.916   2.678  14.340 -0.3774  2.6463 -0.5364
   46DOPE  H11Y 5912   4.019   2.582  14.228  0.5102  0.5085 -0.3455
   46DOPE  C312 5913   4.126   2.683  14.367  0.1428 -0.1139 -0.5785
   46DOPE  H12X 5914   4.221   2.696  14.311  0.4751  0.3673  0.0888
   46DOPE  H12Y 5915   4.121   2.586  14.420 -2.0908  0.3881  0.2469
   46DOPE  C313 5916   4.116   2.800  14.478 -0.1101 -0.2638  0.3006
   46DOPE  H13X 5917   4.128   2.895  14.421  0.0683 -1.0630 -1.0149
   46DOPE  H13Y 5918   4.019   2.787  14.530 -0.3252 -0.5209 -0.1656
   46DOPE  C314 5919   4.217   2.785  14.587 -0.2476 -0.0354 -0.4181
   46DOPE  H14X 5920   4.321   2.812  14.558  0.3741 -0.0159  1.6942
   46DOPE  H14Y 5921   4.221   2.676  14.609 -0.4169  0.4821  2.5175
   46DOPE  C315 5922   4.189   2.887  14.703 -0.4183  0.4898  0.6264
   46DOPE  H15X 5923   4.109   2.839  14.763 -1.3239  0.7430 -0.3559
   46DOPE  H15Y 5924   4.141   2.985  14.680  0.8680  1.8637  3.2875
   46DOPE  C316 5925   4.310   2.899  14.788  0.1557 -0.3584 -0.3146
   46DOPE  H16X 5926   4.396   2.931  14.726  1.5890  1.2700  2.3773
   46DOPE  H16Y 5927   4.335   2.802  14.836 -0.3024 -0.5701 -0.4921
   46DOPE  C317 5928   4.287   3.001  14.898 -0.3998  0.3489 -0.6014
   46DOPE  H17X 5929   4.277   3.106  14.861  2.1339  0.4696 -1.1125
   46DOPE  H17Y 5930   4.190   2.981  14.948 -1.3007  2.9231 -1.1618
   46DOPE  C318 5931   4.406   2.990  14.994  0.6210 -0.0700 -0.1971
   46DOPE  H18X 5932   4.474   2.917  14.946 -2.8661 -2.5150 -1.8392
   46DOPE  H18Y 5933   4.458   3.088  14.986 -1.7548  1.4185  1.1970
   46DOPE  H18Z 5934   4.396   2.954  15.099  1.5016 -0.0643 -0.1047
   47DOPE     N 5935   1.378   2.417  13.217  0.6570 -0.2591  0.0577
   47DOPE   HN1 5936   1.478   2.396  13.197  1.2457 -0.9701  3.1561
   47DOPE   HN2 5937   1.364   2.483  13.297  0.7184  0.9320 -0.8879
   47DOPE   HN3 5938   1.343   2.328  13.257 -1.8329  0.7226  0.2472
   47DOPE   C12 5939   1.293   2.448  13.091 -0.0263 -0.0147  0.4140
   47DOPE  H12A 5940   1.318   2.370  13.016  0.6706  2.3773 -1.9756
   47DOPE  H12B 5941   1.325   2.547  13.051  0.6064 -0.4901 -0.2938
   47DOPE   C11 5942   1.144   2.442  13.124 -0.5585 -0.2709  0.1939
   47DOPE  H11A 5943   1.131   2.335  13.153 -1.2895 -0.4492 -0.7130
   47DOPE  H11B 5944   1.085   2.460  13.031  0.7870 -0.4731 -0.7235
   47DOPE     P 5945   0.978   2.613  13.239  0.3515  0.5402  0.1423
   47DOPE   O13 5946   0.868   2.517  13.214  0.6031 -0.8930 -0.0762
   47DOPE   O14 5947   0.992   2.729  13.150 -0.0435 -0.0361  0.0654
   47DOPE   O11 5948   0.961   2.667  13.386  0.4688  0.3026 -0.1193
   47DOPE   O12 5949   1.114   2.527  13.237 -0.3262 -0.7816 -0.3588
   47DOPE    C1 5950   1.073   2.725  13.461  0.0726 -0.2143 -0.0759
   47DOPE    HA 5951   1.051   2.833  13.475  0.5418  0.1003 -1.6636
   47DOPE    HB 5952   1.173   2.721  13.413  0.1835  1.4920 -0.0593
   47DOPE    C2 5953   1.081   2.661  13.595  0.5621  0.3183 -0.3175
   47DOPE    HS 5954   1.122   2.559  13.579 -2.5724 -1.2375  0.7316
   47DOPE   O21 5955   0.950   2.670  13.654  0.3925  0.1777  0.4294
   47DOPE   C21 5956   0.927   2.599  13.761 -0.5053  0.5057  0.5326
   47DOPE   O22 5957   0.987   2.496  13.794  0.2198 -0.0624  0.1059
   47DOPE   C22 5958   0.799   2.643  13.831 -1.0336  0.0003 -0.7598
   47DOPE   H2R 5959   0.745   2.549  13.857  1.1759 -1.7455 -2.0509
   47DOPE   H2S 5960   0.730   2.701  13.766  0.1161  2.5322  0.1758
   47DOPE    C3 5961   1.196   2.722  13.687  0.3367 -0.0944 -0.2132
   47DOPE    HX 5962   1.148   2.804  13.746  0.3679  0.9407 -1.5813
   47DOPE    HY 5963   1.276   2.773  13.630  1.6260 -0.3110  1.3371
   47DOPE   O31 5964   1.271   2.625  13.761 -0.0720  0.2576 -0.2524
   47DOPE   C31 5965   1.297   2.649  13.889  0.8964  0.3635 -0.1444
   47DOPE   O32 5966   1.284   2.753  13.950 -0.0645  0.2033 -0.5670
   47DOPE   C32 5967   1.353   2.510  13.943 -0.0582 -0.5514  0.1256
   47DOPE   H2X 5968   1.273   2.434  13.933  0.9251 -1.4882 -1.0324
   47DOPE   H2Y 5969   1.440   2.482  13.879 -1.3993  0.3058 -2.2178
   47DOPE   C23 5970   0.827   2.743  13.948 -0.5863  0.3598  0.6443
   47DOPE   H3R 5971   0.731   2.751  14.001 -1.2705  0.8805 -0.6174
   47DOPE   H3S 5972   0.853   2.846  13.914  1.2904 -0.0745  0.6579
   47DOPE   C24 5973   0.940   2.694  14.040  0.6482  0.4477 -0.0478
   47DOPE   H4R 5974   1.034   2.690  13.981  2.5067 -1.2560  2.8444
   47DOPE   H4S 5975   0.921   2.588  14.065 -0.2410  0.6539  0.1825
   47DOPE   C25 5976   0.960   2.786  14.164 -0.7012 -0.1316  0.3069
   47DOPE   H5R 5977   0.862   2.812  14.209 -0.3983  0.8395  0.4154
   47DOPE   H5S 5978   1.006   2.879  14.127  0.7579 -0.6337  0.7651
   47DOPE   C26 5979   1.055   2.722  14.271 -0.6870  0.4323  0.2605
   47DOPE   H6R 5980   1.068   2.809  14.339 -1.7480  1.6792 -1.0673
   47DOPE   H6S 5981   1.156   2.694  14.236 -1.2579 -1.6379  0.1253
   47DOPE   C27 5982   1.000   2.608  14.355 -0.6128  0.0417  0.0271
   47DOPE   H7R 5983   1.065   2.586  14.443  0.1039  0.5490 -0.3666
   47DOPE   H7S 5984   1.001   2.522  14.285  1.7573  0.7284 -0.8810
   47DOPE   C28 5985   0.861   2.633  14.412 -0.2107 -0.7683  0.6122
   47DOPE   H8R 5986   0.835   2.538  14.462  0.4812 -0.7184  1.0702
   47DOPE   H8S 5987   0.796   2.636  14.322  0.9035  0.4762 -0.1853
   47DOPE   C29 5988   0.834   2.745  14.512 -0.2984  0.0172 -0.0448
   47DOPE   H9R 5989   0.819   2.841  14.461  0.9874  0.2146 -0.0986
   47DOPE  C210 5990   0.841   2.735  14.646 -0.6583 -0.2803  0.4174
   47DOPE  H10R 5991   0.832   2.832  14.696 -3.4394  0.6775 -1.6644
   47DOPE  C211 5992   0.876   2.607  14.726  1.0590  0.1555 -0.4993
   47DOPE  H11R 5993   0.930   2.532  14.665 -0.6011 -1.0577 -0.5437
   47DOPE  H11S 5994   0.778   2.556  14.738  0.9030  0.8905  1.8118
   47DOPE  C212 5995   0.950   2.627  14.851 -0.5418 -0.4301 -0.3144
   47DOPE  H12R 5996   0.979   2.525  14.884  0.1616 -0.3986 -0.8296
   47DOPE  H12S 5997   0.881   2.675  14.924  1.6984  0.6876  1.1761
   47DOPE  C213 5998   1.076   2.716  14.839 -0.3666  0.1387  0.6291
   47DOPE  H13R 5999   1.056   2.816  14.794  0.1829  0.7264  1.6680
   47DOPE  H13S 6000   1.146   2.670  14.765  0.7980 -0.6229  2.1441
   47DOPE  C214 6001   1.150   2.711  14.976 -0.7876 -0.4364 -0.6355
   47DOPE  H14R 6002   1.256   2.737  14.955 -1.5378  2.1996 -1.5946
   47DOPE  H14S 6003   1.145   2.610  15.022 -0.6773  1.3488  3.9075
   47DOPE  C215 6004   1.098   2.829  15.079 -0.4999 -0.4530  0.0617
   47DOPE  H15R 6005   0.995   2.808  15.114  0.3669 -2.3828  1.6625
   47DOPE  H15S 6006   1.102   2.924  15.021 -2.0032 -0.7089 -0.5050
   47DOPE  C216 6007   1.183   2.855  15.207  0.2270  0.5065 -0.1248
   47DOPE  H16R 6008   1.288   2.884  15.189  0.1110  1.0977  0.1298
   47DOPE  H16S 6009   1.197   2.775  15.283  1.7436  1.2923  0.4583
   47DOPE  C217 6010   1.117   2.975  15.277 -0.0961 -0.5245  0.6120
   47DOPE  H17R 6011   1.007   2.961  15.283 -0.6866  1.7577 -2.3326
   47DOPE  H17S 6012   1.136   3.062  15.210 -0.7211  0.9637  2.2971
   47DOPE  C218 6013   1.190   3.006  15.412  0.1845  0.1672 -0.0147
   47DOPE  H18R 6014   1.200   2.916  15.476  1.2101 -0.7467 -1.4126
   47DOPE  H18S 6015   1.137   3.088  15.465 -0.4325 -0.1282 -0.1527
   47DOPE  H18T 6016   1.294   3.038  15.390 -0.0316 -1.1632 -3.8764
   47DOPE   C33 6017   1.400   2.533  14.092 -0.0643 -0.3248  0.6998
   47DOPE   H3X 6018   1.308   2.556  14.150 -0.6169  3.6411 -1.4007
   47DOPE   H3Y 6019   1.456   2.629  14.095 -2.6124  1.2482  3.4568
   47DOPE   C34 6020   1.479   2.413  14.149  0.4043  0.8610 -0.0130
   47DOPE   H4X 6021   1.412   2.325  14.148  1.2883  0.1699  0.2586
   47DOPE   H4Y 6022   1.570   2.386  14.091  1.1411  0.5227  1.2711
   47DOPE   C35 6023   1.538   2.437  14.290  0.5100 -0.0370 -0.4792
   47DOPE   H5X 6024   1.592   2.534  14.284  0.7704 -0.1263  0.2945
   47DOPE   H5Y 6025   1.605   2.355  14.324 -0.5306 -0.3412  0.9308
   47DOPE   C36 6026   1.427   2.464  14.397  0.3880 -0.4458 -0.1169
   47DOPE   H6X 6027   1.377   2.365  14.411  0.9016 -0.6423  0.3547
   47DOPE   H6Y 6028   1.354   2.541  14.363  1.2584  0.6226  0.3952
   47DOPE   C37 6029   1.473   2.521  14.529 -0.4763  0.4163  0.1131
   47DOPE   H7X 6030   1.542   2.448  14.578 -1.4558 -1.4236 -1.1545
   47DOPE   H7Y 6031   1.530   2.614  14.509 -0.7149  0.1225 -2.1209
   47DOPE   C38 6032   1.357   2.558  14.630  0.5897  0.3157  0.5720
   47DOPE   H8X 6033   1.261   2.581  14.580  0.4931  0.1000  0.6598
   47DOPE   H8Y 6034   1.396   2.637  14.698  0.2626 -0.3923  1.5980
   47DOPE   C39 6035   1.319   2.432  14.705 -0.3494 -0.2449 -0.4075
   47DOPE   H9X 6036   1.264   2.358  14.644 -2.0617  0.9027 -0.3128
   47DOPE  C310 6037   1.343   2.399  14.840 -0.0393 -0.6817 -0.2486
   47DOPE  H10X 6038   1.318   2.298  14.877  1.4045 -0.9976 -0.0745
   47DOPE  C311 6039   1.430   2.477  14.934 -0.0138  0.2368 -0.2078
   47DOPE  H11X 6040   1.459   2.579  14.900  1.0949 -0.0173 -0.0641
   47DOPE  H11Y 6041   1.374   2.490  15.029  0.1217 -0.2896 -0.0563
   47DOPE  C312 6042   1.548   2.387  14.969 -0.3984  0.0579 -0.7860
   47DOPE  H12X 6043   1.606   2.367  14.876  0.7727 -0.5694  0.0466
   47DOPE  H12Y 6044   1.511   2.295  15.021  1.9504 -0.8178 -0.5502
   47DOPE  C313 6045   1.637   2.468  15.073  0.2079 -0.0880 -0.5393
   47DOPE  H13X 6046   1.656   2.569  15.032 -1.5121  0.7711  0.6691
   47DOPE  H13Y 6047   1.573   2.493  15.160  0.5203  1.0842 -0.6283
   47DOPE  C314 6048   1.770   2.398  15.119 -0.0282 -0.3848 -0.2226
   47DOPE  H14X 6049   1.813   2.346  15.031 -1.4817  2.2667 -2.6798
   47DOPE  H14Y 6050   1.738   2.328  15.199 -0.9959  0.5745  0.2511
   47DOPE  C315 6051   1.880   2.498  15.167  0.1344 -0.2016 -0.3865
   47DOPE  H15X 6052   1.840   2.547  15.259  1.8612  0.6429 -0.0394
   47DOPE  H15Y 6053   1.905   2.580  15.096 -1.6043  1.1985  0.5497
   47DOPE  C316 6054   2.014   2.434  15.200  0.3981  0.1172  0.2968
   47DOPE  H16X 6055   2.065   2.385  15.114  0.3154  1.7867 -0.7379
   47DOPE  H16Y 6056   2.011   2.366  15.288  1.8765 -0.4679 -0.0812
   47DOPE  C317 6057   2.115   2.540  15.243  0.3238 -0.0463 -0.0563
   47DOPE  H17X 6058   2.139   2.599  15.152  0.4021 -1.8661 -1.2586
   47DOPE  H17Y 6059   2.067   2.615  15.310 -1.6647 -1.2682 -0.0246
   47DOPE  C318 6060   2.245   2.494  15.309 -0.7355  1.0940 -0.7229
   47DOPE  H18X 6061   2.223   2.458  15.412  1.0003 -1.4757 -1.1627
   47DOPE  H18Y 6062   2.297   2.420  15.246 -2.8876  0.6997 -2.1224
   47DOPE  H18Z 6063   2.313   2.582  15.317 -0.4913  0.9235 -0.9000
   48DOPE     N 6064   5.638   4.805  13.149 -0.0144 -0.1544  0.4630
   48DOPE   HN1 6065   5.666   4.705  13.156  0.3124  0.0236  2.5791
   48DOPE   HN2 6066   5.727   4.848  13.115 -1.5449  2.0530 -0.9710
   48DOPE   HN3 6067   5.631   4.841  13.247 -1.0131  4.2913 -1.0245
   48DOPE   C12 6068   5.520   4.827  13.064  0.1712 -0.3168  0.0052
   48DOPE  H12A 6069   5.432   4.768  13.097 -1.4368  2.0615  0.3018
   48DOPE  H12B 6070   5.558   4.799  12.964  1.4744 -3.3651  1.2412
   48DOPE   C11 6071   5.479   4.974  13.086 -0.4127 -0.6076 -0.4931
   48DOPE  H11A 6072   5.382   5.004  13.040  0.3839  1.4221 -0.9683
   48DOPE  H11B 6073   5.554   5.038  13.034 -0.0266  0.3111  1.1418
   48DOPE     P 6074   5.371   4.992  13.329  0.1985 -0.2452 -0.1659
   48DOPE   O13 6075   5.443   4.947  13.450 -0.6948  0.3754 -0.0572
   48DOPE   O14 6076   5.274   4.893  13.286 -0.1779  0.0585 -0.0463
   48DOPE   O11 6077   5.303   5.131  13.364 -0.3621  0.2636 -0.3157
   48DOPE   O12 6078   5.476   5.017  13.225 -0.3256  0.0451 -0.0612
   48DOPE    C1 6079   5.191   5.187  13.304  0.1986  0.2622  0.6814
   48DOPE    HA 6080   5.187   5.157  13.197  0.0378 -0.1964  0.8114
   48DOPE    HB 6081   5.197   5.298  13.301 -1.2768  0.3411 -1.0273
   48DOPE    C2 6082   5.055   5.160  13.373 -0.1181  0.6765 -0.3049
   48DOPE    HS 6083   4.974   5.232  13.349 -1.0325 -0.3975 -0.5375
   48DOPE   O21 6084   5.081   5.127  13.510  0.6992 -0.5524 -0.9061
   48DOPE   C21 6085   5.117   5.219  13.592 -0.0522 -0.5796 -0.2629
   48DOPE   O22 6086   5.139   5.336  13.562 -0.0691  0.4458  0.3965
   48DOPE   C22 6087   5.089   5.165  13.738  0.5877  0.8726 -0.2628
   48DOPE   H2R 6088   5.177   5.098  13.747  0.2960  0.4302 -0.6230
   48DOPE   H2S 6089   4.989   5.117  13.736  0.0912  1.6892  1.8878
   48DOPE    C3 6090   4.980   5.036  13.309 -0.8734 -0.0109  0.0502
   48DOPE    HX 6091   5.053   4.954  13.326  0.4682  1.0739 -0.2540
   48DOPE    HY 6092   4.980   5.048  13.198 -0.2011 -1.2526 -0.1033
   48DOPE   O31 6093   4.847   5.015  13.357  0.3473 -0.1561  0.0226
   48DOPE   C31 6094   4.795   4.894  13.327  0.3396 -0.1755 -0.0761
   48DOPE   O32 6095   4.857   4.802  13.279 -0.0478  0.1428 -0.2759
   48DOPE   C32 6096   4.650   4.895  13.373 -0.2400 -0.3796  0.0887
   48DOPE   H2X 6097   4.610   4.999  13.378 -1.2152 -0.7635  0.5520
   48DOPE   H2Y 6098   4.583   4.837  13.306 -1.7425  1.2754  0.0576
   48DOPE   C23 6099   5.091   5.270  13.853 -0.4478  0.4935  0.0404
   48DOPE   H3R 6100   5.018   5.349  13.826  0.5279  0.9436 -1.3636
   48DOPE   H3S 6101   5.193   5.313  13.861 -0.5741  0.7914  0.0929
   48DOPE   C24 6102   5.058   5.212  13.990 -0.4804  0.5751  0.1382
   48DOPE   H4R 6103   5.139   5.143  14.021 -3.6908 -2.7158  1.8938
   48DOPE   H4S 6104   4.961   5.158  13.993  1.1359 -2.7771 -1.8096
   48DOPE   C25 6105   5.067   5.331  14.087  0.1884 -0.0559 -0.1957
   48DOPE   H5R 6106   4.998   5.410  14.053  1.6015  2.3423  2.1538
   48DOPE   H5S 6107   5.165   5.382  14.096 -0.4071  0.9447  0.9230
   48DOPE   C26 6108   5.057   5.284  14.234 -0.0840  0.1048 -0.0512
   48DOPE   H6R 6109   5.126   5.199  14.249 -0.0829  0.1388  0.1466
   48DOPE   H6S 6110   4.955   5.241  14.246 -0.4037  0.3413 -1.6675
   48DOPE   C27 6111   5.082   5.384  14.340  0.7954 -0.4894  0.4823
   48DOPE   H7R 6112   5.016   5.466  14.304 -0.2958 -1.1211  1.0003
   48DOPE   H7S 6113   5.190   5.409  14.339  0.7670  0.2777 -3.7576
   48DOPE   C28 6114   5.035   5.349  14.489  0.0688  0.5045  0.1815
   48DOPE   H8R 6115   4.927   5.322  14.488  0.1045  0.3568 -0.5196
   48DOPE   H8S 6116   5.040   5.446  14.544 -2.2276 -1.1165  3.5764
   48DOPE   C29 6117   5.106   5.240  14.567 -0.9523 -0.1581  0.1539
   48DOPE   H9R 6118   5.119   5.142  14.517  0.1353  0.2604 -0.4231
   48DOPE  C210 6119   5.160   5.243  14.696  0.5782  0.1872  0.0461
   48DOPE  H10R 6120   5.218   5.154  14.726 -0.4992 -1.0983 -1.4950
   48DOPE  C211 6121   5.158   5.358  14.789  0.3304 -0.3455 -0.5269
   48DOPE  H11R 6122   5.117   5.451  14.743 -0.0226 -1.0011 -1.5793
   48DOPE  H11S 6123   5.261   5.395  14.808  0.3297 -0.5865 -0.0505
   48DOPE  C212 6124   5.070   5.339  14.920  0.0744 -0.4542 -0.2419
   48DOPE  H12R 6125   5.123   5.265  14.985 -1.2285 -1.3501 -0.1594
   48DOPE  H12S 6126   4.980   5.290  14.879  0.6723 -0.4235 -1.6299
   48DOPE  C213 6127   5.046   5.471  15.004  0.1313 -0.0022  0.7222
   48DOPE  H13R 6128   5.005   5.548  14.935  1.0441 -1.5738 -1.7344
   48DOPE  H13S 6129   5.143   5.505  15.044  0.0391 -0.3720  1.2667
   48DOPE  C214 6130   4.942   5.446  15.117  0.1095  0.1590  0.4094
   48DOPE  H14R 6131   4.982   5.371  15.189  0.1566 -0.3023 -0.0950
   48DOPE  H14S 6132   4.854   5.411  15.060  0.1458 -2.0506  1.5957
   48DOPE  C215 6133   4.931   5.587  15.179  0.2548 -0.2921 -0.0562
   48DOPE  H15R 6134   4.929   5.667  15.102 -0.2477  0.0441  0.3046
   48DOPE  H15S 6135   5.018   5.601  15.247  2.6810 -2.9540 -2.3138
   48DOPE  C216 6136   4.796   5.618  15.257  0.3023 -0.3032  0.4646
   48DOPE  H16R 6137   4.708   5.624  15.189 -0.3928  2.5230  1.4883
   48DOPE  H16S 6138   4.797   5.720  15.300 -0.1426 -0.4122  0.7482
   48DOPE  C217 6139   4.756   5.535  15.382 -0.2802  0.1610  0.5129
   48DOPE  H17R 6140   4.818   5.556  15.472  0.8117  1.3029 -0.4568
   48DOPE  H17S 6141   4.776   5.429  15.356  1.5987  0.1488  1.8242
   48DOPE  C218 6142   4.610   5.538  15.422  0.5791  0.2248 -0.5890
   48DOPE  H18R 6143   4.566   5.632  15.459 -1.8603 -0.4172 -1.6973
   48DOPE  H18S 6144   4.592   5.469  15.508  0.9847  1.2933  0.3837
   48DOPE  H18T 6145   4.543   5.497  15.344  1.2229 -2.5588  0.1919
   48DOPE   C33 6146   4.632   4.845  13.515 -0.0778  0.6132  0.1749
   48DOPE   H3X 6147   4.689   4.751  13.529 -2.0656 -0.6525  0.1004
   48DOPE   H3Y 6148   4.524   4.823  13.526  0.1601 -0.0323  1.3969
   48DOPE   C34 6149   4.658   4.946  13.624  0.0367  0.2882 -0.2239
   48DOPE   H4X 6150   4.767   4.962  13.639 -0.1249  0.6083  0.6929
   48DOPE   H4Y 6151   4.605   5.040  13.598 -0.1065  0.4825  0.7215
   48DOPE   C35 6152   4.610   4.896  13.758  0.2676  0.2388  0.7854
   48DOPE   H5X 6153   4.608   4.785  13.770 -0.6322 -0.1380 -2.0081
   48DOPE   H5Y 6154   4.502   4.924  13.760  0.2925  0.3285  0.8787
   48DOPE   C36 6155   4.675   4.960  13.875 -0.7011  0.0904 -0.6407
   48DOPE   H6X 6156   4.658   5.070  13.867  1.0032  0.3019 -2.0575
   48DOPE   H6Y 6157   4.785   4.943  13.875 -0.8010 -0.5685 -1.4372
   48DOPE   C37 6158   4.607   4.910  14.011  0.2544  0.1825  0.2802
   48DOPE   H7X 6159   4.498   4.919  13.991  0.8016 -1.3530 -4.6506
   48DOPE   H7Y 6160   4.622   4.800  14.009  0.1695  0.1892 -1.1433
   48DOPE   C38 6161   4.646   4.978  14.143  0.5590 -0.3712 -0.4399
   48DOPE   H8X 6162   4.595   5.076  14.149  0.5098 -0.2779 -1.9283
   48DOPE   H8Y 6163   4.754   5.005  14.143  0.2367  1.0523 -1.7955
   48DOPE   C39 6164   4.614   4.889  14.264  0.3475 -0.5921  0.6726
   48DOPE   H9X 6165   4.513   4.846  14.258 -0.5778  1.6451 -1.3509
   48DOPE  C310 6166   4.684   4.880  14.375 -0.4542 -0.4901 -0.6441
   48DOPE  H10X 6167   4.646   4.819  14.458 -0.5630  0.0891 -0.2617
   48DOPE  C311 6168   4.802   4.966  14.417 -0.4713  0.1048 -0.4095
   48DOPE  H11X 6169   4.896   4.907  14.429 -0.1725  0.6516 -0.0442
   48DOPE  H11Y 6170   4.827   5.047  14.345  0.3881  0.1317 -0.0957
   48DOPE  C312 6171   4.776   5.031  14.554 -0.0654 -0.2011 -0.3055
   48DOPE  H12X 6172   4.683   5.090  14.550 -2.2258 -3.2795  0.4835
   48DOPE  H12Y 6173   4.865   5.096  14.569 -1.9481  1.9424  2.3608
   48DOPE  C313 6174   4.755   4.930  14.670  0.3801 -0.3053 -0.4187
   48DOPE  H13X 6175   4.660   4.877  14.650 -0.5751  1.7085 -1.5095
   48DOPE  H13Y 6176   4.830   4.848  14.660  0.1501 -0.6401  0.4849
   48DOPE  C314 6177   4.759   5.002  14.802  0.1051 -0.2586 -0.2493
   48DOPE  H14X 6178   4.762   5.110  14.773 -3.9547  0.3715  1.0160
   48DOPE  H14Y 6179   4.848   4.960  14.853 -0.8982  0.6346  2.4132
   48DOPE  C315 6180   4.636   4.987  14.899  0.1917  0.0834  0.1687
   48DOPE  H15X 6181   4.622   4.877  14.894 -1.1600  0.1617  1.5175
   48DOPE  H15Y 6182   4.544   5.037  14.861 -1.0243 -1.5888  0.7602
   48DOPE  C316 6183   4.659   5.027  15.049  0.9160 -0.2401 -0.4925
   48DOPE  H16X 6184   4.689   5.134  15.047 -3.6365  1.2311 -0.2532
   48DOPE  H16Y 6185   4.740   4.971  15.100 -0.4001 -0.0747  1.9078
   48DOPE  C317 6186   4.525   5.038  15.132  0.5909  0.6302  0.1684
   48DOPE  H17X 6187   4.458   5.093  15.062  0.1916 -1.0283 -0.8156
   48DOPE  H17Y 6188   4.485   4.935  15.142  1.5016  0.3268  0.8302
   48DOPE  C318 6189   4.534   5.103  15.271  0.3943 -0.1670 -0.2040
   48DOPE  H18X 6190   4.593   5.197  15.264  1.3988 -0.8435 -1.0818
   48DOPE  H18Y 6191   4.429   5.124  15.302  1.0826 -0.6850  2.7323
   48DOPE  H18Z 6192   4.558   5.031  15.352  0.5456 -1.0416 -1.0042
   49DOPE     N 6193   1.072   3.244  12.662  0.9229  0.5594  0.0772
   49DOPE   HN1 6194   0.976   3.283  12.667  0.0264 -1.4356 -0.4154
   49DOPE   HN2 6195   1.128   3.295  12.591  0.9645 -0.0367 -0.3252
   49DOPE   HN3 6196   1.071   3.144  12.632  1.5243  0.9064 -1.1513
   49DOPE   C12 6197   1.137   3.254  12.803 -0.5213  0.3698 -0.7403
   49DOPE  H12A 6198   1.181   3.354  12.819 -0.3999 -0.0107  1.5726
   49DOPE  H12B 6199   1.221   3.181  12.800 -0.3307  0.6123 -1.6368
   49DOPE   C11 6200   1.030   3.236  12.910 -0.0301 -0.1967 -0.3531
   49DOPE  H11A 6201   1.086   3.230  13.005 -2.2502 -1.7218  0.9400
   49DOPE  H11B 6202   0.979   3.139  12.892  0.0367 -0.2660 -0.1711
   49DOPE     P 6203   0.934   3.475  12.994 -0.4346 -0.1762  0.4953
   49DOPE   O13 6204   0.795   3.529  13.023 -0.1538 -0.0357  0.0783
   49DOPE   O14 6205   1.029   3.571  12.928  0.5930 -0.4261  0.4743
   49DOPE   O11 6206   0.991   3.423  13.135 -0.5981 -0.3086  0.3412
   49DOPE   O12 6207   0.930   3.337  12.917 -0.1780 -0.5391  0.1196
   49DOPE    C1 6208   0.912   3.330  13.221 -0.3779 -0.1011  0.2693
   49DOPE    HA 6209   0.896   3.229  13.178  2.9594 -0.8674  0.5647
   49DOPE    HB 6210   0.808   3.358  13.250 -0.5331 -1.0467  0.6874
   49DOPE    C2 6211   0.983   3.304  13.356  0.3345  0.0392  0.1453
   49DOPE    HS 6212   0.904   3.274  13.428  1.0664 -0.0569  0.9193
   49DOPE   O21 6213   1.054   3.419  13.413  0.5361 -0.0851 -0.7845
   49DOPE   C21 6214   0.970   3.514  13.454 -0.4195  0.2785  0.2366
   49DOPE   O22 6215   0.849   3.505  13.472  0.0439  0.1040 -0.6851
   49DOPE   C22 6216   1.050   3.641  13.483 -0.4822 -0.1025 -0.0272
   49DOPE   H2R 6217   0.987   3.732  13.496 -0.3287 -0.0760  0.5715
   49DOPE   H2S 6218   1.095   3.653  13.382  0.6612  2.1402  0.6940
   49DOPE    C3 6219   1.087   3.180  13.358  0.0720 -0.4812  0.0773
   49DOPE    HX 6220   1.159   3.185  13.273  0.8415  0.8711  0.7738
   49DOPE    HY 6221   1.021   3.094  13.333 -1.0803  0.5210 -0.4611
   49DOPE   O31 6222   1.144   3.162  13.487  0.1586 -0.3255 -0.1762
   49DOPE   C31 6223   1.265   3.211  13.517 -0.1390  0.0327  0.1595
   49DOPE   O32 6224   1.337   3.273  13.444 -0.3238 -0.1865 -0.8746
   49DOPE   C32 6225   1.294   3.166  13.659  0.2612  0.4275  0.4117
   49DOPE   H2X 6226   1.271   3.239  13.739  0.1467  0.5642  0.2521
   49DOPE   H2Y 6227   1.238   3.071  13.673  0.7549  0.2061  0.9459
   49DOPE   C23 6228   1.173   3.612  13.577 -0.8248 -0.6823  0.5876
   49DOPE   H3R 6229   1.257   3.684  13.565 -2.5456  1.2888 -0.0012
   49DOPE   H3S 6230   1.232   3.519  13.559  0.8731  0.2370  1.2175
   49DOPE   C24 6231   1.137   3.602  13.725  0.4321  0.4952 -0.4248
   49DOPE   H4R 6232   1.053   3.534  13.751  0.6228  0.5183  0.2825
   49DOPE   H4S 6233   1.098   3.695  13.771  1.0982 -0.4648  2.2568
   49DOPE   C25 6234   1.250   3.553  13.823  0.0519  0.0748 -0.4108
   49DOPE   H5R 6235   1.333   3.617  13.788 -0.5597  0.8918 -0.4032
   49DOPE   H5S 6236   1.278   3.447  13.805 -0.6757 -0.2483  0.3052
   49DOPE   C26 6237   1.210   3.580  13.972  0.5914 -0.0605  0.3982
   49DOPE   H6R 6238   1.107   3.545  13.995  0.7341 -0.3586  0.5972
   49DOPE   H6S 6239   1.202   3.686  14.002  1.0837 -0.4812  2.0950
   49DOPE   C27 6240   1.285   3.498  14.073 -0.0907 -0.3038 -0.2247
   49DOPE   H7R 6241   1.391   3.531  14.059  0.2353 -0.4894  1.5620
   49DOPE   H7S 6242   1.284   3.393  14.038  1.1869 -1.0470  1.7622
   49DOPE   C28 6243   1.233   3.517  14.214 -0.2771 -0.8113  0.1454
   49DOPE   H8R 6244   1.261   3.432  14.281 -0.9499 -0.7494  0.5166
   49DOPE   H8S 6245   1.124   3.504  14.194 -0.5880  2.1285 -0.4753
   49DOPE   C29 6246   1.281   3.649  14.271  0.7742  0.2375 -0.3807
   49DOPE   H9R 6247   1.254   3.734  14.207 -1.0156  0.2457  0.3129
   49DOPE  C210 6248   1.366   3.670  14.372 -0.3642 -0.3304  0.2214
   49DOPE  H10R 6249   1.395   3.774  14.395 -0.1095 -0.7070  1.6424
   49DOPE  C211 6250   1.443   3.564  14.449  0.1097 -0.0992  0.7108
   49DOPE  H11R 6251   1.534   3.532  14.395  0.4927  1.4782  0.3612
   49DOPE  H11S 6252   1.381   3.474  14.471  0.8328 -0.6511  0.5094
   49DOPE  C212 6253   1.498   3.624  14.580 -0.2315 -0.5360  0.1037
   49DOPE  H12R 6254   1.412   3.641  14.648 -1.5327 -1.0649 -1.3663
   49DOPE  H12S 6255   1.562   3.712  14.554 -1.2339  0.4254  0.7747
   49DOPE  C213 6256   1.594   3.525  14.648  0.7237 -0.1606 -0.3977
   49DOPE  H13R 6257   1.692   3.534  14.596  2.0000  0.4512  1.9614
   49DOPE  H13S 6258   1.570   3.419  14.627  2.3294 -0.4002 -1.1519
   49DOPE  C214 6259   1.618   3.554  14.798  0.6822  0.0282  0.2836
   49DOPE  H14R 6260   1.529   3.550  14.864  0.1910  0.6872 -0.3244
   49DOPE  H14S 6261   1.660   3.656  14.799  0.3616  0.2529 -2.4308
   49DOPE  C215 6262   1.723   3.459  14.844 -0.0385  0.0214 -0.2104
   49DOPE  H15R 6263   1.823   3.480  14.802  1.6884 -1.5550  2.7316
   49DOPE  H15S 6264   1.684   3.358  14.820  0.8352 -0.5697  0.8005
   49DOPE  C216 6265   1.752   3.463  14.994  0.1796 -0.5849 -0.1389
   49DOPE  H16R 6266   1.653   3.429  15.032  0.1218 -0.9137 -0.5748
   49DOPE  H16S 6267   1.777   3.564  15.033  0.5048 -1.4272  2.0018
   49DOPE  C217 6268   1.865   3.366  15.039  0.4416 -0.1231  0.4185
   49DOPE  H17R 6269   1.888   3.389  15.145  0.4680  0.7124  0.2390
   49DOPE  H17S 6270   1.950   3.405  14.980  0.3058  0.1182  0.3796
   49DOPE  C218 6271   1.850   3.212  15.008  0.0217 -0.0390 -0.0736
   49DOPE  H18R 6272   1.933   3.160  15.059  1.4608  0.8876 -1.3572
   49DOPE  H18S 6273   1.861   3.203  14.897 -0.4391  0.8614 -0.2110
   49DOPE  H18T 6274   1.756   3.177  15.055  0.7254  0.4317  1.7451
   49DOPE   C33 6275   1.446   3.123  13.675 -0.1327  0.6982 -0.1093
   49DOPE   H3X 6276   1.511   3.210  13.651 -1.2203  1.1864 -1.3949
   49DOPE   H3Y 6277   1.467   3.049  13.595 -1.0717  1.1654 -0.8091
   49DOPE   C34 6278   1.477   3.063  13.812 -0.1472 -0.1517 -0.0295
   49DOPE   H4X 6279   1.428   2.963  13.809 -1.5653  0.5550 -3.0231
   49DOPE   H4Y 6280   1.585   3.039  13.822  0.1407  0.4947 -1.3831
   49DOPE   C35 6281   1.430   3.148  13.938  0.2142  0.3246 -0.6883
   49DOPE   H5X 6282   1.320   3.152  13.953  0.4181  0.2612  1.0116
   49DOPE   H5Y 6283   1.459   3.254  13.922  1.9712 -0.1221 -0.6745
   49DOPE   C36 6284   1.476   3.094  14.071  0.0951 -0.1633 -0.2641
   49DOPE   H6X 6285   1.587   3.089  14.064  0.3856  2.3672  1.1510
   49DOPE   H6Y 6286   1.437   2.992  14.091 -2.6464  0.6602 -1.0083
   49DOPE   C37 6287   1.433   3.175  14.201  0.0245  0.2183 -0.4146
   49DOPE   H7X 6288   1.469   3.280  14.192 -0.7118  0.6045  0.9739
   49DOPE   H7Y 6289   1.322   3.177  14.204  0.0460  0.1316  0.5054
   49DOPE   C38 6290   1.503   3.125  14.330  0.3075  0.3529  0.0246
   49DOPE   H8X 6291   1.504   3.205  14.408 -0.3696 -0.3579  0.7842
   49DOPE   H8Y 6292   1.605   3.088  14.312 -0.4628 -1.4066 -0.9037
   49DOPE   C39 6293   1.422   3.008  14.381 -0.0138  0.5794  0.1406
   49DOPE   H9X 6294   1.443   2.916  14.325 -1.3729  0.2426  0.1650
   49DOPE  C310 6295   1.347   3.000  14.494 -0.3075 -0.3550  1.0169
   49DOPE  H10X 6296   1.299   2.905  14.521 -0.1528  0.1390  3.1686
   49DOPE  C311 6297   1.315   3.116  14.589  0.4739 -0.2702  0.0516
   49DOPE  H11X 6298   1.295   3.207  14.529  1.0986 -0.5642 -0.6205
   49DOPE  H11Y 6299   1.219   3.091  14.638  0.5204  1.5673  1.1773
   49DOPE  C312 6300   1.416   3.140  14.701 -0.4011 -0.3513  0.5739
   49DOPE  H12X 6301   1.516   3.174  14.667 -0.3333 -1.7860 -0.7695
   49DOPE  H12Y 6302   1.437   3.042  14.750 -1.1689 -0.3309  0.9642
   49DOPE  C313 6303   1.367   3.240  14.805  0.3716  0.3591 -0.3304
   49DOPE  H13X 6304   1.380   3.345  14.774 -1.1075  0.8112  0.4745
   49DOPE  H13Y 6305   1.258   3.217  14.814  0.4632  0.0369 -0.0447
   49DOPE  C314 6306   1.427   3.223  14.951 -0.3916  0.5142  0.0621
   49DOPE  H14X 6307   1.528   3.270  14.946  1.2140 -2.6039  0.5351
   49DOPE  H14Y 6308   1.436   3.113  14.969  0.0523  0.1136 -2.2811
   49DOPE  C315 6309   1.350   3.308  15.057 -0.0571 -0.4351  0.1382
   49DOPE  H15X 6310   1.249   3.263  15.060  0.3418 -1.3123  1.3011
   49DOPE  H15Y 6311   1.341   3.411  15.016  0.8420 -0.8053 -1.0781
   49DOPE  C316 6312   1.402   3.289  15.201 -0.4441 -0.1825 -0.9496
   49DOPE  H16X 6313   1.488   3.360  15.207  0.0236 -0.5763 -2.4972
   49DOPE  H16Y 6314   1.421   3.182  15.227 -3.2834 -0.4833  0.1649
   49DOPE  C317 6315   1.290   3.340  15.296 -0.1526 -0.5194  0.2749
   49DOPE  H17X 6316   1.193   3.295  15.265 -0.5197 -1.1355  2.1878
   49DOPE  H17Y 6317   1.306   3.321  15.405  0.5460  0.7043  0.4017
   49DOPE  C318 6318   1.275   3.496  15.283 -0.3983  0.0253 -0.2058
   49DOPE  H18X 6319   1.227   3.523  15.186  0.3565 -1.7079 -1.1169
   49DOPE  H18Y 6320   1.220   3.542  15.368  0.6626 -0.2835  0.6749
   49DOPE  H18Z 6321   1.376   3.542  15.278 -1.5053  2.6263  0.1018
   50DOPE     N 6322   0.226   2.065  12.912 -0.1531 -0.1672  0.0614
   50DOPE   HN1 6323   0.133   2.020  12.913 -0.6552  0.8416  1.2877
   50DOPE   HN2 6324   0.285   2.027  12.836 -0.0105 -3.8653  1.8193
   50DOPE   HN3 6325   0.279   2.042  12.998  0.6973  0.5507 -0.2428
   50DOPE   C12 6326   0.197   2.214  12.912  0.0245 -0.8511  0.6615
   50DOPE  H12A 6327   0.292   2.263  12.886 -0.9909 -0.3066 -2.3804
   50DOPE  H12B 6328   0.185   2.232  13.021  1.1327  0.1842  0.6318
   50DOPE   C11 6329   0.077   2.259  12.829  0.8425 -0.3515  0.2514
   50DOPE  H11A 6330   0.080   2.222  12.724  0.1655 -3.1534  1.1463
   50DOPE  H11B 6331   0.066   2.370  12.828 -0.0714 -0.4415 -0.0813
   50DOPE     P 6332  -0.124   2.279  12.997  0.2436  0.4666 -0.1305
   50DOPE   O13 6333  -0.181   2.399  12.931 -0.1316  0.0899  0.0941
   50DOPE   O14 6334  -0.051   2.295  13.123 -0.5522 -0.7531 -0.0478
   50DOPE   O11 6335  -0.241   2.179  13.021  0.0220 -0.5028  0.2314
   50DOPE   O12 6336  -0.032   2.205  12.895 -0.2994 -0.2991 -0.2678
   50DOPE    C1 6337  -0.379   2.202  13.032  0.9497  0.6336  0.4079
   50DOPE    HA 6338  -0.435   2.127  12.972  0.1259  0.0350  1.8875
   50DOPE    HB 6339  -0.411   2.295  12.980 -0.4642 -0.6955 -1.1996
   50DOPE    C2 6340  -0.431   2.212  13.177  0.0857  0.2769 -0.4609
   50DOPE    HS 6341  -0.533   2.256  13.174 -0.2504 -0.3727  0.6761
   50DOPE   O21 6342  -0.351   2.296  13.262  0.7146 -0.1039  0.3384
   50DOPE   C21 6343  -0.349   2.429  13.225  0.8016 -0.0166  0.5503
   50DOPE   O22 6344  -0.418   2.478  13.137  0.3526  0.4438  0.1853
   50DOPE   C22 6345  -0.263   2.518  13.315 -0.6206  0.0613 -0.4111
   50DOPE   H2R 6346  -0.238   2.619  13.276  0.2468  0.3679  0.8753
   50DOPE   H2S 6347  -0.164   2.468  13.315 -0.9055 -0.5133  0.1888
   50DOPE    C3 6348  -0.451   2.073  13.244  0.7917 -0.2915  0.2553
   50DOPE    HX 6349  -0.351   2.027  13.264  1.3634  1.1908  0.9503
   50DOPE    HY 6350  -0.500   2.006  13.171  2.6498 -1.8004  0.3027
   50DOPE   O31 6351  -0.529   2.088  13.367  0.1424 -0.5549  0.8518
   50DOPE   C31 6352  -0.449   2.120  13.467  0.1155 -0.6074 -0.6088
   50DOPE   O32 6353  -0.327   2.112  13.466 -0.2206  0.7928 -0.0987
   50DOPE   C32 6354  -0.532   2.177  13.583 -0.0480  0.8249 -0.7566
   50DOPE   H2X 6355  -0.525   2.287  13.572  1.9995  0.7722 -0.3832
   50DOPE   H2Y 6356  -0.638   2.147  13.576 -0.6909  1.5571  3.2700
   50DOPE   C23 6357  -0.311   2.528  13.457  0.0810  0.4725  0.2446
   50DOPE   H3R 6358  -0.389   2.452  13.480 -1.4551  1.8863 -0.0405
   50DOPE   H3S 6359  -0.367   2.624  13.457  2.1186  1.7280 -1.2332
   50DOPE   C24 6360  -0.209   2.536  13.569  0.3385 -0.2163  0.6065
   50DOPE   H4R 6361  -0.138   2.618  13.546  1.1255 -0.8148  0.8364
   50DOPE   H4S 6362  -0.147   2.443  13.563 -2.2449 -2.0106 -0.1678
   50DOPE   C25 6363  -0.269   2.545  13.714 -0.5097 -0.1977  0.0503
   50DOPE   H5R 6364  -0.332   2.455  13.731 -0.3628 -0.6067 -1.3932
   50DOPE   H5S 6365  -0.338   2.632  13.722  0.9164  1.6035 -4.0497
   50DOPE   C26 6366  -0.160   2.549  13.826 -0.1526  0.3884 -1.0343
   50DOPE   H6R 6367  -0.127   2.653  13.848 -0.6939  0.0875  1.4662
   50DOPE   H6S 6368  -0.074   2.492  13.785  1.3595  0.0424  2.3490
   50DOPE   C27 6369  -0.203   2.498  13.963  0.2857 -0.1007 -0.1241
   50DOPE   H7R 6370  -0.230   2.392  13.941  0.2365  0.1454 -1.2824
   50DOPE   H7S 6371  -0.294   2.555  13.991  0.1155  0.4197 -1.6822
   50DOPE   C28 6372  -0.091   2.517  14.064  0.1673 -0.5078 -0.4045
   50DOPE   H8R 6373   0.002   2.468  14.027  1.1349  0.0390  1.1773
   50DOPE   H8S 6374  -0.105   2.452  14.153  2.4605 -0.8664 -0.2323
   50DOPE   C29 6375  -0.059   2.652  14.118  0.1162 -0.3622 -0.3954
   50DOPE   H9R 6376  -0.044   2.729  14.041  1.5711 -1.2520 -1.0380
   50DOPE  C210 6377  -0.038   2.696  14.245  0.4888  0.3154 -0.3787
   50DOPE  H10R 6378   0.005   2.795  14.265  1.1522 -0.2355  1.0626
   50DOPE  C211 6379  -0.057   2.610  14.371  0.4742  0.1753 -0.2000
   50DOPE  H11R 6380   0.030   2.623  14.439  0.3913  2.4260 -0.4552
   50DOPE  H11S 6381  -0.075   2.504  14.343 -1.1438  0.2698  0.3391
   50DOPE  C212 6382  -0.169   2.670  14.465  0.4092 -0.4137 -0.1085
   50DOPE  H12R 6383  -0.267   2.681  14.414 -1.9217 -0.7027  3.8492
   50DOPE  H12S 6384  -0.135   2.774  14.479 -0.2824 -0.1362 -0.4490
   50DOPE  C213 6385  -0.195   2.593  14.597 -0.2787 -0.1727  0.2887
   50DOPE  H13R 6386  -0.215   2.486  14.577 -2.0285 -0.3550  2.6681
   50DOPE  H13S 6387  -0.287   2.628  14.648 -0.9844 -1.7280  0.1370
   50DOPE  C214 6388  -0.079   2.611  14.695 -0.1445  0.3656 -0.7064
   50DOPE  H14R 6389   0.020   2.577  14.658 -0.6143 -0.9865 -0.7768
   50DOPE  H14S 6390  -0.104   2.551  14.785  3.3601  0.7436  0.6982
   50DOPE  C215 6391  -0.078   2.755  14.753 -0.1524  0.2085  0.7219
   50DOPE  H15R 6392  -0.184   2.784  14.768  0.2795  3.0492 -1.0667
   50DOPE  H15S 6393  -0.029   2.822  14.679 -0.5945 -1.5871 -1.2946
   50DOPE  C216 6394  -0.008   2.770  14.884  0.1122  0.6964 -0.6861
   50DOPE  H16R 6395  -0.094   2.767  14.954  0.4756  0.3498 -0.2541
   50DOPE  H16S 6396   0.046   2.867  14.893  0.6391  0.2084  3.3993
   50DOPE  C217 6397   0.101   2.669  14.931 -0.4711  0.3061 -0.3003
   50DOPE  H17R 6398   0.184   2.680  14.858  0.2499 -1.2227  0.2396
   50DOPE  H17S 6399   0.067   2.564  14.915 -2.1693  1.0761 -2.2329
   50DOPE  C218 6400   0.153   2.696  15.068 -0.1062 -0.2098 -0.3269
   50DOPE  H18R 6401   0.202   2.794  15.083  0.6922 -0.6389 -0.1187
   50DOPE  H18S 6402   0.228   2.622  15.103 -0.0987 -0.4572 -0.8420
   50DOPE  H18T 6403   0.070   2.686  15.142  0.8904 -0.6271  0.7590
   50DOPE   C33 6404  -0.474   2.130  13.722 -0.9140 -0.8207  0.3228
   50DOPE   H3X 6405  -0.363   2.132  13.715 -1.0220  0.1510 -1.7866
   50DOPE   H3Y 6406  -0.498   2.021  13.726  0.7903 -1.2955 -1.1099
   50DOPE   C34 6407  -0.521   2.202  13.842 -0.1408 -0.1639 -0.2551
   50DOPE   H4X 6408  -0.509   2.312  13.834  0.6243 -0.0727  1.6294
   50DOPE   H4Y 6409  -0.631   2.194  13.856  0.1255  0.9237  3.9562
   50DOPE   C35 6410  -0.450   2.169  13.972  0.4625  0.2619  0.4250
   50DOPE   H5X 6411  -0.340   2.170  13.957  0.4022  0.8181  0.0113
   50DOPE   H5Y 6412  -0.465   2.060  13.988  2.5491  0.0853  1.5217
   50DOPE   C36 6413  -0.482   2.250  14.097 -0.3392  0.1997  0.2888
   50DOPE   H6X 6414  -0.590   2.279  14.091 -0.2554  0.4050 -0.3541
   50DOPE   H6Y 6415  -0.434   2.348  14.077  3.7043 -1.6029  0.2380
   50DOPE   C37 6416  -0.434   2.187  14.228  0.0061 -0.6621 -0.1796
   50DOPE   H7X 6417  -0.480   2.087  14.242 -1.2748  0.0832  1.2302
   50DOPE   H7Y 6418  -0.326   2.174  14.206 -0.1775  0.3922 -1.9608
   50DOPE   C38 6419  -0.449   2.273  14.355 -0.8079 -0.3206  0.5499
   50DOPE   H8X 6420  -0.553   2.311  14.368 -0.0340  2.4902 -0.6625
   50DOPE   H8Y 6421  -0.394   2.366  14.328 -4.6270  2.7329  2.3249
   50DOPE   C39 6422  -0.386   2.216  14.481 -1.1220 -0.3712  0.8107
   50DOPE   H9X 6423  -0.293   2.162  14.459 -0.9604 -0.1712  1.0049
   50DOPE  C310 6424  -0.424   2.221  14.608  0.7534  0.1935  0.4060
   50DOPE  H10X 6425  -0.354   2.189  14.686  0.9289  1.0043  0.5877
   50DOPE  C311 6426  -0.546   2.280  14.657  0.6214  0.4921  0.2748
   50DOPE  H11X 6427  -0.616   2.297  14.572  2.3373 -0.3007 -1.3391
   50DOPE  H11Y 6428  -0.602   2.203  14.714  0.3817  0.3953 -0.0863
   50DOPE  C312 6429  -0.535   2.403  14.743  0.1822  0.5447  0.3674
   50DOPE  H12X 6430  -0.638   2.444  14.734 -0.9276 -2.4498 -3.3426
   50DOPE  H12Y 6431  -0.477   2.480  14.687 -0.3075  0.6544 -0.0025
   50DOPE  C313 6432  -0.464   2.385  14.882 -0.3948 -0.1352  0.0406
   50DOPE  H13X 6433  -0.519   2.314  14.948 -0.5271 -1.5414 -1.5104
   50DOPE  H13Y 6434  -0.361   2.350  14.861 -0.7205 -0.9794 -0.2059
   50DOPE  C314 6435  -0.453   2.528  14.940 -0.2642  0.0814  0.0510
   50DOPE  H14X 6436  -0.552   2.548  14.987 -0.6862  2.6959 -1.7829
   50DOPE  H14Y 6437  -0.439   2.608  14.865  0.6059  2.4749  2.5830
   50DOPE  C315 6438  -0.333   2.544  15.033  0.2721  1.2891 -0.4107
   50DOPE  H15X 6439  -0.292   2.644  15.008  1.5463  0.7647 -0.4609
   50DOPE  H15Y 6440  -0.255   2.471  15.002 -0.9738  0.1914 -1.0941
   50DOPE  C316 6441  -0.369   2.527  15.182 -1.0560  0.3294 -0.3550
   50DOPE  H16X 6442  -0.391   2.421  15.208 -1.7267  0.9575  1.8468
   50DOPE  H16Y 6443  -0.467   2.567  15.215 -0.3730  0.3482  1.7609
   50DOPE  C317 6444  -0.261   2.586  15.275  0.9163 -0.1032  0.8436
   50DOPE  H17X 6445  -0.161   2.546  15.246  0.7167  0.8348 -1.3457
   50DOPE  H17Y 6446  -0.258   2.697  15.263 -0.7787 -0.0018  1.1392
   50DOPE  C318 6447  -0.291   2.571  15.423 -0.6959  0.7395  0.8284
   50DOPE  H18X 6448  -0.232   2.642  15.485 -0.3843  0.5357  0.7653
   50DOPE  H18Y 6449  -0.399   2.597  15.430 -0.7902  0.7257 -0.3071
   50DOPE  H18Z 6450  -0.276   2.466  15.454 -1.1432  0.6726  0.8345
   51DOPE     N 6451   1.541   2.934  12.743 -0.1282  0.7120  0.5244
   51DOPE   HN1 6452   1.470   2.906  12.673 -1.6442  0.9612  1.8888
   51DOPE   HN2 6453   1.541   3.038  12.751  0.1871  0.6719  1.1863
   51DOPE   HN3 6454   1.632   2.896  12.711  0.8552  0.2989  3.4503
   51DOPE   C12 6455   1.494   2.879  12.873 -0.3231 -0.0125 -0.4472
   51DOPE  H12A 6456   1.486   2.768  12.867  1.9661 -0.1941 -1.3109
   51DOPE  H12B 6457   1.399   2.926  12.905  0.7320  1.0834  1.2310
   51DOPE   C11 6458   1.599   2.906  12.983  0.1490 -0.5268  0.0010
   51DOPE  H11A 6459   1.612   3.015  12.994  0.1474 -0.6203  1.0158
   51DOPE  H11B 6460   1.688   2.851  12.945  1.2688  0.6183  0.9063
   51DOPE     P 6461   1.623   2.710  13.158 -0.1006  0.0955 -0.1323
   51DOPE   O13 6462   1.576   2.603  13.065  0.8566 -0.1336 -0.1902
   51DOPE   O14 6463   1.590   2.692  13.302  0.1591 -0.3198 -0.2448
   51DOPE   O11 6464   1.777   2.732  13.144 -0.1564 -0.7295  0.3849
   51DOPE   O12 6465   1.567   2.854  13.111  0.3119  0.7416 -0.1865
   51DOPE    C1 6466   1.854   2.836  13.193 -0.4889 -0.4200  0.5342
   51DOPE    HA 6467   1.806   2.936  13.184  0.1990 -0.1623 -0.5002
   51DOPE    HB 6468   1.947   2.839  13.132 -1.1495  2.4744 -0.5065
   51DOPE    C2 6469   1.897   2.805  13.343 -0.0727  0.7516  0.0705
   51DOPE    HS 6470   1.916   2.696  13.350  1.5709  1.0336  0.6778
   51DOPE   O21 6471   1.789   2.841  13.432 -0.0043  0.5786 -0.3831
   51DOPE   C21 6472   1.787   2.768  13.545 -0.1428  0.4197  0.1401
   51DOPE   O22 6473   1.866   2.680  13.570  0.0672  0.2572  0.1975
   51DOPE   C22 6474   1.665   2.810  13.635 -0.6919  0.3526  0.2203
   51DOPE   H2R 6475   1.566   2.778  13.597 -1.2754 -0.0412  1.9845
   51DOPE   H2S 6476   1.670   2.921  13.639  0.0080  0.3895 -1.1182
   51DOPE    C3 6477   2.025   2.887  13.383 -0.1419 -0.5659  0.4412
   51DOPE    HX 6478   1.992   2.988  13.349  0.3450 -0.1696  1.1293
   51DOPE    HY 6479   2.116   2.868  13.323  0.0785 -1.2015  0.9770
   51DOPE   O31 6480   2.055   2.890  13.523 -0.2544 -0.5347  0.5869
   51DOPE   C31 6481   2.128   2.782  13.559  0.0283 -0.1962  0.2629
   51DOPE   O32 6482   2.174   2.705  13.479 -0.4703 -0.2267 -0.4603
   51DOPE   C32 6483   2.135   2.776  13.713  0.3583 -0.3971  0.3463
   51DOPE   H2X 6484   2.092   2.869  13.754 -0.7799 -0.3079 -0.9791
   51DOPE   H2Y 6485   2.076   2.691  13.755  1.3415 -0.0696  2.5307
   51DOPE   C23 6486   1.666   2.753  13.778 -0.3256  0.6568 -0.7968
   51DOPE   H3R 6487   1.684   2.643  13.780 -0.6420  0.6032 -0.7777
   51DOPE   H3S 6488   1.573   2.769  13.837  0.1516 -0.4422  0.3162
   51DOPE   C24 6489   1.776   2.805  13.875  0.2632  0.5057 -0.1875
   51DOPE   H4R 6490   1.739   2.909  13.893 -0.3854  0.4434 -1.1326
   51DOPE   H4S 6491   1.874   2.796  13.824  1.1110 -1.1329  1.5862
   51DOPE   C25 6492   1.787   2.736  14.015  0.4862 -0.0377  0.1323
   51DOPE   H5R 6493   1.793   2.626  14.002 -2.7331 -0.3458  0.4710
   51DOPE   H5S 6494   1.696   2.754  14.075  0.5079  2.5787 -0.5229
   51DOPE   C26 6495   1.913   2.784  14.083 -0.6059  0.0343 -0.5238
   51DOPE   H6R 6496   1.901   2.893  14.096  0.1891  0.3003 -1.7924
   51DOPE   H6S 6497   2.002   2.761  14.020 -1.5362 -0.7000 -1.6380
   51DOPE   C27 6498   1.950   2.723  14.217  0.2358 -0.8036  0.2418
   51DOPE   H7R 6499   2.059   2.741  14.230 -0.0215  0.0911  1.3804
   51DOPE   H7S 6500   1.939   2.613  14.208 -4.0297 -0.3826 -2.1189
   51DOPE   C28 6501   1.870   2.782  14.336  0.1815 -0.6762 -0.5649
   51DOPE   H8R 6502   1.760   2.767  14.327 -0.1370  2.0936 -2.6066
   51DOPE   H8S 6503   1.884   2.892  14.334  0.8423 -0.7573 -0.6131
   51DOPE   C29 6504   1.901   2.719  14.472 -0.1577  0.3055  0.0099
   51DOPE   H9R 6505   1.923   2.612  14.465 -2.6462 -0.2961  0.7618
   51DOPE  C210 6506   1.911   2.778  14.588  0.1546  0.4518 -0.5432
   51DOPE  H10R 6507   1.944   2.711  14.668 -0.6537  1.2424  0.4692
   51DOPE  C211 6508   1.871   2.915  14.633 -0.5869 -0.9956  0.1242
   51DOPE  H11R 6509   1.853   2.972  14.539 -0.2321 -1.3571 -0.1686
   51DOPE  H11S 6510   1.965   2.960  14.673 -1.6074 -0.3431  1.8591
   51DOPE  C212 6511   1.765   2.927  14.739 -1.3604 -0.6989  0.6145
   51DOPE  H12R 6512   1.667   2.889  14.703 -0.5880 -1.3668 -0.8746
   51DOPE  H12S 6513   1.755   3.035  14.764  3.4414 -0.0388  0.5716
   51DOPE  C213 6514   1.810   2.860  14.874 -0.1147  0.3024 -0.0493
   51DOPE  H13R 6515   1.901   2.912  14.913  0.3439 -0.7390  0.2968
   51DOPE  H13S 6516   1.843   2.755  14.859  1.5464  0.6219  1.0563
   51DOPE  C214 6517   1.684   2.862  14.969 -0.9878 -0.3251 -0.7320
   51DOPE  H14R 6518   1.624   2.774  14.936 -0.9488 -0.0460 -1.5789
   51DOPE  H14S 6519   1.622   2.953  14.951  1.8580  2.2835  1.5928
   51DOPE  C215 6520   1.714   2.853  15.123  0.2532 -1.2564  1.0803
   51DOPE  H15R 6521   1.787   2.933  15.148 -1.3103  0.6924 -0.2135
   51DOPE  H15S 6522   1.741   2.748  15.146 -1.5759 -2.5565 -2.0716
   51DOPE  C216 6523   1.592   2.893  15.203  0.0883  0.1386  0.2921
   51DOPE  H16R 6524   1.502   2.837  15.170  0.6960  0.5962 -2.3995
   51DOPE  H16S 6525   1.573   3.001  15.182 -1.4196  0.3078  2.2029
   51DOPE  C217 6526   1.608   2.882  15.361  0.3244  0.3437  0.1982
   51DOPE  H17R 6527   1.507   2.911  15.397 -0.4804 -2.2841  0.2714
   51DOPE  H17S 6528   1.687   2.958  15.379  2.9712 -2.3227  0.5464
   51DOPE  C218 6529   1.644   2.743  15.419  0.4029 -0.2339  0.7113
   51DOPE  H18R 6530   1.731   2.701  15.364  1.3774  2.5671 -0.1174
   51DOPE  H18S 6531   1.562   2.668  15.415  0.7841 -0.9463  3.8891
   51DOPE  H18T 6532   1.676   2.755  15.524  0.7127 -0.8708  0.6941
   51DOPE   C33 6533   2.275   2.748  13.772 -0.3436 -0.0597  0.0873
   51DOPE   H3X 6534   2.334   2.836  13.737  0.7109 -0.4652  0.8014
   51DOPE   H3Y 6535   2.315   2.653  13.729  0.9913  0.3867  0.2751
   51DOPE   C34 6536   2.265   2.735  13.922  0.2161  0.0640 -0.0515
   51DOPE   H4X 6537   2.198   2.811  13.966 -1.0105 -1.7334  1.3086
   51DOPE   H4Y 6538   2.207   2.641  13.934  1.0907 -0.4192  0.5345
   51DOPE   C35 6539   2.402   2.741  13.992 -0.0414 -0.3517  0.0778
   51DOPE   H5X 6540   2.461   2.833  13.971 -1.3750  0.7981  1.2127
   51DOPE   H5Y 6541   2.462   2.650  13.969  1.2852 -0.0497  2.0626
   51DOPE   C36 6542   2.384   2.749  14.147  0.1417  0.3833 -0.7332
   51DOPE   H6X 6543   2.303   2.819  14.180 -0.4969 -0.8167  0.3366
   51DOPE   H6Y 6544   2.479   2.782  14.194 -0.3284  1.1257 -0.2794
   51DOPE   C37 6545   2.362   2.607  14.203  0.4721  0.7602 -0.4847
   51DOPE   H7X 6546   2.266   2.564  14.166  0.8285 -0.1227 -0.4093
   51DOPE   H7Y 6547   2.444   2.539  14.171 -0.5059 -0.9873  0.5453
   51DOPE   C38 6548   2.347   2.596  14.362  0.1611 -0.2994  0.2342
   51DOPE   H8X 6549   2.331   2.489  14.387  1.4022 -0.1862  1.6645
   51DOPE   H8Y 6550   2.250   2.642  14.388 -0.8441 -1.7271 -0.8424
   51DOPE   C39 6551   2.478   2.627  14.442  0.3051 -0.4266 -0.3298
   51DOPE   H9X 6552   2.564   2.559  14.429 -0.3884 -1.1255 -1.4727
   51DOPE  C310 6553   2.485   2.739  14.515  0.6200  0.0359  0.0209
   51DOPE  H10X 6554   2.582   2.766  14.559  0.9115 -1.0305  0.0619
   51DOPE  C311 6555   2.389   2.852  14.538 -0.2428 -0.6495 -0.5211
   51DOPE  H11X 6556   2.437   2.952  14.536 -1.9000  0.1925 -0.1137
   51DOPE  H11Y 6557   2.314   2.846  14.456  0.9814 -2.4972 -1.5673
   51DOPE  C312 6558   2.322   2.830  14.676 -0.3417  0.4154  0.6951
   51DOPE  H12X 6559   2.267   2.734  14.679  2.2177 -1.3043 -2.0289
   51DOPE  H12Y 6560   2.248   2.913  14.686  1.2354  1.9684  0.0362
   51DOPE  C313 6561   2.416   2.845  14.800  0.7577 -0.2174 -0.0035
   51DOPE  H13X 6562   2.499   2.772  14.788 -1.6317 -2.9128 -1.5439
   51DOPE  H13Y 6563   2.447   2.951  14.797  0.1998 -0.0578 -2.9963
   51DOPE  C314 6564   2.332   2.810  14.921  0.2912 -0.2646  0.0601
   51DOPE  H14X 6565   2.268   2.722  14.902 -1.2049  0.4668  1.4724
   51DOPE  H14Y 6566   2.254   2.888  14.936  0.4552  0.4435 -2.4157
   51DOPE  C315 6567   2.427   2.779  15.042 -0.4347 -0.2453 -0.4854
   51DOPE  H15X 6568   2.481   2.685  15.017  0.7888  0.5351 -0.8544
   51DOPE  H15Y 6569   2.354   2.763  15.124  0.8884 -1.6630  0.4781
   51DOPE  C316 6570   2.514   2.897  15.091  0.3854 -0.6304 -0.2716
   51DOPE  H16X 6571   2.537   2.883  15.199 -0.7644  1.8185  0.3610
   51DOPE  H16Y 6572   2.449   2.988  15.092 -2.0220 -2.1882 -2.2573
   51DOPE  C317 6573   2.643   2.917  15.017 -0.0092  0.4343  0.1410
   51DOPE  H17X 6574   2.683   2.817  14.990 -0.4693 -0.2683  1.9109
   51DOPE  H17Y 6575   2.624   2.969  14.921  0.1772  0.2351 -0.0044
   51DOPE  C318 6576   2.749   2.972  15.112 -0.2750 -0.1148  0.2116
   51DOPE  H18X 6577   2.708   3.069  15.147 -0.9634  1.0444 -3.4491
   51DOPE  H18Y 6578   2.760   2.921  15.210  3.3725  1.0709  0.5498
   51DOPE  H18Z 6579   2.846   2.994  15.064 -0.9094 -2.1011 -2.1787
   52DOPE     N 6580   6.527   2.132  13.326  0.1386 -0.0388 -0.2044
   52DOPE   HN1 6581   6.594   2.189  13.383 -1.0110  0.3726  0.7770
   52DOPE   HN2 6582   6.515   2.184  13.237 -1.4423  0.4108  0.2386
   52DOPE   HN3 6583   6.430   2.127  13.364  0.1848 -0.4337 -0.1389
   52DOPE   C12 6584   6.573   1.994  13.302 -0.2470  0.5945 -0.2315
   52DOPE  H12A 6585   6.497   1.937  13.244 -1.3751  1.5076  0.3039
   52DOPE  H12B 6586   6.590   1.938  13.397  0.9987 -1.2137 -1.4616
   52DOPE   C11 6587   6.712   1.983  13.233 -0.1954  0.5233 -0.2960
   52DOPE  H11A 6588   6.703   2.038  13.137  2.4463  0.1491 -0.8646
   52DOPE  H11B 6589   6.725   1.874  13.213  3.9083  0.4719  1.5326
   52DOPE     P 6590   6.969   2.004  13.272 -0.1337 -0.0144  0.2176
   52DOPE   O13 6591   7.056   2.124  13.293 -0.4337  0.1923 -0.2815
   52DOPE   O14 6592   6.968   1.954  13.127 -0.0755 -0.3517 -0.3406
   52DOPE   O11 6593   7.006   1.882  13.366 -0.0586 -0.5237  0.2817
   52DOPE   O12 6594   6.820   2.037  13.306  0.4651  0.8221  0.3182
   52DOPE    C1 6595   6.978   1.887  13.506  0.5320  0.4339  0.2845
   52DOPE    HA 6596   6.869   1.872  13.523  0.4005  0.7439 -0.2898
   52DOPE    HB 6597   7.024   1.971  13.563 -0.9498  2.7715 -1.8102
   52DOPE    C2 6598   7.022   1.747  13.561 -0.0067 -0.6792  0.0949
   52DOPE    HS 6599   7.128   1.751  13.527 -0.3051  1.6516 -0.6856
   52DOPE   O21 6600   6.958   1.635  13.493 -0.5660  0.2462  0.0593
   52DOPE   C21 6601   7.018   1.512  13.505 -0.0907  0.2940 -0.7463
   52DOPE   O22 6602   7.123   1.487  13.561 -0.6496 -0.0721  0.0797
   52DOPE   C22 6603   6.946   1.404  13.433  0.0308  0.3765  0.3457
   52DOPE   H2R 6604   7.012   1.375  13.348  1.0559  1.9044  0.5808
   52DOPE   H2S 6605   6.852   1.443  13.389  1.0077 -0.6634 -2.9656
   52DOPE    C3 6606   7.013   1.740  13.715  0.1570  1.0466  0.1090
   52DOPE    HX 6607   7.057   1.643  13.746  2.1408  1.6302 -0.7054
   52DOPE    HY 6608   6.903   1.736  13.730 -0.0460 -1.4265 -1.5553
   52DOPE   O31 6609   7.075   1.846  13.789  0.4107  0.3620  0.0927
   52DOPE   C31 6610   7.062   1.817  13.925 -0.7432  0.1738  0.8582
   52DOPE   O32 6611   7.001   1.719  13.962 -0.1735  0.3818  0.2638
   52DOPE   C32 6612   7.130   1.926  14.016  0.1281 -0.0130  0.7656
   52DOPE   H2X 6613   7.220   1.964  13.963  0.6869 -0.3863  1.4153
   52DOPE   H2Y 6614   7.059   2.011  14.018 -0.1467 -0.2148 -0.1896
   52DOPE   C23 6615   6.906   1.285  13.526  0.4069  0.2701  0.3123
   52DOPE   H3R 6616   6.837   1.233  13.455  1.0445 -0.2803  0.0856
   52DOPE   H3S 6617   6.844   1.312  13.614  0.7977  0.8751  0.4058
   52DOPE   C24 6618   7.024   1.199  13.581 -0.5523 -0.4013 -0.6689
   52DOPE   H4R 6619   7.117   1.246  13.621 -0.0994 -0.0710 -2.0410
   52DOPE   H4S 6620   7.052   1.142  13.490 -1.3998 -2.0356  0.0588
   52DOPE   C25 6621   6.981   1.108  13.700 -0.9750  0.1190 -0.1734
   52DOPE   H5R 6622   6.884   1.056  13.681 -0.7128  0.1045 -1.5409
   52DOPE   H5S 6623   6.958   1.177  13.784 -1.3995  0.7165 -0.7747
   52DOPE   C26 6624   7.095   1.002  13.747 -0.2230 -0.5981 -0.1242
   52DOPE   H6R 6625   7.186   1.057  13.779 -0.6788 -1.2513  2.4644
   52DOPE   H6S 6626   7.122   0.928  13.669  0.3319 -2.6480  1.9038
   52DOPE   C27 6627   7.058   0.921  13.870  0.3917  0.4620 -0.6574
   52DOPE   H7R 6628   6.975   0.854  13.840  0.4308  0.5475 -0.9697
   52DOPE   H7S 6629   7.025   0.988  13.952 -1.0221 -1.1964  0.1883
   52DOPE   C28 6630   7.168   0.814  13.908  0.3443 -0.2624 -0.3727
   52DOPE   H8R 6631   7.192   0.741  13.827 -2.7683 -0.6483 -1.0859
   52DOPE   H8S 6632   7.128   0.762  13.998  2.4028 -0.8431  0.2474
   52DOPE   C29 6633   7.296   0.875  13.953 -0.2470 -0.1354 -0.3425
   52DOPE   H9R 6634   7.351   0.919  13.868  1.2476  0.3765  0.8434
   52DOPE  C210 6635   7.353   0.870  14.073 -0.2632 -1.2317 -0.1686
   52DOPE  H10R 6636   7.460   0.894  14.084 -0.7236  0.5822  0.7203
   52DOPE  C211 6637   7.294   0.819  14.212 -0.2794 -0.4618  0.5653
   52DOPE  H11R 6638   7.333   0.715  14.222  1.1394 -0.0898 -0.6701
   52DOPE  H11S 6639   7.184   0.808  14.205 -0.0719 -3.1035  0.0875
   52DOPE  C212 6640   7.334   0.889  14.339  0.4694 -0.1506  0.2187
   52DOPE  H12R 6641   7.303   0.996  14.337  2.4855  0.4752 -0.1663
   52DOPE  H12S 6642   7.445   0.883  14.345  0.6429  0.6862 -1.4103
   52DOPE  C213 6643   7.269   0.815  14.454 -0.4174  0.0763 -0.6217
   52DOPE  H13R 6644   7.308   0.712  14.461 -0.4863 -0.0695 -2.1098
   52DOPE  H13S 6645   7.160   0.808  14.431 -0.9875 -2.8098  2.2574
   52DOPE  C214 6646   7.292   0.883  14.591  0.3359  0.7053 -0.1603
   52DOPE  H14R 6647   7.241   0.982  14.596 -1.0082  0.0182  0.1854
   52DOPE  H14S 6648   7.398   0.911  14.611  1.2474 -1.4667 -1.6306
   52DOPE  C215 6649   7.234   0.800  14.699 -0.4532  0.8442  0.0823
   52DOPE  H15R 6650   7.299   0.711  14.713 -1.7529 -0.4388 -1.5490
   52DOPE  H15S 6651   7.149   0.747  14.650  2.6157 -3.8090 -0.9600
   52DOPE  C216 6652   7.203   0.884  14.816 -0.1630 -0.0376 -0.8277
   52DOPE  H16R 6653   7.094   0.907  14.816  0.2225  2.4116 -3.8674
   52DOPE  H16S 6654   7.256   0.981  14.808  0.5155 -0.3881 -0.6157
   52DOPE  C217 6655   7.259   0.828  14.946  0.3747 -0.5801 -0.2580
   52DOPE  H17R 6656   7.369   0.817  14.936  0.6088  0.5067  0.7760
   52DOPE  H17S 6657   7.211   0.732  14.972  1.0744 -0.1470  3.2204
   52DOPE  C218 6658   7.240   0.929  15.056  0.4880  0.3242 -0.4148
   52DOPE  H18R 6659   7.251   1.028  15.007 -0.6734  0.6620 -0.0178
   52DOPE  H18S 6660   7.131   0.934  15.078  0.7256  1.8895  0.5552
   52DOPE  H18T 6661   7.298   0.910  15.148  0.1422 -0.5583 -0.3685
   52DOPE   C33 6662   7.160   1.861  14.147  0.3147  0.0182  0.3446
   52DOPE   H3X 6663   7.216   1.767  14.131  0.3848 -0.0034  0.6972
   52DOPE   H3Y 6664   7.071   1.824  14.202 -1.2531  0.7370 -1.5973
   52DOPE   C34 6665   7.241   1.943  14.245  0.1556 -0.0861 -0.1809
   52DOPE   H4X 6666   7.335   1.977  14.197 -0.0572  3.0485  1.3529
   52DOPE   H4Y 6667   7.178   2.034  14.261  1.5659  0.9381 -0.2868
   52DOPE   C35 6668   7.274   1.881  14.378  0.3450  0.2427  0.9518
   52DOPE   H5X 6669   7.357   1.931  14.432  3.3014 -1.5538 -1.5760
   52DOPE   H5Y 6670   7.300   1.775  14.356 -1.8638 -0.1437 -0.0082
   52DOPE   C36 6671   7.160   1.860  14.476  0.5693  0.2943 -0.1969
   52DOPE   H6X 6672   7.085   1.787  14.438 -0.3996  1.4008 -0.4549
   52DOPE   H6Y 6673   7.113   1.959  14.496  0.4544  0.2438 -0.2112
   52DOPE   C37 6674   7.202   1.791  14.602  0.7812  0.3541 -0.1647
   52DOPE   H7X 6675   7.268   1.707  14.569  0.1830  0.1695 -0.9333
   52DOPE   H7Y 6676   7.258   1.863  14.665  0.0571 -1.0872  2.2582
   52DOPE   C38 6677   7.086   1.746  14.691  0.2852 -0.2546 -0.1592
   52DOPE   H8X 6678   7.133   1.694  14.777  1.1315 -3.2482 -2.2483
   52DOPE   H8Y 6679   7.026   1.665  14.643  0.0760 -1.4991  2.0826
   52DOPE   C39 6680   6.992   1.863  14.726  0.0622  1.2081 -0.3732
   52DOPE   H9X 6681   6.895   1.872  14.676 -0.3678 -1.2955 -0.1326
   52DOPE  C310 6682   7.011   1.947  14.828 -0.0380 -0.0695  0.1894
   52DOPE  H10X 6683   6.933   2.022  14.851  1.2171  0.9325  1.3285
   52DOPE  C311 6684   7.137   1.970  14.911  0.0798 -0.8447  0.8130
   52DOPE  H11X 6685   7.216   1.906  14.867 -0.3906 -0.4666 -0.6241
   52DOPE  H11Y 6686   7.175   2.075  14.910 -1.5002 -0.2329  1.3294
   52DOPE  C312 6687   7.139   1.930  15.062 -0.0307  0.2890  0.5128
   52DOPE  H12X 6688   7.235   1.944  15.115 -0.2032 -0.1811  0.9567
   52DOPE  H12Y 6689   7.129   1.819  15.057 -0.5263  0.3600 -0.4400
   52DOPE  C313 6690   7.044   2.013  15.145 -0.4155  0.2442 -0.2483
   52DOPE  H13X 6691   7.072   2.121  15.144  1.5281 -0.2165 -1.5533
   52DOPE  H13Y 6692   6.947   2.005  15.091 -2.0300  0.7390  2.4169
   52DOPE  C314 6693   7.016   1.958  15.291 -0.1428 -0.4561 -0.1799
   52DOPE  H14X 6694   6.997   1.851  15.266 -0.9980 -0.5096  0.6529
   52DOPE  H14Y 6695   6.931   2.011  15.338 -0.1922 -1.5026  0.9565
   52DOPE  C315 6696   7.130   1.940  15.393 -0.5388 -0.3897 -0.2743
   52DOPE  H15X 6697   7.080   1.924  15.490  0.5050  1.0692  0.5422
   52DOPE  H15Y 6698   7.193   2.031  15.395 -0.9581 -0.0702 -1.0880
   52DOPE  C316 6699   7.221   1.810  15.361  0.3244 -0.3199  0.0821
   52DOPE  H16X 6700   7.237   1.788  15.253  1.5981 -0.5987  0.3081
   52DOPE  H16Y 6701   7.169   1.717  15.393 -0.0624  0.3944  1.6080
   52DOPE  C317 6702   7.356   1.816  15.425 -0.1504  0.6264  0.2923
   52DOPE  H17X 6703   7.341   1.840  15.532  1.1180 -1.3116  0.9533
   52DOPE  H17Y 6704   7.405   1.716  15.420  0.7052  0.9465  1.7504
   52DOPE  C318 6705   7.458   1.926  15.375 -0.8967  0.6082 -0.5136
   52DOPE  H18X 6706   7.418   2.027  15.399  1.1438  1.9494 -2.3519
   52DOPE  H18Y 6707   7.558   1.904  15.417  0.1158 -0.1342 -3.0935
   52DOPE  H18Z 6708   7.475   1.922  15.265 -2.0238  0.5265 -0.7001
   53DOPE     N 6709   4.551   3.060  12.263  0.1441 -1.2124  0.5765
   53DOPE   HN1 6710   4.523   2.960  12.267 -1.4675 -0.7466  2.0066
   53DOPE   HN2 6711   4.466   3.109  12.229  0.0329 -1.1895  0.8898
   53DOPE   HN3 6712   4.617   3.091  12.189 -0.9142  1.9997  0.8432
   53DOPE   C12 6713   4.573   3.102  12.407 -0.3506 -0.0025  0.3130
   53DOPE  H12A 6714   4.642   3.031  12.457 -0.2141 -0.0015  0.1289
   53DOPE  H12B 6715   4.479   3.103  12.465  0.7109  2.4636  2.1654
   53DOPE   C11 6716   4.628   3.242  12.413 -0.6244  0.4629 -0.4200
   53DOPE  H11A 6717   4.737   3.233  12.394 -0.5686  0.2850 -0.0328
   53DOPE  H11B 6718   4.609   3.275  12.518  1.2627  1.9267 -0.4747
   53DOPE     P 6719   4.580   3.483  12.350  0.1203 -0.2031  0.3548
   53DOPE   O13 6720   4.499   3.562  12.252  0.2105  0.5418 -0.2056
   53DOPE   O14 6721   4.725   3.507  12.328 -0.1404 -0.2016 -0.5892
   53DOPE   O11 6722   4.540   3.502  12.502  0.3402  0.2426  0.0434
   53DOPE   O12 6723   4.559   3.330  12.326  0.1788 -0.4168 -0.1033
   53DOPE    C1 6724   4.399   3.488  12.530  0.4731  0.1736  0.2750
   53DOPE    HA 6725   4.370   3.390  12.487  2.0667 -0.0332 -0.3921
   53DOPE    HB 6726   4.342   3.571  12.482 -0.7328 -0.1964  1.0016
   53DOPE    C2 6727   4.361   3.489  12.679  0.4702 -0.2762 -0.3091
   53DOPE    HS 6728   4.251   3.499  12.678  0.5016  0.4035  0.8063
   53DOPE   O21 6729   4.435   3.594  12.744 -0.3409 -0.2607 -0.0482
   53DOPE   C21 6730   4.371   3.651  12.844  0.0893  0.2722 -0.0576
   53DOPE   O22 6731   4.255   3.622  12.873 -0.2213 -0.0697 -0.2831
   53DOPE   C22 6732   4.454   3.751  12.914  0.3396 -0.1878 -0.1167
   53DOPE   H2R 6733   4.484   3.825  12.837  3.0581 -0.1198  0.8964
   53DOPE   H2S 6734   4.538   3.696  12.960  1.4481  1.7205  0.2626
   53DOPE    C3 6735   4.394   3.355  12.748 -0.9832  0.0454  0.3928
   53DOPE    HX 6736   4.501   3.332  12.729 -0.7164  1.9472 -0.6624
   53DOPE    HY 6737   4.342   3.272  12.696  1.4014 -0.7160 -0.9199
   53DOPE   O31 6738   4.376   3.358  12.892 -0.6207  0.5282 -0.4680
   53DOPE   C31 6739   4.257   3.327  12.934  0.0053 -0.3196 -0.2981
   53DOPE   O32 6740   4.168   3.287  12.863  0.3474  0.3309  0.3968
   53DOPE   C32 6741   4.234   3.345  13.086 -0.5135  0.1101 -0.4669
   53DOPE   H2X 6742   4.331   3.351  13.139 -0.1406  0.7093 -1.2044
   53DOPE   H2Y 6743   4.199   3.450  13.095 -1.3165 -0.0252 -1.8128
   53DOPE   C23 6744   4.370   3.808  13.034 -0.3468  0.1334  0.4136
   53DOPE   H3R 6745   4.266   3.829  12.998  0.3258 -0.5308 -2.1532
   53DOPE   H3S 6746   4.416   3.907  13.056  2.4537 -0.8967 -0.4322
   53DOPE   C24 6747   4.381   3.718  13.157  0.3634 -0.1853 -0.9256
   53DOPE   H4R 6748   4.483   3.685  13.187  0.9172  0.0840 -2.4117
   53DOPE   H4S 6749   4.330   3.623  13.129 -0.3608  0.5549 -2.2706
   53DOPE   C25 6750   4.309   3.786  13.272  0.2347  0.5275 -1.0138
   53DOPE   H5R 6751   4.209   3.826  13.246 -1.2912 -0.6335  2.3834
   53DOPE   H5S 6752   4.368   3.873  13.308  0.2057  0.0420  0.2571
   53DOPE   C26 6753   4.276   3.683  13.389  0.0683 -0.4001  0.0955
   53DOPE   H6R 6754   4.235   3.594  13.335 -0.8896 -0.9829  1.7216
   53DOPE   H6S 6755   4.198   3.730  13.452  2.5141  2.4271  1.2276
   53DOPE   C27 6756   4.391   3.644  13.485  0.5098 -0.1307 -0.5590
   53DOPE   H7R 6757   4.445   3.737  13.515  2.1846 -1.2374 -0.0176
   53DOPE   H7S 6758   4.463   3.590  13.420 -0.4770 -1.1282 -0.8567
   53DOPE   C28 6759   4.331   3.557  13.597 -0.4008 -0.2709  0.8447
   53DOPE   H8R 6760   4.420   3.505  13.638  0.2063  0.6833  0.7753
   53DOPE   H8S 6761   4.261   3.489  13.543 -1.0908  3.0643 -2.9302
   53DOPE   C29 6762   4.258   3.626  13.706 -0.1405  0.1810  0.2115
   53DOPE   H9R 6763   4.186   3.705  13.683 -2.2011 -1.4224  0.7868
   53DOPE  C210 6764   4.275   3.610  13.838  0.3447  0.2324  0.6128
   53DOPE  H10R 6765   4.219   3.683  13.898  0.2182  0.7588 -0.1281
   53DOPE  C211 6766   4.372   3.518  13.903  0.2986 -0.0919  0.3969
   53DOPE  H11R 6767   4.410   3.435  13.841  2.2482  0.5499  0.6611
   53DOPE  H11S 6768   4.316   3.457  13.977  0.3501 -2.8732 -1.7153
   53DOPE  C212 6769   4.494   3.587  13.971  0.7416  0.7561 -0.3834
   53DOPE  H12R 6770   4.482   3.690  14.012  2.0579  0.8518 -0.1884
   53DOPE  H12S 6771   4.568   3.586  13.888 -0.9524 -0.5561 -1.9473
   53DOPE  C213 6772   4.546   3.502  14.090  0.8625  0.1755 -1.3954
   53DOPE  H13R 6773   4.642   3.547  14.124  0.5927  0.6649 -1.2698
   53DOPE  H13S 6774   4.557   3.395  14.063  0.2280 -0.3906  0.4756
   53DOPE  C214 6775   4.458   3.523  14.217  0.4874  0.2443 -0.1659
   53DOPE  H14R 6776   4.352   3.498  14.195  0.8138 -0.0685 -1.4836
   53DOPE  H14S 6777   4.455   3.633  14.231  1.2225  0.1423  0.9089
   53DOPE  C215 6778   4.505   3.451  14.348  0.0126 -0.0016 -0.1567
   53DOPE  H15R 6779   4.615   3.471  14.349  0.1934 -0.9489  0.3265
   53DOPE  H15S 6780   4.502   3.342  14.332 -1.3170  0.1800 -1.3215
   53DOPE  C216 6781   4.427   3.495  14.475  0.2736 -0.5887  0.1606
   53DOPE  H16R 6782   4.321   3.472  14.453  0.2885 -1.3290  0.8116
   53DOPE  H16S 6783   4.440   3.604  14.488  2.8015 -0.2211 -3.8006
   53DOPE  C217 6784   4.471   3.426  14.609  0.1716 -0.5485  0.3233
   53DOPE  H17R 6785   4.405   3.482  14.679  1.4740  3.4322 -1.3411
   53DOPE  H17S 6786   4.578   3.447  14.634  0.9862 -2.2807 -1.4691
   53DOPE  C218 6787   4.449   3.277  14.613 -0.0755 -0.2283  0.4341
   53DOPE  H18R 6788   4.474   3.224  14.707 -0.9122 -2.1728 -0.3716
   53DOPE  H18S 6789   4.507   3.236  14.527  0.0772 -1.1496  0.9566
   53DOPE  H18T 6790   4.343   3.247  14.595  0.0068  0.4552 -1.4760
   53DOPE   C33 6791   4.140   3.246  13.153  0.2367  0.3683  0.1679
   53DOPE   H3X 6792   4.182   3.144  13.168 -0.6650 -0.2417 -1.2567
   53DOPE   H3Y 6793   4.055   3.230  13.084  0.0892 -1.6438  0.7499
   53DOPE   C34 6794   4.074   3.307  13.278 -0.6818 -0.4944 -0.2086
   53DOPE   H4X 6795   4.166   3.329  13.336 -1.5797  1.2534  0.6341
   53DOPE   H4Y 6796   4.036   3.410  13.259  0.4898  0.5565  2.5595
   53DOPE   C35 6797   3.974   3.221  13.343 -0.0492  0.6567  0.2723
   53DOPE   H5X 6798   4.024   3.133  13.388  0.4525  1.6357  1.6972
   53DOPE   H5Y 6799   3.892   3.185  13.277 -2.1547  2.2182  1.8646
   53DOPE   C36 6800   3.896   3.297  13.451  0.6675  0.6581  0.0309
   53DOPE   H6X 6801   3.822   3.225  13.492  0.4404 -0.9078 -2.8274
   53DOPE   H6Y 6802   3.836   3.381  13.409 -0.2612 -0.0075  0.0023
   53DOPE   C37 6803   3.967   3.348  13.586  0.2734  0.1415 -0.2320
   53DOPE   H7X 6804   4.000   3.453  13.573 -0.6314  0.4576 -0.0252
   53DOPE   H7Y 6805   3.890   3.360  13.665  0.1537  2.4163 -0.6363
   53DOPE   C38 6806   4.090   3.266  13.632 -0.1503  0.0135 -0.1105
   53DOPE   H8X 6807   4.143   3.327  13.709  0.3649 -1.1142  0.4446
   53DOPE   H8Y 6808   4.153   3.253  13.541  0.1755  0.7792 -0.0038
   53DOPE   C39 6809   4.046   3.131  13.690 -0.5865  0.2171  0.8426
   53DOPE   H9X 6810   3.982   3.074  13.622  0.8465  0.2925 -0.6182
   53DOPE  C310 6811   4.074   3.087  13.817 -0.1339  0.7430  0.4090
   53DOPE  H10X 6812   4.043   2.983  13.838  0.8258  0.4116  0.2837
   53DOPE  C311 6813   4.139   3.169  13.922  0.8263 -0.6594  0.5732
   53DOPE  H11X 6814   4.185   3.112  14.005 -1.7912  1.6291  3.8286
   53DOPE  H11Y 6815   4.220   3.230  13.876 -0.9122  0.7268 -0.8103
   53DOPE  C312 6816   4.040   3.261  13.995 -0.3832 -0.0304  0.5408
   53DOPE  H12X 6817   3.941   3.212  13.987  1.0996 -3.0142 -0.8414
   53DOPE  H12Y 6818   4.017   3.350  13.931 -0.0316  0.4523  1.0722
   53DOPE  C313 6819   4.082   3.301  14.137  0.2805  0.1918 -0.2158
   53DOPE  H13X 6820   4.190   3.322  14.121  0.6028 -1.0759  0.2159
   53DOPE  H13Y 6821   4.028   3.390  14.174  1.3383 -0.2791  2.7197
   53DOPE  C314 6822   4.064   3.194  14.243  0.0425  0.8417  0.0986
   53DOPE  H14X 6823   4.120   3.107  14.201  0.2805  0.7333  0.6218
   53DOPE  H14Y 6824   3.959   3.159  14.253  0.5426 -1.0309 -0.6714
   53DOPE  C315 6825   4.114   3.234  14.390 -0.5296  0.3021 -0.4439
   53DOPE  H15X 6826   4.215   3.277  14.371 -0.8828  1.6225  0.5278
   53DOPE  H15Y 6827   4.143   3.150  14.456 -0.3915  0.5271 -0.2134
   53DOPE  C316 6828   4.028   3.330  14.470  0.5981 -0.1159  0.2640
   53DOPE  H16X 6829   3.922   3.299  14.477  0.8271 -1.1892 -0.7172
   53DOPE  H16Y 6830   4.030   3.428  14.418  1.0540 -0.6479 -0.7485
   53DOPE  C317 6831   4.084   3.366  14.607 -0.6325 -0.1431  0.2721
   53DOPE  H17X 6832   4.149   3.283  14.644 -0.5837  0.4272  1.5360
   53DOPE  H17Y 6833   4.157   3.448  14.590  1.2520 -1.8923 -0.5743
   53DOPE  C318 6834   3.986   3.413  14.718 -0.3498 -0.9893  0.4000
   53DOPE  H18X 6835   3.889   3.363  14.702  0.4454 -3.3409  2.2114
   53DOPE  H18Y 6836   4.025   3.383  14.818 -1.0505 -0.8249  0.7299
   53DOPE  H18Z 6837   3.980   3.524  14.711 -0.5566 -0.9486  1.0786
   54DOPE     N 6838   0.163   6.593  12.863  0.1646 -0.7257  0.8244
   54DOPE   HN1 6839   0.183   6.518  12.794  0.8022 -0.3386  0.5777
   54DOPE   HN2 6840   0.255   6.628  12.897 -0.4682  0.2050  1.6426
   54DOPE   HN3 6841   0.108   6.547  12.939 -1.3222 -1.9762 -0.9333
   54DOPE   C12 6842   0.071   6.691  12.804  0.0431 -0.3548  0.4181
   54DOPE  H12A 6843  -0.010   6.640  12.748  1.0379 -0.7493 -0.6760
   54DOPE  H12B 6844   0.124   6.759  12.735 -2.1050  0.7904 -0.2137
   54DOPE   C11 6845   0.011   6.769  12.914  0.6682  0.2571 -0.1655
   54DOPE  H11A 6846   0.087   6.832  12.964 -1.3760  3.4071 -0.7220
   54DOPE  H11B 6847  -0.036   6.700  12.987 -1.0608  1.0736 -0.4531
   54DOPE     P 6848  -0.084   7.012  12.897  0.1493 -0.3235  0.3537
   54DOPE   O13 6849  -0.210   7.072  12.855  0.0544  0.3263  0.2591
   54DOPE   O14 6850   0.041   7.074  12.842  0.0858 -0.5170  0.0059
   54DOPE   O11 6851  -0.070   7.006  13.052 -0.1138 -0.1513 -0.1289
   54DOPE   O12 6852  -0.091   6.863  12.869 -0.1164 -0.1457 -0.4344
   54DOPE    C1 6853  -0.150   6.918  13.133 -0.6242 -0.1220 -0.4350
   54DOPE    HA 6854  -0.087   6.843  13.185  1.2287  0.7377 -1.3564
   54DOPE    HB 6855  -0.218   6.856  13.071  0.2823 -3.0635  1.3395
   54DOPE    C2 6856  -0.235   6.991  13.242 -0.3959 -0.7061 -0.0300
   54DOPE    HS 6857  -0.302   6.916  13.289 -1.2801 -1.0237 -1.7174
   54DOPE   O21 6858  -0.309   7.098  13.175  0.5919 -0.0930  0.4157
   54DOPE   C21 6859  -0.416   7.060  13.118  0.2578  0.6227  0.2018
   54DOPE   O22 6860  -0.471   6.952  13.130  0.2319  0.5179 -0.0055
   54DOPE   C22 6861  -0.484   7.178  13.051  0.1071 -0.6176 -0.5026
   54DOPE   H2R 6862  -0.568   7.135  12.993 -2.1610  1.6681  0.8621
   54DOPE   H2S 6863  -0.418   7.224  12.975 -0.5033 -0.7476 -1.1153
   54DOPE    C3 6864  -0.147   7.048  13.349 -0.6445 -1.6184  0.0046
   54DOPE    HX 6865  -0.072   7.120  13.309 -2.0616 -0.1955 -0.1744
   54DOPE    HY 6866  -0.109   6.963  13.409 -0.4145 -1.0302  0.7029
   54DOPE   O31 6867  -0.224   7.129  13.439 -1.2015  0.2395 -0.2086
   54DOPE   C31 6868  -0.305   7.070  13.522 -0.1244 -0.0289 -0.2356
   54DOPE   O32 6869  -0.314   6.951  13.535  0.4312  0.3885 -0.1977
   54DOPE   C32 6870  -0.365   7.182  13.613  0.3904 -0.1277 -0.6301
   54DOPE   H2X 6871  -0.284   7.205  13.685  0.4326 -1.7011 -0.1395
   54DOPE   H2Y 6872  -0.380   7.278  13.559  1.1058  0.7122  0.6140
   54DOPE   C23 6873  -0.540   7.286  13.140 -0.1560  0.0924 -0.6774
   54DOPE   H3R 6874  -0.582   7.368  13.078 -0.8802 -0.1273 -0.4817
   54DOPE   H3S 6875  -0.462   7.327  13.208  1.0852 -0.9879 -1.4028
   54DOPE   C24 6876  -0.662   7.244  13.220  0.3054 -0.2459  0.6227
   54DOPE   H4R 6877  -0.629   7.156  13.280  0.6628 -0.1336  0.5953
   54DOPE   H4S 6878  -0.729   7.218  13.135  1.9583  0.1492 -0.8662
   54DOPE   C25 6879  -0.729   7.356  13.314 -0.8540  0.7924  0.2118
   54DOPE   H5R 6880  -0.830   7.323  13.348  0.0075  0.5045  2.7554
   54DOPE   H5S 6881  -0.743   7.446  13.251 -1.2002  0.0728 -0.7499
   54DOPE   C26 6882  -0.645   7.394  13.429  0.1138 -0.4761 -0.3359
   54DOPE   H6R 6883  -0.551   7.449  13.406  1.3399 -1.8412  1.1407
   54DOPE   H6S 6884  -0.609   7.305  13.486 -0.7211 -0.1372  0.7648
   54DOPE   C27 6885  -0.709   7.487  13.533 -0.1963 -0.7001  0.1659
   54DOPE   H7R 6886  -0.766   7.564  13.477 -1.7325 -1.0060  1.2672
   54DOPE   H7S 6887  -0.642   7.539  13.606  1.9795 -0.2077 -2.0433
   54DOPE   C28 6888  -0.809   7.418  13.626 -0.3442  0.0414  0.1003
   54DOPE   H8R 6889  -0.757   7.344  13.691 -1.3309  0.7543  1.7800
   54DOPE   H8S 6890  -0.872   7.348  13.568 -0.9934  0.0764  0.7376
   54DOPE   C29 6891  -0.881   7.515  13.722 -0.0781 -0.6193 -0.3303
   54DOPE   H9R 6892  -0.980   7.559  13.703  0.1553  0.1223  0.1038
   54DOPE  C210 6893  -0.834   7.546  13.844 -0.2313  0.4032 -0.3872
   54DOPE  H10R 6894  -0.900   7.603  13.910 -0.6974 -2.5406  1.9240
   54DOPE  C211 6895  -0.708   7.501  13.905 -0.2448  0.5559  0.0658
   54DOPE  H11R 6896  -0.631   7.580  13.918  0.6403 -0.6079  2.4681
   54DOPE  H11S 6897  -0.661   7.422  13.843 -0.3440  3.0985 -3.5679
   54DOPE  C212 6898  -0.718   7.447  14.046  0.5307 -0.2170 -1.1021
   54DOPE  H12R 6899  -0.620   7.404  14.076  0.4865  1.2248  1.3854
   54DOPE  H12S 6900  -0.794   7.367  14.057  0.4942 -0.4830 -2.9329
   54DOPE  C213 6901  -0.760   7.553  14.149  1.6470  0.5131 -0.2339
   54DOPE  H13R 6902  -0.867   7.577  14.132  1.2516 -0.5619  0.6617
   54DOPE  H13S 6903  -0.699   7.645  14.137 -0.5147  1.8599 -1.7648
   54DOPE  C214 6904  -0.758   7.499  14.288  0.1119 -0.0441  0.0774
   54DOPE  H14R 6905  -0.659   7.448  14.291 -0.2494 -0.9862 -2.1844
   54DOPE  H14S 6906  -0.835   7.420  14.301 -0.2621  0.1451 -0.9082
   54DOPE  C215 6907  -0.767   7.598  14.401 -0.3781  0.5103  0.2669
   54DOPE  H15R 6908  -0.842   7.677  14.380  0.7634  2.0637  1.7610
   54DOPE  H15S 6909  -0.672   7.656  14.407 -1.1992  2.2138 -1.8472
   54DOPE  C216 6910  -0.802   7.537  14.534  0.1175  0.7821  0.5133
   54DOPE  H16R 6911  -0.719   7.467  14.559 -1.3625 -2.2312 -2.2233
   54DOPE  H16S 6912  -0.890   7.470  14.522 -1.2316  2.0478  2.6850
   54DOPE  C217 6913  -0.816   7.638  14.643  0.2019  0.4733  0.4377
   54DOPE  H17R 6914  -0.884   7.716  14.605 -0.4523 -0.6856 -0.8823
   54DOPE  H17S 6915  -0.720   7.688  14.669  1.5549 -0.4187 -2.3335
   54DOPE  C218 6916  -0.888   7.586  14.770  0.0385  0.0892 -0.3240
   54DOPE  H18R 6917  -0.992   7.560  14.738 -1.9038  4.8728  1.1285
   54DOPE  H18S 6918  -0.887   7.674  14.838 -1.4743 -0.3019  0.2421
   54DOPE  H18T 6919  -0.830   7.501  14.811  0.6468  0.9580  0.6615
   54DOPE   C33 6920  -0.489   7.152  13.700  0.7744 -0.0506  0.1114
   54DOPE   H3X 6921  -0.568   7.102  13.641 -0.9595  0.4471  1.8856
   54DOPE   H3Y 6922  -0.535   7.251  13.720 -1.4391 -0.7641 -1.1814
   54DOPE   C34 6923  -0.458   7.077  13.831  0.0158  0.6399  0.6351
   54DOPE   H4X 6924  -0.523   6.987  13.840  0.8086 -0.1139 -0.9448
   54DOPE   H4Y 6925  -0.359   7.030  13.818 -0.3584  0.4153 -1.9140
   54DOPE   C35 6926  -0.467   7.179  13.948 -0.1028  0.0868  0.7090
   54DOPE   H5X 6927  -0.567   7.227  13.939  0.5250  1.2953 -0.1615
   54DOPE   H5Y 6928  -0.393   7.261  13.931  0.5217 -0.4311  0.8943
   54DOPE   C36 6929  -0.446   7.120  14.088  0.9397 -0.2907  0.0003
   54DOPE   H6X 6930  -0.410   7.205  14.149 -1.1844 -0.8289  2.1842
   54DOPE   H6Y 6931  -0.373   7.036  14.076  2.3475  1.0919 -1.7327
   54DOPE   C37 6932  -0.568   7.057  14.150 -0.1109 -0.6549 -0.3102
   54DOPE   H7X 6933  -0.663   7.114  14.142 -0.0619 -0.2433  1.5477
   54DOPE   H7Y 6934  -0.600   6.967  14.094 -0.4682 -0.6433 -0.1300
   54DOPE   C38 6935  -0.540   7.005  14.294  0.3892 -0.7409 -0.3226
   54DOPE   H8X 6936  -0.445   6.949  14.286 -0.1117 -1.9984  1.8248
   54DOPE   H8Y 6937  -0.621   6.939  14.332 -0.2293  1.1495  1.9134
   54DOPE   C39 6938  -0.538   7.123  14.383 -0.0210  0.1243 -0.0901
   54DOPE   H9X 6939  -0.482   7.209  14.344 -0.6637  0.9302  0.7274
   54DOPE  C310 6940  -0.583   7.135  14.510  0.2479  0.4173  0.1981
   54DOPE  H10X 6941  -0.575   7.229  14.567  0.0618 -0.3741  1.5746
   54DOPE  C311 6942  -0.648   7.023  14.591 -0.2887  0.0572 -0.4934
   54DOPE  H11X 6943  -0.757   7.044  14.601  0.3069  2.5306  2.3675
   54DOPE  H11Y 6944  -0.629   6.924  14.545 -0.0857  0.6873 -1.8187
   54DOPE  C312 6945  -0.585   7.033  14.737 -0.2792 -0.1666 -0.0589
   54DOPE  H12X 6946  -0.476   7.047  14.728 -0.4171  3.1491  1.9011
   54DOPE  H12Y 6947  -0.602   6.933  14.784 -1.9983 -0.0184 -0.2984
   54DOPE  C313 6948  -0.627   7.157  14.824  0.2969  1.2499 -0.5302
   54DOPE  H13X 6949  -0.542   7.178  14.892  0.3268  1.3145 -0.5869
   54DOPE  H13Y 6950  -0.631   7.251  14.765  1.6313  1.8473  0.2671
   54DOPE  C314 6951  -0.754   7.129  14.909 -0.2688 -0.0827 -0.2243
   54DOPE  H14X 6952  -0.767   7.023  14.941  0.0861 -0.0505  0.0304
   54DOPE  H14Y 6953  -0.839   7.163  14.846 -0.7872 -1.0075 -0.0431
   54DOPE  C315 6954  -0.744   7.216  15.038  0.2434 -0.6103  0.7699
   54DOPE  H15X 6955  -0.848   7.223  15.076  0.7079  0.6579  1.8857
   54DOPE  H15Y 6956  -0.711   7.317  15.003 -2.1739  0.8438  2.4007
   54DOPE  C316 6957  -0.658   7.162  15.152  0.0153 -0.1950 -0.0052
   54DOPE  H16X 6958  -0.554   7.150  15.115 -0.2468  1.5085 -1.4034
   54DOPE  H16Y 6959  -0.695   7.066  15.196  1.2103  0.3324  2.3143
   54DOPE  C317 6960  -0.659   7.246  15.280  0.3234 -0.6812  0.3174
   54DOPE  H17X 6961  -0.763   7.282  15.299  0.6888  2.1788 -2.3022
   54DOPE  H17Y 6962  -0.615   7.195  15.368  1.0666 -0.0995  0.2887
   54DOPE  C318 6963  -0.589   7.373  15.249 -0.4957 -0.3549  0.2313
   54DOPE  H18X 6964  -0.479   7.359  15.239 -0.6410  0.1506 -2.8362
   54DOPE  H18Y 6965  -0.627   7.419  15.156  0.8448 -1.4069 -0.8720
   54DOPE  H18Z 6966  -0.616   7.453  15.321  2.6290 -0.1685  1.3623
   55DOPE     N 6967   1.512   4.715  13.107 -0.6277 -0.8639  1.0072
   55DOPE   HN1 6968   1.542   4.617  13.125  1.0448 -0.7195 -0.6286
   55DOPE   HN2 6969   1.488   4.770  13.192  1.0331 -1.7900  2.1158
   55DOPE   HN3 6970   1.424   4.706  13.053 -1.0588  1.3521  1.2364
   55DOPE   C12 6971   1.621   4.780  13.030  0.1424  0.1554  0.1077
   55DOPE  H12A 6972   1.697   4.814  13.104 -1.0734 -0.8015  1.8577
   55DOPE  H12B 6973   1.573   4.868  12.982 -1.0914  0.7003  2.1833
   55DOPE   C11 6974   1.695   4.675  12.934  0.6828 -0.2010 -0.0671
   55DOPE  H11A 6975   1.765   4.740  12.877 -0.9591  2.0415  0.3418
   55DOPE  H11B 6976   1.625   4.638  12.856  2.4516 -1.3453 -1.1803
   55DOPE     P 6977   1.890   4.592  13.096 -0.1482  0.0349  0.1444
   55DOPE   O13 6978   1.974   4.698  13.036 -0.1054 -0.2991 -0.1511
   55DOPE   O14 6979   1.963   4.465  13.107 -0.1907 -0.1752 -0.4323
   55DOPE   O11 6980   1.844   4.651  13.242  0.3814  0.0900  0.0329
   55DOPE   O12 6981   1.758   4.570  13.013  0.2070  0.2073  0.1490
   55DOPE    C1 6982   1.777   4.566  13.335 -0.0907  0.0938  0.1746
   55DOPE    HA 6983   1.791   4.459  13.309 -2.2451 -0.2614  0.2675
   55DOPE    HB 6984   1.670   4.597  13.345 -0.0233  0.4269 -0.0838
   55DOPE    C2 6985   1.836   4.586  13.478 -0.1699 -0.3514  0.0885
   55DOPE    HS 6986   1.789   4.509  13.543 -0.6285 -1.2099 -1.2052
   55DOPE   O21 6987   1.795   4.720  13.514 -0.3672  0.2884  0.1386
   55DOPE   C21 6988   1.782   4.736  13.649 -0.6335  0.6024  0.1583
   55DOPE   O22 6989   1.789   4.643  13.726 -0.1332  0.6074  0.0778
   55DOPE   C22 6990   1.784   4.883  13.682 -0.1504  0.4099  0.4701
   55DOPE   H2R 6991   1.773   4.944  13.590  2.8246 -0.6690 -0.7290
   55DOPE   H2S 6992   1.871   4.911  13.745 -1.8146  1.1464  2.5483
   55DOPE    C3 6993   1.987   4.566  13.481 -1.2187 -0.1330 -0.9992
   55DOPE    HX 6994   2.043   4.635  13.414 -0.0920 -1.2334 -1.2351
   55DOPE    HY 6995   2.008   4.466  13.436 -0.2511  0.3466 -1.6368
   55DOPE   O31 6996   2.058   4.565  13.607 -0.3758  0.0975  0.3499
   55DOPE   C31 6997   2.081   4.684  13.656 -0.0324 -0.6271  0.2169
   55DOPE   O32 6998   2.084   4.792  13.594  0.0817 -0.1680  0.1767
   55DOPE   C32 6999   2.132   4.668  13.803  0.2405  0.0916 -0.5595
   55DOPE   H2X 7000   2.062   4.594  13.846  0.2770 -0.5396 -1.5504
   55DOPE   H2Y 7001   2.232   4.622  13.785 -0.3104 -1.5589  0.4739
   55DOPE   C23 7002   1.667   4.902  13.779  0.6167 -0.7221 -0.0379
   55DOPE   H3R 7003   1.575   4.851  13.742  0.5737 -0.8797  0.2815
   55DOPE   H3S 7004   1.653   5.012  13.779 -0.1592 -0.8128 -0.6288
   55DOPE   C24 7005   1.694   4.858  13.928  0.2041  0.2266 -0.3160
   55DOPE   H4R 7006   1.794   4.894  13.962 -0.5164  0.9689  1.0603
   55DOPE   H4S 7007   1.712   4.749  13.934  0.5732  0.2195 -1.2763
   55DOPE   C25 7008   1.580   4.905  14.021 -0.1644 -0.3059  0.0943
   55DOPE   H5R 7009   1.491   4.860  13.974 -0.5429 -2.7322  2.8550
   55DOPE   H5S 7010   1.581   5.016  14.030  0.7347 -0.2319 -0.7121
   55DOPE   C26 7011   1.588   4.839  14.156 -1.5852 -0.5775 -0.3629
   55DOPE   H6R 7012   1.613   4.731  14.147  0.9298  0.0161 -1.3598
   55DOPE   H6S 7013   1.483   4.847  14.191 -1.2508  0.0669  0.5256
   55DOPE   C27 7014   1.682   4.912  14.251 -0.0920 -0.6352 -0.0059
   55DOPE   H7R 7015   1.661   5.019  14.230  0.3954 -0.9129 -2.1790
   55DOPE   H7S 7016   1.787   4.884  14.225 -0.4599 -1.9261 -0.1520
   55DOPE   C28 7017   1.650   4.869  14.400 -0.9232  0.7409  0.2100
   55DOPE   H8R 7018   1.667   4.759  14.402 -0.3562  0.7930 -0.8479
   55DOPE   H8S 7019   1.541   4.891  14.412 -2.0267 -3.4294 -0.5068
   55DOPE   C29 7020   1.723   4.932  14.514  0.4461  0.0533 -0.4586
   55DOPE   H9R 7021   1.742   5.038  14.491 -0.9440 -0.1128 -2.6143
   55DOPE  C210 7022   1.773   4.872  14.628 -0.3477 -0.1219  0.2532
   55DOPE  H10R 7023   1.824   4.938  14.699  1.7981 -0.6874 -0.6895
   55DOPE  C211 7024   1.763   4.728  14.671  0.1065  0.1841  0.5001
   55DOPE  H11R 7025   1.862   4.677  14.668  0.6106  1.0981  0.9850
   55DOPE  H11S 7026   1.702   4.671  14.597  0.5709  4.8178 -3.9844
   55DOPE  C212 7027   1.726   4.708  14.820 -0.2592  0.3440  0.0192
   55DOPE  H12R 7028   1.620   4.737  14.835 -0.8094 -1.8838  0.8346
   55DOPE  H12S 7029   1.787   4.769  14.891  1.1931 -1.3885  0.3343
   55DOPE  C213 7030   1.709   4.555  14.855 -0.3221 -0.5355 -0.2442
   55DOPE  H13R 7031   1.810   4.509  14.846  0.4968  1.4780 -2.9255
   55DOPE  H13S 7032   1.639   4.504  14.785 -1.8792  2.1011 -0.7457
   55DOPE  C214 7033   1.660   4.556  14.998 -0.2133  0.5926  0.1894
   55DOPE  H14R 7034   1.553   4.584  14.983 -0.9141 -1.8073  0.2131
   55DOPE  H14S 7035   1.717   4.630  15.058 -2.7681  2.8134  0.0521
   55DOPE  C215 7036   1.667   4.421  15.067 -0.2486 -0.2588  0.4383
   55DOPE  H15R 7037   1.770   4.383  15.057  0.3142  1.5222 -1.1897
   55DOPE  H15S 7038   1.609   4.351  15.002  0.1959  0.6221 -0.9613
   55DOPE  C216 7039   1.612   4.412  15.207  0.1799 -0.0755 -0.0291
   55DOPE  H16R 7040   1.501   4.409  15.217 -0.0563  3.2098 -0.6423
   55DOPE  H16S 7041   1.644   4.502  15.263 -0.6810 -0.0399  0.4372
   55DOPE  C217 7042   1.656   4.288  15.284 -0.0951  0.8264  0.2150
   55DOPE  H17R 7043   1.767   4.290  15.277 -0.1363  1.8993 -0.2723
   55DOPE  H17S 7044   1.623   4.197  15.228  1.8440  1.9578 -3.0623
   55DOPE  C218 7045   1.595   4.294  15.424  0.5565  0.7853 -0.0784
   55DOPE  H18R 7046   1.632   4.200  15.471 -0.1133 -0.2818 -1.6227
   55DOPE  H18S 7047   1.486   4.284  15.410  0.6665  0.4747 -0.7272
   55DOPE  H18T 7048   1.627   4.388  15.474 -0.1709  1.3285 -0.6288
   55DOPE   C33 7049   2.141   4.800  13.885  0.5350  0.3995  0.3607
   55DOPE   H3X 7050   2.047   4.854  13.860  1.0572  1.1064 -0.1108
   55DOPE   H3Y 7051   2.229   4.865  13.863  1.6151 -0.5563  1.6909
   55DOPE   C34 7052   2.147   4.755  14.039  0.1093  0.0493  0.3940
   55DOPE   H4X 7053   2.233   4.687  14.060 -1.4603 -1.7771  1.1702
   55DOPE   H4Y 7054   2.156   4.849  14.098 -2.1710  0.6482 -0.1168
   55DOPE   C35 7055   2.025   4.679  14.089  0.1366  0.4114  0.1003
   55DOPE   H5X 7056   2.030   4.570  14.068  1.6571  0.6006 -0.6442
   55DOPE   H5Y 7057   1.932   4.721  14.046 -0.8150 -1.0501  0.6465
   55DOPE   C36 7058   2.022   4.688  14.242 -0.0358 -0.0758 -0.7524
   55DOPE   H6X 7059   1.922   4.654  14.276 -0.3076 -1.7457 -3.0395
   55DOPE   H6Y 7060   2.028   4.797  14.264 -3.3252  0.3370 -1.3998
   55DOPE   C37 7061   2.120   4.609  14.322 -0.1204  0.2679 -0.0851
   55DOPE   H7X 7062   2.133   4.505  14.284 -0.2759  0.6057 -1.0869
   55DOPE   H7Y 7063   2.228   4.632  14.307  0.4245 -2.9368 -2.0973
   55DOPE   C38 7064   2.092   4.625  14.475 -0.2534  0.6366  0.1528
   55DOPE   H8X 7065   2.156   4.553  14.531  0.2031  0.0925 -1.0419
   55DOPE   H8Y 7066   1.992   4.581  14.496  0.2795 -0.4156  0.5662
   55DOPE   C39 7067   2.123   4.765  14.532 -0.0413  0.1232 -0.2038
   55DOPE   H9X 7068   2.063   4.843  14.483  0.5053  0.6500 -0.0375
   55DOPE  C310 7069   2.189   4.795  14.643 -0.7720 -0.0622  0.0083
   55DOPE  H10X 7070   2.210   4.897  14.677  0.5084  0.5126 -2.2933
   55DOPE  C311 7071   2.238   4.698  14.743 -0.0096  0.1428 -0.2745
   55DOPE  H11X 7072   2.294   4.608  14.710 -1.9755 -2.2439  2.3482
   55DOPE  H11Y 7073   2.309   4.748  14.812 -0.1902 -2.7653  2.2693
   55DOPE  C312 7074   2.131   4.656  14.845 -0.0426 -0.4875  0.1541
   55DOPE  H12X 7075   2.047   4.593  14.808 -0.8620  1.4190 -1.3799
   55DOPE  H12Y 7076   2.063   4.738  14.878 -1.2168  1.0684 -5.2126
   55DOPE  C313 7077   2.194   4.586  14.969  0.8099 -0.3483  0.4939
   55DOPE  H13X 7078   2.269   4.512  14.934  1.0684 -0.7529  1.8510
   55DOPE  H13Y 7079   2.251   4.655  15.034  2.5495 -2.3050  1.1895
   55DOPE  C314 7080   2.090   4.516  15.058  0.2773  0.0887 -0.6701
   55DOPE  H14X 7081   2.045   4.421  15.022 -0.0530 -0.5467  1.2903
   55DOPE  H14Y 7082   2.005   4.586  15.070  0.0467 -0.5378  1.9231
   55DOPE  C315 7083   2.141   4.497  15.208  0.3404 -0.6425  0.0543
   55DOPE  H15X 7084   2.131   4.589  15.270  2.8769 -0.4867  0.3293
   55DOPE  H15Y 7085   2.245   4.459  15.214  0.3960 -0.4265  0.5276
   55DOPE  C316 7086   2.044   4.397  15.271  0.6921 -1.0251 -0.1207
   55DOPE  H16X 7087   2.038   4.307  15.206  0.3193 -0.3594 -1.0338
   55DOPE  H16Y 7088   1.942   4.442  15.267  0.5369 -1.2799  0.7071
   55DOPE  C317 7089   2.073   4.367  15.419  0.2548 -0.6487 -0.8788
   55DOPE  H17X 7090   2.072   4.459  15.482 -0.9491 -1.5149  0.4185
   55DOPE  H17Y 7091   1.988   4.302  15.447 -1.4685  1.8644  0.0849
   55DOPE  C318 7092   2.210   4.304  15.446 -0.6507  0.8647 -0.9200
   55DOPE  H18X 7093   2.229   4.288  15.555  3.3737  2.3235 -1.2628
   55DOPE  H18Y 7094   2.215   4.204  15.397 -0.5697 -0.0977  0.9531
   55DOPE  H18Z 7095   2.288   4.372  15.408 -0.7014  1.4411 -0.0251
   56DOPE     N 7096   0.643   3.676  13.175  0.4257 -0.1744  0.3926
   56DOPE   HN1 7097   0.687   3.621  13.099 -0.6515  0.6820 -0.9019
   56DOPE   HN2 7098   0.582   3.748  13.131  0.8716 -0.6259 -1.0235
   56DOPE   HN3 7099   0.723   3.726  13.220 -0.1108 -0.0007  1.1644
   56DOPE   C12 7100   0.560   3.594  13.271 -1.0381  0.7303  0.0594
   56DOPE  H12A 7101   0.623   3.507  13.299 -2.7724 -0.2343  1.1125
   56DOPE  H12B 7102   0.471   3.566  13.210 -1.6576  1.2899  0.6900
   56DOPE   C11 7103   0.529   3.682  13.389 -0.2825  0.7190 -0.4570
   56DOPE  H11A 7104   0.609   3.718  13.457 -1.0356  2.6693 -0.5217
   56DOPE  H11B 7105   0.466   3.619  13.455  1.4611 -0.2808  0.3223
   56DOPE     P 7106   0.310   3.809  13.329  0.3860 -0.1829  0.1198
   56DOPE   O13 7107   0.269   3.722  13.219 -0.0546  0.2618 -0.2863
   56DOPE   O14 7108   0.281   3.956  13.317  0.4513 -0.0995 -0.3753
   56DOPE   O11 7109   0.252   3.748  13.472  0.0579 -0.1912 -0.0822
   56DOPE   O12 7110   0.464   3.798  13.346  0.1766  0.9308  0.0382
   56DOPE    C1 7111   0.239   3.842  13.582 -0.4205 -0.2400  0.7177
   56DOPE    HA 7112   0.162   3.919  13.561  0.2070  0.2741  0.2332
   56DOPE    HB 7113   0.340   3.885  13.598 -0.6568 -0.1292  2.0327
   56DOPE    C2 7114   0.187   3.772  13.711 -0.0798  0.1619  0.6641
   56DOPE    HS 7115   0.195   3.840  13.798 -1.8181  1.5202 -0.1866
   56DOPE   O21 7116   0.249   3.643  13.725  0.1802  0.2025 -0.1406
   56DOPE   C21 7117   0.368   3.654  13.778  0.6859 -0.0329  0.4426
   56DOPE   O22 7118   0.423   3.756  13.806  0.0224 -0.0894 -0.0834
   56DOPE   C22 7119   0.424   3.519  13.805 -0.2136 -0.3846  0.0336
   56DOPE   H2R 7120   0.533   3.538  13.792 -0.8218  2.1916 -2.3294
   56DOPE   H2S 7121   0.393   3.449  13.725  1.6278  0.8550 -1.8905
   56DOPE    C3 7122   0.029   3.746  13.692 -0.4301  0.8357  0.1833
   56DOPE    HX 7123   0.016   3.688  13.598  0.9400  0.2578  0.3221
   56DOPE    HY 7124  -0.021   3.845  13.690 -0.8211  0.7069  2.0517
   56DOPE   O31 7125  -0.025   3.677  13.803  0.1485  0.0538 -0.0594
   56DOPE   C31 7126  -0.044   3.546  13.787  0.2132 -0.0978 -0.4490
   56DOPE   O32 7127  -0.026   3.481  13.685 -0.4701 -0.3448  0.5671
   56DOPE   C32 7128  -0.090   3.480  13.916 -0.5445 -0.1878  0.2823
   56DOPE   H2X 7129  -0.199   3.498  13.926 -1.5174 -3.6402 -2.2749
   56DOPE   H2Y 7130  -0.080   3.372  13.894  0.3249 -0.4384  1.7635
   56DOPE   C23 7131   0.390   3.463  13.943  0.2806 -0.0477  0.4401
   56DOPE   H3R 7132   0.445   3.368  13.958 -0.8103 -0.7875 -0.1171
   56DOPE   H3S 7133   0.285   3.425  13.941 -0.1945  1.1542  1.1064
   56DOPE   C24 7134   0.412   3.547  14.067  0.4773  0.1967  0.2099
   56DOPE   H4R 7135   0.336   3.626  14.084  0.2727  0.1601 -0.5202
   56DOPE   H4S 7136   0.520   3.576  14.062  0.6961 -0.7011 -0.5126
   56DOPE   C25 7137   0.406   3.449  14.188 -0.1417 -0.5990  0.1736
   56DOPE   H5R 7138   0.474   3.365  14.164  0.1664 -0.0232 -1.0419
   56DOPE   H5S 7139   0.301   3.414  14.181 -0.3744  0.3445 -1.4811
   56DOPE   C26 7140   0.416   3.518  14.327 -0.3688  0.1395  1.0428
   56DOPE   H6R 7141   0.353   3.609  14.330  0.3537  0.6439  1.4231
   56DOPE   H6S 7142   0.524   3.541  14.340 -0.4175  0.7042  0.4779
   56DOPE   C27 7143   0.374   3.435  14.447 -0.6264  0.6225 -0.3760
   56DOPE   H7R 7144   0.435   3.343  14.458 -0.2923  0.6296 -2.0071
   56DOPE   H7S 7145   0.270   3.399  14.429 -1.1737  0.9284  1.8168
   56DOPE   C28 7146   0.376   3.519  14.577 -0.0506 -0.6448  0.3050
   56DOPE   H8R 7147   0.333   3.460  14.661  0.3219  1.2524  1.8999
   56DOPE   H8S 7148   0.308   3.606  14.564 -0.4969 -0.8001  1.5022
   56DOPE   C29 7149   0.517   3.572  14.619  0.5116  0.2618  0.0897
   56DOPE   H9R 7150   0.559   3.646  14.549 -1.0913 -1.1100 -2.5178
   56DOPE  C210 7151   0.582   3.532  14.726  0.7134 -0.5411  0.4488
   56DOPE  H10R 7152   0.683   3.571  14.748  0.5640 -0.7334  1.5330
   56DOPE  C211 7153   0.539   3.423  14.819  0.0675  0.0752 -0.7725
   56DOPE  H11R 7154   0.624   3.359  14.850 -1.2495 -2.1030 -1.4542
   56DOPE  H11S 7155   0.471   3.354  14.765  0.5136  0.2537 -1.5719
   56DOPE  C212 7156   0.469   3.460  14.952 -0.5435  0.0559  0.0855
   56DOPE  H12R 7157   0.372   3.515  14.943 -0.0662  1.0070  0.6102
   56DOPE  H12S 7158   0.536   3.540  14.991 -0.0110 -1.1571  1.7084
   56DOPE  C213 7159   0.470   3.336  15.048  0.1678  0.2917 -0.1874
   56DOPE  H13R 7160   0.571   3.297  15.075 -0.7850 -0.9873  1.7911
   56DOPE  H13S 7161   0.418   3.253  14.995  0.2720 -0.7756  1.3004
   56DOPE  C214 7162   0.391   3.361  15.181 -0.0296  0.2195  0.0792
   56DOPE  H14R 7163   0.291   3.402  15.153 -1.2324 -3.7659 -2.3597
   56DOPE  H14S 7164   0.449   3.429  15.247 -0.1700  1.1060 -0.6952
   56DOPE  C215 7165   0.355   3.226  15.255  0.0229  0.1049 -0.2588
   56DOPE  H15R 7166   0.404   3.150  15.190  1.2624  1.7435 -1.3018
   56DOPE  H15S 7167   0.246   3.202  15.253  0.1318 -0.6365 -3.5953
   56DOPE  C216 7168   0.408   3.242  15.399  0.0814  0.3928 -0.3982
   56DOPE  H16R 7169   0.355   3.328  15.447 -0.9869 -0.5717  0.2150
   56DOPE  H16S 7170   0.509   3.286  15.387  0.8278 -1.3586 -0.7215
   56DOPE  C217 7171   0.400   3.113  15.481  0.0466 -0.0744  0.1068
   56DOPE  H17R 7172   0.427   3.142  15.585  1.1026 -0.8619  0.0743
   56DOPE  H17S 7173   0.482   3.048  15.445 -0.4531 -0.6281 -0.0405
   56DOPE  C218 7174   0.269   3.030  15.488 -0.2843 -0.2395  0.0401
   56DOPE  H18R 7175   0.254   2.976  15.392 -0.5838 -0.4178  0.1841
   56DOPE  H18S 7176   0.184   3.100  15.503 -0.6657 -0.8926  1.0953
   56DOPE  H18T 7177   0.280   2.957  15.572 -2.1733 -1.4025 -0.6444
   56DOPE   C33 7178  -0.006   3.535  14.038 -0.2753 -0.3235  0.5706
   56DOPE   H3X 7179  -0.041   3.638  14.055  0.8090  0.3899 -1.2074
   56DOPE   H3Y 7180   0.105   3.540  14.025 -0.1529 -0.3781  1.5290
   56DOPE   C34 7181  -0.019   3.467  14.170 -0.8023 -0.5936 -0.1183
   56DOPE   H4X 7182  -0.127   3.450  14.189 -1.1105  0.4706 -0.8219
   56DOPE   H4Y 7183   0.036   3.371  14.184 -1.3648 -0.7481  1.2064
   56DOPE   C35 7184   0.021   3.561  14.285 -0.0937  0.0340 -0.0837
   56DOPE   H5X 7185  -0.037   3.656  14.287  0.1897  0.2553 -1.4088
   56DOPE   H5Y 7186   0.129   3.581  14.270 -0.2288  1.2739  0.4498
   56DOPE   C36 7187   0.008   3.503  14.427  0.2450  0.7445 -0.9318
   56DOPE   H6X 7188   0.078   3.557  14.495  0.7541 -1.7462  0.6429
   56DOPE   H6Y 7189   0.051   3.401  14.422 -1.4775 -0.1368  0.9447
   56DOPE   C37 7190  -0.140   3.502  14.479 -0.4957  0.4665  0.0642
   56DOPE   H7X 7191  -0.193   3.596  14.452  0.0982  1.0880  1.0129
   56DOPE   H7Y 7192  -0.192   3.425  14.418 -0.2716 -2.1273  2.9193
   56DOPE   C38 7193  -0.159   3.473  14.630  0.1830  0.7326  0.1754
   56DOPE   H8X 7194  -0.136   3.366  14.651 -1.2992  0.4379  0.3697
   56DOPE   H8Y 7195  -0.267   3.483  14.654 -0.0611 -0.2690 -0.4290
   56DOPE   C39 7196  -0.077   3.560  14.715  0.1498 -0.7887 -0.4387
   56DOPE   H9X 7197  -0.104   3.666  14.710  1.4384 -0.3305  1.3779
   56DOPE  C310 7198  -0.004   3.526  14.819 -0.3240 -0.0696 -0.2920
   56DOPE  H10X 7199   0.038   3.610  14.875 -0.2781  0.6105 -1.3208
   56DOPE  C311 7200   0.031   3.389  14.868  0.0612 -0.2466 -0.3527
   56DOPE  H11X 7201   0.068   3.325  14.786 -0.6539 -1.1609  0.0202
   56DOPE  H11Y 7202   0.116   3.398  14.940 -0.0198 -0.4135 -0.2342
   56DOPE  C312 7203  -0.087   3.315  14.939 -0.8119  0.2621 -0.2407
   56DOPE  H12X 7204  -0.147   3.259  14.864 -0.4215 -0.2395 -0.1855
   56DOPE  H12Y 7205  -0.144   3.377  15.011  2.6111  0.2753  2.7061
   56DOPE  C313 7206  -0.038   3.199  15.025 -0.0749 -0.1347 -0.1422
   56DOPE  H13X 7207   0.024   3.128  14.964  1.1008 -0.0665  0.9368
   56DOPE  H13Y 7208   0.029   3.242  15.102  0.3483 -2.9706  1.2013
   56DOPE  C314 7209  -0.148   3.125  15.106 -1.0152 -0.2391 -0.6281
   56DOPE  H14X 7210  -0.219   3.080  15.033 -1.2632 -1.4659  0.3312
   56DOPE  H14Y 7211  -0.210   3.193  15.168  0.6736  1.3177 -0.5683
   56DOPE  C315 7212  -0.081   3.022  15.203 -0.2959 -0.5076  0.7874
   56DOPE  H15X 7213  -0.010   3.086  15.260  0.9954 -0.0788 -1.2071
   56DOPE  H15Y 7214  -0.024   2.953  15.137 -1.3104  0.2138 -0.9147
   56DOPE  C316 7215  -0.174   2.939  15.288  0.3877  0.3020 -0.3430
   56DOPE  H16X 7216  -0.116   2.861  15.343 -2.4582 -0.7474  1.4047
   56DOPE  H16Y 7217  -0.252   2.889  15.226  1.0636  0.6158 -1.4748
   56DOPE  C317 7218  -0.258   3.024  15.386  0.4062  0.9999  0.0021
   56DOPE  H17X 7219  -0.186   3.089  15.440 -0.1245  1.2965  0.3567
   56DOPE  H17Y 7220  -0.331   3.094  15.339 -1.9795 -1.5041 -0.2583
   56DOPE  C318 7221  -0.327   2.936  15.496  0.3565  0.9980 -0.8829
   56DOPE  H18X 7222  -0.380   2.995  15.574  0.4127 -0.4313  0.2687
   56DOPE  H18Y 7223  -0.398   2.868  15.444 -0.8303  1.1601  0.4793
   56DOPE  H18Z 7224  -0.258   2.867  15.549 -2.0167 -0.0909  0.9836
   57DOPE     N 7225   6.234   4.633  13.341 -0.0767 -0.1989  0.1174
   57DOPE   HN1 7226   6.207   4.549  13.285  1.7232 -0.8129  0.0917
   57DOPE   HN2 7227   6.242   4.716  13.278  0.6736  0.6262  1.2660
   57DOPE   HN3 7228   6.322   4.613  13.393  0.5534  2.0621  0.0357
   57DOPE   C12 7229   6.138   4.671  13.451 -0.3749  0.6873 -0.5654
   57DOPE  H12A 7230   6.175   4.769  13.488  0.5782  0.6007 -1.2553
   57DOPE  H12B 7231   6.144   4.592  13.528 -1.2004  1.0829 -0.0779
   57DOPE   C11 7232   5.994   4.681  13.400 -0.6652 -0.1676 -0.0077
   57DOPE  H11A 7233   6.000   4.746  13.310 -0.8165  1.2874  0.9940
   57DOPE  H11B 7234   5.921   4.724  13.472  0.7450  0.9153  0.8399
   57DOPE     P 7235   5.807   4.512  13.315 -0.0778  0.3384  0.0603
   57DOPE   O13 7236   5.793   4.363  13.304  0.1356  0.0655 -0.3378
   57DOPE   O14 7237   5.787   4.584  13.187  0.3194  0.2191 -0.2126
   57DOPE   O11 7238   5.707   4.564  13.423 -0.2744 -0.1837 -0.0624
   57DOPE   O12 7239   5.953   4.550  13.366 -0.3190  0.2606 -0.8246
   57DOPE    C1 7240   5.716   4.543  13.565 -0.0171  0.7021  0.2522
   57DOPE    HA 7241   5.817   4.576  13.595  1.6741 -1.4192 -2.5368
   57DOPE    HB 7242   5.708   4.432  13.571  0.7855  0.6356  0.1383
   57DOPE    C2 7243   5.597   4.617  13.633 -0.4530  0.0020 -0.0875
   57DOPE    HS 7244   5.621   4.726  13.630 -0.6404  0.0237 -1.3867
   57DOPE   O21 7245   5.591   4.562  13.770  0.1700 -0.3869  0.4758
   57DOPE   C21 7246   5.553   4.650  13.867 -0.0851 -0.8128  0.1589
   57DOPE   O22 7247   5.523   4.766  13.852 -0.2045 -0.3626  0.0372
   57DOPE   C22 7248   5.548   4.578  14.001 -0.1246 -0.3387 -1.4940
   57DOPE   H2R 7249   5.589   4.476  13.994  0.9918 -0.1221  0.7624
   57DOPE   H2S 7250   5.444   4.553  14.031 -0.1086  1.5669  0.4338
   57DOPE    C3 7251   5.461   4.597  13.552 -0.3371  0.4656  0.0874
   57DOPE    HX 7252   5.438   4.488  13.543  1.9796  0.0702 -2.5078
   57DOPE    HY 7253   5.484   4.640  13.453  1.8980 -1.3600 -0.2694
   57DOPE   O31 7254   5.350   4.673  13.611 -0.5650  0.3709  0.2432
   57DOPE   C31 7255   5.242   4.675  13.538  1.0102  0.2079  0.7147
   57DOPE   O32 7256   5.219   4.607  13.434 -0.0132  0.7208 -0.0656
   57DOPE   C32 7257   5.142   4.781  13.597 -0.5244  0.0384 -0.0643
   57DOPE   H2X 7258   5.203   4.873  13.602 -1.3312  0.6912 -1.5686
   57DOPE   H2Y 7259   5.050   4.779  13.535 -0.0156 -1.4243 -0.8337
   57DOPE   C23 7260   5.620   4.657  14.116 -0.1063 -0.0029 -0.1569
   57DOPE   H3R 7261   5.608   4.766  14.098  0.6603 -0.0169 -0.8052
   57DOPE   H3S 7262   5.727   4.628  14.111  0.5944  1.9854  1.4714
   57DOPE   C24 7263   5.567   4.613  14.253 -0.5875 -0.0005  0.6590
   57DOPE   H4R 7264   5.582   4.504  14.267 -0.7372  0.1035  1.6628
   57DOPE   H4S 7265   5.459   4.638  14.254 -0.5542  0.1460  0.7016
   57DOPE   C25 7266   5.635   4.667  14.378 -0.0181 -0.0830 -0.4785
   57DOPE   H5R 7267   5.627   4.778  14.374  1.8767  0.1661  1.0001
   57DOPE   H5S 7268   5.743   4.639  14.374 -0.1781 -1.6974  3.0950
   57DOPE   C26 7269   5.568   4.626  14.508 -0.4389  0.0052  0.0971
   57DOPE   H6R 7270   5.584   4.516  14.510 -1.8232 -0.2052  0.2805
   57DOPE   H6S 7271   5.459   4.649  14.503 -0.4117 -0.0127 -0.5873
   57DOPE   C27 7272   5.624   4.690  14.642  0.3186 -0.3256  0.4594
   57DOPE   H7R 7273   5.528   4.695  14.697 -0.8127 -0.1227 -1.4581
   57DOPE   H7S 7274   5.652   4.795  14.617 -0.9229 -0.4148 -1.6054
   57DOPE   C28 7275   5.733   4.605  14.713 -0.4504 -0.5063  0.0146
   57DOPE   H8R 7276   5.825   4.592  14.652 -0.5555  1.1480 -0.5416
   57DOPE   H8S 7277   5.699   4.501  14.729 -1.9081  0.1091  1.2299
   57DOPE   C29 7278   5.787   4.663  14.840  0.4149  0.1397  0.4153
   57DOPE   H9R 7279   5.881   4.719  14.826 -0.1104  1.6941  2.5635
   57DOPE  C210 7280   5.750   4.641  14.967  0.4648  0.1785 -0.5103
   57DOPE  H10R 7281   5.791   4.706  15.045 -1.5705  0.8637  0.0582
   57DOPE  C211 7282   5.625   4.559  15.008 -0.8393 -0.1354  0.2920
   57DOPE  H11R 7283   5.646   4.477  15.079 -1.9883 -1.3717 -0.7346
   57DOPE  H11S 7284   5.569   4.514  14.923 -0.6246 -0.3524  0.2636
   57DOPE  C212 7285   5.517   4.642  15.074 -0.3031 -0.3119 -0.1276
   57DOPE  H12R 7286   5.422   4.586  15.063  0.5508 -1.2478 -4.3482
   57DOPE  H12S 7287   5.505   4.731  15.008  1.5524 -0.1316 -0.2612
   57DOPE  C213 7288   5.555   4.673  15.221  0.6415 -0.1909 -1.3999
   57DOPE  H13R 7289   5.637   4.747  15.213 -1.0727  1.7796 -1.3737
   57DOPE  H13S 7290   5.584   4.578  15.273 -3.1041 -1.2551 -0.9543
   57DOPE  C214 7291   5.443   4.729  15.303  0.6605 -0.6826  0.8187
   57DOPE  H14R 7292   5.348   4.671  15.299 -0.9668  1.7541  2.1057
   57DOPE  H14S 7293   5.426   4.826  15.251 -0.7225 -1.3178  0.0249
   57DOPE  C215 7294   5.472   4.732  15.453  0.2320  0.1312  0.8128
   57DOPE  H15R 7295   5.557   4.801  15.472  0.1797  0.5384 -0.4008
   57DOPE  H15S 7296   5.491   4.628  15.489  0.7444 -0.9996 -2.3932
   57DOPE  C216 7297   5.347   4.786  15.534 -0.3073  0.0393 -0.7106
   57DOPE  H16R 7298   5.258   4.725  15.507  0.5293 -1.7658  0.3972
   57DOPE  H16S 7299   5.334   4.891  15.500  1.9414  0.1202 -1.4905
   57DOPE  C217 7300   5.371   4.778  15.686 -0.3325 -0.0283 -0.2497
   57DOPE  H17R 7301   5.464   4.836  15.703 -1.2095  1.2344  0.3551
   57DOPE  H17S 7302   5.379   4.675  15.726 -2.0225  0.5073  1.5722
   57DOPE  C218 7303   5.263   4.850  15.773 -0.4958 -0.5598  1.2702
   57DOPE  H18R 7304   5.232   4.946  15.726 -2.9294 -2.3079 -1.0201
   57DOPE  H18S 7305   5.295   4.874  15.877 -2.2176  2.5217  1.2060
   57DOPE  H18T 7306   5.167   4.794  15.777 -0.5287 -0.7093 -0.7243
   57DOPE   C33 7307   5.082   4.756  13.740  0.0595 -0.1172  0.9057
   57DOPE   H3X 7308   5.063   4.647  13.750  0.7896 -0.1935  1.5678
   57DOPE   H3Y 7309   4.982   4.804  13.740 -0.6573 -1.5500  0.0831
   57DOPE   C34 7310   5.188   4.802  13.854  0.4978  0.4248 -0.1824
   57DOPE   H4X 7311   5.270   4.731  13.875 -1.1451 -0.8365  2.6511
   57DOPE   H4Y 7312   5.220   4.905  13.830  0.0953  0.4983 -0.4151
   57DOPE   C35 7313   5.112   4.809  13.987  0.6753  0.5209 -0.0182
   57DOPE   H5X 7314   5.044   4.724  14.008  0.5022  0.9264  1.1433
   57DOPE   H5Y 7315   5.057   4.906  13.995  0.1018  0.4115 -2.1232
   57DOPE   C36 7316   5.203   4.810  14.106  0.2784  0.4777 -0.1422
   57DOPE   H6X 7317   5.268   4.900  14.106  0.9083  0.0447  0.6390
   57DOPE   H6Y 7318   5.263   4.716  14.103  0.6362  0.5764  2.2066
   57DOPE   C37 7319   5.123   4.817  14.236 -0.2705  0.2923  0.2388
   57DOPE   H7X 7320   5.089   4.920  14.259  1.7522  0.9675  0.4773
   57DOPE   H7Y 7321   5.039   4.745  14.231 -0.5989  0.7219 -0.6830
   57DOPE   C38 7322   5.220   4.786  14.355  0.2197  0.3595  1.4713
   57DOPE   H8X 7323   5.287   4.871  14.379 -1.4626  1.5168  2.3224
   57DOPE   H8Y 7324   5.278   4.695  14.331 -0.6812  0.1109  0.1123
   57DOPE   C39 7325   5.133   4.762  14.474  0.2806  0.4662  0.0369
   57DOPE   H9X 7326   5.046   4.701  14.447  2.2590 -2.5830  0.1089
   57DOPE  C310 7327   5.144   4.801  14.604 -0.2895 -0.4726  0.5010
   57DOPE  H10X 7328   5.075   4.755  14.676  1.6838 -0.7844  2.3048
   57DOPE  C311 7329   5.255   4.877  14.668  0.1653 -0.5724  0.3649
   57DOPE  H11X 7330   5.351   4.833  14.632 -0.0923 -0.4848 -0.4558
   57DOPE  H11Y 7331   5.250   4.986  14.650  1.2254 -0.5503  0.1074
   57DOPE  C312 7332   5.253   4.869  14.820  0.2537 -0.1314  0.0682
   57DOPE  H12X 7333   5.338   4.919  14.870  0.7513 -2.6163  1.9066
   57DOPE  H12Y 7334   5.257   4.765  14.858 -0.2188 -0.4167 -0.6449
   57DOPE  C313 7335   5.121   4.921  14.886 -0.2142 -1.3673 -0.2842
   57DOPE  H13X 7336   5.093   5.026  14.865 -1.3400 -1.0445  2.4508
   57DOPE  H13Y 7337   5.040   4.858  14.844 -1.4491 -0.1230  0.1676
   57DOPE  C314 7338   5.127   4.907  15.037  0.5752 -0.0088  0.4866
   57DOPE  H14X 7339   5.208   4.973  15.075  0.1930  0.2714  0.8279
   57DOPE  H14Y 7340   5.145   4.799  15.055  0.2714 -0.1939 -0.2843
   57DOPE  C315 7341   5.007   4.963  15.116  0.2400  0.5116  0.1065
   57DOPE  H15X 7342   4.929   4.890  15.086  0.4608  0.4134 -0.2426
   57DOPE  H15Y 7343   4.970   5.061  15.081  0.8283  1.5849  2.2958
   57DOPE  C316 7344   5.024   4.965  15.269  0.0341 -0.0299 -0.1859
   57DOPE  H16X 7345   5.102   5.042  15.284 -0.5281  0.3638  0.7744
   57DOPE  H16Y 7346   5.072   4.873  15.309  0.5797  0.2974 -0.0899
   57DOPE  C317 7347   4.895   5.010  15.343  0.1688 -0.5117 -0.2169
   57DOPE  H17X 7348   4.838   5.083  15.282  0.3451 -0.3877 -0.2332
   57DOPE  H17Y 7349   4.836   4.917  15.354  0.6913 -0.7524  0.6065
   57DOPE  C318 7350   4.915   5.067  15.483 -0.4012  0.1634 -0.7765
   57DOPE  H18X 7351   4.974   5.161  15.472 -1.8127  0.9700 -1.6984
   57DOPE  H18Y 7352   4.818   5.079  15.535 -0.6106  1.3321 -1.4161
   57DOPE  H18Z 7353   4.976   4.997  15.545  2.5307  0.9901 -2.5082
   58DOPE     N 7354   4.937   3.658  12.322  0.3238  0.3656  0.1026
   58DOPE   HN1 7355   4.849   3.602  12.318  1.7212 -1.8885 -0.9323
   58DOPE   HN2 7356   4.930   3.754  12.280  0.3029 -0.6429 -2.4033
   58DOPE   HN3 7357   5.005   3.612  12.259 -0.7593  0.8826 -1.5319
   58DOPE   C12 7358   5.000   3.651  12.455 -0.0190 -0.1527  0.0699
   58DOPE  H12A 7359   4.931   3.690  12.533 -1.1885  0.2851 -1.1686
   58DOPE  H12B 7360   5.090   3.714  12.435  0.7782 -2.1062 -3.3137
   58DOPE   C11 7361   5.036   3.504  12.487  0.8573 -0.8573 -0.0723
   58DOPE  H11A 7362   4.933   3.462  12.489 -0.8514  2.8146 -0.9117
   58DOPE  H11B 7363   5.077   3.503  12.590 -0.6621  0.1450  0.5946
   58DOPE     P 7364   5.124   3.295  12.372 -0.2187  0.2905 -0.2693
   58DOPE   O13 7365   5.253   3.272  12.300  0.2305  0.3003 -0.5448
   58DOPE   O14 7366   5.002   3.247  12.300  0.7537 -0.6506  0.1385
   58DOPE   O11 7367   5.120   3.234  12.512 -0.6826  0.7093 -0.3268
   58DOPE   O12 7368   5.114   3.450  12.381 -0.2002 -0.6564 -0.5021
   58DOPE    C1 7369   5.024   3.135  12.564 -0.1521 -0.2244 -0.8014
   58DOPE    HA 7370   5.056   3.032  12.539  1.7856  0.7716 -2.7928
   58DOPE    HB 7371   4.926   3.151  12.515 -0.6013 -0.4858  0.0014
   58DOPE    C2 7372   5.015   3.137  12.723  0.1204  0.3718  0.0135
   58DOPE    HS 7373   4.952   3.058  12.769  1.6163 -0.5404  0.5836
   58DOPE   O21 7374   4.959   3.265  12.756 -0.0314 -0.4805  0.3905
   58DOPE   C21 7375   4.828   3.277  12.745  0.2717  0.5267  0.0796
   58DOPE   O22 7376   4.751   3.188  12.718  0.6169  0.3190 -0.1888
   58DOPE   C22 7377   4.791   3.421  12.781  0.6216 -0.2418 -0.0465
   58DOPE   H2R 7378   4.688   3.448  12.748 -0.0406  0.2038  2.1922
   58DOPE   H2S 7379   4.852   3.492  12.722  1.1904 -1.1598 -0.5833
   58DOPE    C3 7380   5.148   3.121  12.793 -0.3780  0.3269 -0.2770
   58DOPE    HX 7381   5.198   3.217  12.768  0.9415 -0.0221  0.9078
   58DOPE    HY 7382   5.209   3.037  12.756  1.7980  2.0329 -0.7399
   58DOPE   O31 7383   5.122   3.100  12.931 -0.1491  0.7745 -0.2271
   58DOPE   C31 7384   5.201   3.166  13.008  0.6073 -0.0874  0.2059
   58DOPE   O32 7385   5.306   3.218  12.974  0.1239  0.3471  0.4688
   58DOPE   C32 7386   5.149   3.146  13.149 -0.2787 -0.3523 -0.4252
   58DOPE   H2X 7387   5.046   3.188  13.151 -0.9139 -1.5026 -3.5256
   58DOPE   H2Y 7388   5.147   3.035  13.162  1.3259 -0.3621 -0.0132
   58DOPE   C23 7389   4.804   3.444  12.935 -0.4858 -0.0876  0.5525
   58DOPE   H3R 7390   4.823   3.551  12.956  1.1593 -0.3477  0.5327
   58DOPE   H3S 7391   4.893   3.388  12.972 -0.4971 -0.9898 -0.7344
   58DOPE   C24 7392   4.691   3.385  13.012  0.2104 -0.1482 -0.3112
   58DOPE   H4R 7393   4.669   3.285  12.969 -1.2498 -0.4740  1.1091
   58DOPE   H4S 7394   4.589   3.426  12.999 -1.6257 -4.0322  0.2684
   58DOPE   C25 7395   4.722   3.357  13.163  0.0591 -0.5236 -0.4811
   58DOPE   H5R 7396   4.747   3.461  13.195 -1.9758 -0.2261  0.2695
   58DOPE   H5S 7397   4.815   3.296  13.170 -0.3874 -1.4025 -1.8062
   58DOPE   C26 7398   4.596   3.306  13.241 -0.0213  0.0501  0.0745
   58DOPE   H6R 7399   4.559   3.220  13.182 -1.9990  0.1333  1.1348
   58DOPE   H6S 7400   4.516   3.380  13.223 -1.0858 -1.4755 -1.9482
   58DOPE   C27 7401   4.612   3.286  13.392  0.1660  0.1020 -0.6331
   58DOPE   H7R 7402   4.663   3.377  13.429  2.2892 -1.1487 -0.3243
   58DOPE   H7S 7403   4.686   3.207  13.417  0.0346 -0.2597 -1.3387
   58DOPE   C28 7404   4.477   3.250  13.468  0.1656 -0.0234 -0.3964
   58DOPE   H8R 7405   4.399   3.325  13.443 -1.7948 -0.7523  2.9403
   58DOPE   H8S 7406   4.491   3.264  13.577  0.7366 -4.9419  0.3561
   58DOPE   C29 7407   4.418   3.115  13.429  0.3146  0.5676 -0.0652
   58DOPE   H9R 7408   4.397   3.095  13.323 -0.2568 -0.0531  0.1583
   58DOPE  C210 7409   4.407   3.001  13.509  0.0945 -0.0238 -0.9278
   58DOPE  H10R 7410   4.370   2.907  13.465  2.4771 -0.5722 -1.9227
   58DOPE  C211 7411   4.413   3.014  13.664  0.3198 -0.2362 -0.7661
   58DOPE  H11R 7412   4.339   2.952  13.719 -2.3816  1.0743 -2.6919
   58DOPE  H11S 7413   4.384   3.116  13.695 -2.0180 -0.1011 -3.0496
   58DOPE  C212 7414   4.561   2.985  13.714 -0.3736 -0.5460 -0.2385
   58DOPE  H12R 7415   4.631   3.069  13.694  0.9542 -2.1442 -2.9673
   58DOPE  H12S 7416   4.600   2.907  13.644  2.4647  2.1908 -1.9945
   58DOPE  C213 7417   4.577   2.949  13.864 -0.2884  0.3783  0.4237
   58DOPE  H13R 7418   4.684   2.946  13.894 -0.4643  1.5325  1.2241
   58DOPE  H13S 7419   4.542   2.844  13.872  1.2001 -0.0974  1.1822
   58DOPE  C214 7420   4.498   3.021  13.971 -0.0450  0.7591 -0.2408
   58DOPE  H14R 7421   4.388   3.029  13.954 -0.1257  1.6668  0.6037
   58DOPE  H14S 7422   4.533   3.127  13.978  1.8343  0.2618 -1.4459
   58DOPE  C215 7423   4.516   2.958  14.110 -0.5089 -0.0058  0.3311
   58DOPE  H15R 7424   4.624   2.977  14.132 -0.2604  1.0789 -1.6392
   58DOPE  H15S 7425   4.506   2.847  14.104  1.9942 -0.3773  1.5542
   58DOPE  C216 7426   4.433   3.026  14.219 -0.3679 -0.0885  0.2341
   58DOPE  H16R 7427   4.330   3.032  14.178 -0.1425 -2.2367 -0.7901
   58DOPE  H16S 7428   4.478   3.127  14.227  0.2004 -0.3479  0.3647
   58DOPE  C217 7429   4.436   2.951  14.356 -0.0583  0.5569  0.7449
   58DOPE  H17R 7430   4.384   2.856  14.332  0.8620  0.6723 -2.1522
   58DOPE  H17S 7431   4.373   2.999  14.434 -0.4612 -1.6275  1.8372
   58DOPE  C218 7432   4.574   2.926  14.406 -0.2813  0.4221 -0.4947
   58DOPE  H18R 7433   4.561   2.906  14.515  2.5204  2.8705  0.4016
   58DOPE  H18S 7434   4.647   3.009  14.396  1.5149 -0.9280  0.6908
   58DOPE  H18T 7435   4.614   2.837  14.352 -2.2368 -0.2318 -0.9470
   58DOPE   C33 7436   5.259   3.215  13.239  0.2950 -0.6434  0.2358
   58DOPE   H3X 7437   5.244   3.322  13.213  0.3251 -0.9589 -1.1110
   58DOPE   H3Y 7438   5.364   3.187  13.217  1.0559  1.2716  1.1743
   58DOPE   C34 7439   5.226   3.196  13.390 -0.5814  0.1432  0.0189
   58DOPE   H4X 7440   5.126   3.242  13.400 -1.0703 -0.9104  0.1290
   58DOPE   H4Y 7441   5.213   3.086  13.403 -1.0114  0.2383  0.3907
   58DOPE   C35 7442   5.313   3.262  13.487  0.3715  0.2150  0.0179
   58DOPE   H5X 7443   5.329   3.371  13.469  1.7820 -0.0554 -0.5101
   58DOPE   H5Y 7444   5.416   3.227  13.463  1.3114  1.9908  1.1859
   58DOPE   C36 7445   5.272   3.233  13.637 -0.2901 -0.3626  0.3462
   58DOPE   H6X 7446   5.277   3.122  13.639 -2.0800 -0.4985 -0.2737
   58DOPE   H6Y 7447   5.165   3.255  13.657 -0.3440 -0.5376  0.2559
   58DOPE   C37 7448   5.369   3.296  13.742 -0.1820 -0.1339  0.4195
   58DOPE   H7X 7449   5.466   3.245  13.727 -0.4708 -0.2056 -1.5182
   58DOPE   H7Y 7450   5.389   3.401  13.711  2.0085 -1.4162 -3.1724
   58DOPE   C38 7451   5.309   3.280  13.886  0.6578 -0.5231  0.8349
   58DOPE   H8X 7452   5.208   3.326  13.888 -0.3189 -2.5539  1.0636
   58DOPE   H8Y 7453   5.385   3.330  13.950 -0.2722  0.4105  1.2374
   58DOPE   C39 7454   5.287   3.137  13.919  0.6460  0.8972  1.1319
   58DOPE   H9X 7455   5.262   3.067  13.838 -0.3046  1.5597  0.8404
   58DOPE  C310 7456   5.310   3.072  14.032 -0.2482  0.1154 -0.3327
   58DOPE  H10X 7457   5.301   2.963  14.023  0.7949 -0.2926  2.5681
   58DOPE  C311 7458   5.371   3.128  14.162  0.6556  0.1412 -0.5080
   58DOPE  H11X 7459   5.474   3.091  14.176  1.1664  1.4250 -0.7243
   58DOPE  H11Y 7460   5.386   3.238  14.160 -0.5833  0.3863  1.3352
   58DOPE  C312 7461   5.290   3.080  14.284  0.2493 -0.4175 -0.2461
   58DOPE  H12X 7462   5.290   2.969  14.284 -1.1694 -0.4369 -0.2114
   58DOPE  H12Y 7463   5.182   3.108  14.280  0.2694 -0.4636 -1.2285
   58DOPE  C313 7464   5.347   3.119  14.425  0.3855 -0.1614 -0.7316
   58DOPE  H13X 7465   5.439   3.062  14.450  0.8956  1.3339  0.9945
   58DOPE  H13Y 7466   5.372   3.227  14.422  1.0186 -0.2846 -0.2779
   58DOPE  C314 7467   5.245   3.092  14.537  0.3144  0.2137 -0.1485
   58DOPE  H14X 7468   5.246   2.981  14.550 -3.2067  0.0252 -0.6515
   58DOPE  H14Y 7469   5.143   3.124  14.507  0.3905 -0.3726 -1.0786
   58DOPE  C315 7470   5.267   3.159  14.677  0.3725  0.3434 -0.1511
   58DOPE  H15X 7471   5.248   3.267  14.659  0.5810  0.3863 -0.1144
   58DOPE  H15Y 7472   5.373   3.145  14.708  0.2711 -0.1018  0.0041
   58DOPE  C316 7473   5.184   3.096  14.780  0.2392  0.0227 -0.1225
   58DOPE  H16X 7474   5.196   2.986  14.774  0.8494  0.0487  0.5128
   58DOPE  H16Y 7475   5.075   3.108  14.762 -0.5710 -1.0355  3.3259
   58DOPE  C317 7476   5.210   3.144  14.924 -0.4500  0.0019 -0.4325
   58DOPE  H17X 7477   5.130   3.095  14.982 -0.8333  0.3010 -0.6976
   58DOPE  H17Y 7478   5.310   3.112  14.959  0.0119  1.0750 -0.7173
   58DOPE  C318 7479   5.203   3.297  14.945 -0.6566  0.3625  0.4126
   58DOPE  H18X 7480   5.257   3.332  15.036 -2.1612  1.0402  1.0834
   58DOPE  H18Y 7481   5.265   3.338  14.862  1.2534 -1.3182  0.9240
   58DOPE  H18Z 7482   5.098   3.333  14.947 -0.1989  2.0584 -1.9637
   59DOPE     N 7483   0.001   5.330  13.315 -0.0224  0.0882  0.4980
   59DOPE   HN1 7484  -0.086   5.382  13.291  0.8334  1.0158 -0.7384
   59DOPE   HN2 7485   0.071   5.363  13.245 -0.3683  0.1954  0.2029
   59DOPE   HN3 7486  -0.007   5.226  13.313  0.6183  0.0086  1.5113
   59DOPE   C12 7487   0.058   5.368  13.440  0.1494 -0.4694  0.1946
   59DOPE  H12A 7488   0.164   5.335  13.434  0.7125  1.4868 -3.1110
   59DOPE  H12B 7489   0.009   5.325  13.530 -0.5137 -1.6725 -0.7024
   59DOPE   C11 7490   0.061   5.517  13.441  0.8749 -0.6239  0.2131
   59DOPE  H11A 7491   0.127   5.567  13.366  0.2018  0.4468  0.3219
   59DOPE  H11B 7492   0.097   5.550  13.541  1.4305  0.2422 -0.2522
   59DOPE     P 7493  -0.105   5.709  13.463 -0.0341  0.5257 -0.2952
   59DOPE   O13 7494  -0.249   5.716  13.433  0.0830  0.3508  0.5067
   59DOPE   O14 7495  -0.015   5.813  13.402 -0.2116 -0.3194  0.0192
   59DOPE   O11 7496  -0.081   5.692  13.620 -0.7831  0.3610 -0.1486
   59DOPE   O12 7497  -0.065   5.575  13.405  0.2128  0.5698  0.2408
   59DOPE    C1 7498  -0.181   5.633  13.701  0.2607  0.5306 -0.0290
   59DOPE    HA 7499  -0.141   5.545  13.756  0.1462 -0.1046 -0.9320
   59DOPE    HB 7500  -0.270   5.595  13.646  0.6870 -1.3212  0.4776
   59DOPE    C2 7501  -0.226   5.737  13.811  0.6584 -0.1542  0.1762
   59DOPE    HS 7502  -0.281   5.678  13.887  2.9455  0.8341  2.7641
   59DOPE   O21 7503  -0.300   5.842  13.752 -0.1892  0.4832  0.3984
   59DOPE   C21 7504  -0.422   5.795  13.714 -0.6513  0.1424  0.3887
   59DOPE   O22 7505  -0.474   5.695  13.761  0.2666 -0.2711  0.1694
   59DOPE   C22 7506  -0.470   5.878  13.599  0.5344  1.0257 -1.0497
   59DOPE   H2R 7507  -0.480   5.814  13.508 -0.1498  1.8479 -1.5657
   59DOPE   H2S 7508  -0.408   5.968  13.577 -2.2166  3.0921 -0.7618
   59DOPE    C3 7509  -0.105   5.797  13.886  0.9957 -0.3671 -0.0091
   59DOPE    HX 7510  -0.040   5.852  13.814 -0.4744  0.2681 -0.9088
   59DOPE    HY 7511  -0.042   5.714  13.923  0.7559  0.0317  1.3269
   59DOPE   O31 7512  -0.140   5.882  13.999  0.1040 -0.4436 -0.2089
   59DOPE   C31 7513  -0.165   5.823  14.108  0.7279  0.0477  0.1515
   59DOPE   O32 7514  -0.169   5.703  14.133 -0.4145  0.4079  0.4111
   59DOPE   C32 7515  -0.198   5.930  14.212  0.0242 -0.1068  0.1139
   59DOPE   H2X 7516  -0.122   6.010  14.196  0.7572 -1.0984 -1.6193
   59DOPE   H2Y 7517  -0.293   5.977  14.177 -1.0688 -0.6923  2.1599
   59DOPE   C23 7518  -0.616   5.931  13.621  0.4837  0.7403  0.0142
   59DOPE   H3R 7519  -0.680   5.851  13.663  1.6287 -1.6104 -2.4052
   59DOPE   H3S 7520  -0.676   5.951  13.530  2.7242  0.5480 -1.5861
   59DOPE   C24 7521  -0.608   6.052  13.709 -0.9716 -0.4900 -0.4524
   59DOPE   H4R 7522  -0.594   6.148  13.654 -1.2572 -0.8408 -1.1411
   59DOPE   H4S 7523  -0.526   6.022  13.777 -1.8775 -0.1147  0.8571
   59DOPE   C25 7524  -0.739   6.078  13.799 -0.4350 -0.2999 -0.2746
   59DOPE   H5R 7525  -0.783   5.982  13.833  0.0027 -1.0048 -1.6406
   59DOPE   H5S 7526  -0.815   6.113  13.725 -1.6206 -0.4503  0.8303
   59DOPE   C26 7527  -0.715   6.174  13.913 -0.0802 -0.0014 -0.0890
   59DOPE   H6R 7528  -0.815   6.180  13.962 -0.1685  0.3636 -0.3071
   59DOPE   H6S 7529  -0.671   6.275  13.896  1.2722 -0.4980  0.3612
   59DOPE   C27 7530  -0.635   6.099  14.019 -0.3790 -0.4456 -0.4071
   59DOPE   H7R 7531  -0.531   6.095  13.982 -0.6886 -1.5174 -1.2173
   59DOPE   H7S 7532  -0.672   5.995  14.030  0.3805 -0.5776  1.2072
   59DOPE   C28 7533  -0.646   6.166  14.158 -0.5183 -0.8065  0.7413
   59DOPE   H8R 7534  -0.750   6.200  14.176  0.0736  1.0785  0.8773
   59DOPE   H8S 7535  -0.580   6.255  14.147  0.8875 -1.5928  2.4201
   59DOPE   C29 7536  -0.587   6.089  14.272 -0.1124 -0.0467  0.2202
   59DOPE   H9R 7537  -0.527   6.003  14.240 -0.0317  0.4230 -0.9326
   59DOPE  C210 7538  -0.623   6.099  14.399 -0.0879  0.1442 -0.6773
   59DOPE  H10R 7539  -0.567   6.054  14.482 -2.8102  1.5691  2.1401
   59DOPE  C211 7540  -0.732   6.198  14.455 -0.1452 -0.0388  1.1358
   59DOPE  H11R 7541  -0.833   6.155  14.438 -0.4630  0.3830  1.8786
   59DOPE  H11S 7542  -0.716   6.298  14.409 -2.0126  1.2233  3.0136
   59DOPE  C212 7543  -0.713   6.218  14.608 -0.9527 -0.2661 -0.1105
   59DOPE  H12R 7544  -0.608   6.246  14.633 -0.3358 -1.7346 -0.9478
   59DOPE  H12S 7545  -0.719   6.127  14.672  0.1914  2.2840  4.0166
   59DOPE  C213 7546  -0.785   6.331  14.688 -0.5977 -0.1425  0.0791
   59DOPE  H13R 7547  -0.893   6.304  14.685 -0.3070 -1.3179 -2.7138
   59DOPE  H13S 7548  -0.778   6.428  14.635 -1.5387  0.6285  1.2987
   59DOPE  C214 7549  -0.744   6.341  14.836  0.4554  0.0036 -0.5501
   59DOPE  H14R 7550  -0.802   6.430  14.869  1.8238  0.7610 -0.0897
   59DOPE  H14S 7551  -0.635   6.363  14.829  0.3903  0.1734 -1.1461
   59DOPE  C215 7552  -0.772   6.212  14.912  0.7078 -0.5227 -0.3798
   59DOPE  H15R 7553  -0.703   6.144  14.859  1.7303  0.5970 -0.5273
   59DOPE  H15S 7554  -0.874   6.177  14.884  1.6347 -1.7349 -2.4304
   59DOPE  C216 7555  -0.744   6.207  15.060 -0.5317  0.0519  0.2361
   59DOPE  H16R 7556  -0.659   6.269  15.096  0.3569 -1.3426  0.6497
   59DOPE  H16S 7557  -0.717   6.103  15.091 -1.6984  0.0649  1.3994
   59DOPE  C217 7558  -0.866   6.256  15.141 -0.1909  0.2970 -0.1519
   59DOPE  H17R 7559  -0.951   6.191  15.112 -1.0644  2.1575 -2.0718
   59DOPE  H17S 7560  -0.889   6.359  15.104 -3.0367 -0.2755 -0.2443
   59DOPE  C218 7561  -0.841   6.265  15.297  0.2617 -0.3222  0.4241
   59DOPE  H18R 7562  -0.917   6.316  15.359  1.5034  0.1019  1.6519
   59DOPE  H18S 7563  -0.742   6.309  15.323  0.6341 -2.7485  3.7895
   59DOPE  H18T 7564  -0.845   6.162  15.337  0.2326 -0.8863 -0.9506
   59DOPE   C33 7565  -0.205   5.883  14.356  0.0577  0.5195 -0.3783
   59DOPE   H3X 7566  -0.106   5.835  14.373  0.1959  1.3632  1.4769
   59DOPE   H3Y 7567  -0.281   5.805  14.377 -0.7261  0.5630 -2.7773
   59DOPE   C34 7568  -0.210   5.992  14.458  0.2640  0.3752  0.1894
   59DOPE   H4X 7569  -0.141   6.076  14.433  0.4873 -0.2568 -1.4691
   59DOPE   H4Y 7570  -0.313   6.032  14.468 -0.0382 -0.6651  1.3980
   59DOPE   C35 7571  -0.172   5.945  14.598 -0.1853  0.3734  0.1290
   59DOPE   H5X 7572  -0.064   5.923  14.610 -0.3619  0.8509  3.5278
   59DOPE   H5Y 7573  -0.233   5.855  14.618 -0.2415  0.7323  1.6738
   59DOPE   C36 7574  -0.219   6.045  14.700  0.2863  0.4227  0.2850
   59DOPE   H6X 7575  -0.329   6.038  14.700  0.1192  2.4068 -0.3465
   59DOPE   H6Y 7576  -0.194   6.146  14.661 -0.9524  1.3303  1.7616
   59DOPE   C37 7577  -0.156   6.036  14.838  0.1181  0.8099  0.2153
   59DOPE   H7X 7578  -0.141   5.929  14.862 -2.6290  0.4926  0.8649
   59DOPE   H7Y 7579  -0.053   6.075  14.821  0.2910 -0.6023 -2.5847
   59DOPE   C38 7580  -0.240   6.096  14.958  0.6173 -0.1814 -0.2743
   59DOPE   H8X 7581  -0.190   6.075  15.054 -1.5131 -0.1789  0.9113
   59DOPE   H8Y 7582  -0.325   6.026  14.973  2.0454 -1.4633  2.5018
   59DOPE   C39 7583  -0.273   6.245  14.939  0.7348  0.2873 -0.0771
   59DOPE   H9X 7584  -0.244   6.289  14.843 -0.2629 -2.5714 -1.8219
   59DOPE  C310 7585  -0.331   6.329  15.033 -0.5793  0.3147  0.6282
   59DOPE  H10X 7586  -0.358   6.430  14.999  1.1652  1.5527  2.6247
   59DOPE  C311 7587  -0.375   6.278  15.169 -0.9191  0.3008  0.3115
   59DOPE  H11X 7588  -0.465   6.339  15.190 -0.5996  0.4463  1.3142
   59DOPE  H11Y 7589  -0.387   6.168  15.170  2.2085 -0.1462  1.2587
   59DOPE  C312 7590  -0.271   6.314  15.274  0.7426 -0.0847 -0.0645
   59DOPE  H12X 7591  -0.241   6.418  15.246 -3.3578  0.7021 -2.3900
   59DOPE  H12Y 7592  -0.184   6.245  15.269  0.8326 -0.0314  0.6886
   59DOPE  C313 7593  -0.337   6.316  15.403 -0.0769  0.0341 -0.5239
   59DOPE  H13X 7594  -0.281   6.395  15.460 -0.6190 -0.0208  0.0949
   59DOPE  H13Y 7595  -0.443   6.349  15.406 -0.5004 -1.3075  1.3433
   59DOPE  C314 7596  -0.325   6.182  15.485  0.2866  0.3097 -0.4193
   59DOPE  H14X 7597  -0.220   6.149  15.476  0.4243  0.4096  0.6814
   59DOPE  H14Y 7598  -0.384   6.096  15.445  0.7641 -1.0101  1.5957
   59DOPE  C315 7599  -0.342   6.197  15.633  0.6141 -0.1747 -0.0832
   59DOPE  H15X 7600  -0.263   6.262  15.677  0.5620 -0.5305  0.5459
   59DOPE  H15Y 7601  -0.338   6.100  15.686  0.2463  1.3915  3.0933
   59DOPE  C316 7602  -0.472   6.268  15.688 -0.5078 -0.2805 -0.1905
   59DOPE  H16X 7603  -0.487   6.372  15.651 -0.5444 -0.5387 -0.9156
   59DOPE  H16Y 7604  -0.465   6.288  15.797  0.6833 -1.3950 -0.0394
   59DOPE  C317 7605  -0.594   6.190  15.675  0.3892 -0.1604 -0.1522
   59DOPE  H17X 7606  -0.617   6.169  15.569 -1.6341  1.1404 -0.0204
   59DOPE  H17Y 7607  -0.585   6.091  15.726  1.7815  0.0135 -0.0101
   59DOPE  C318 7608  -0.714   6.258  15.739  0.8902 -0.3039  0.1354
   59DOPE  H18X 7609  -0.696   6.275  15.847  1.3790 -0.6007  0.0993
   59DOPE  H18Y 7610  -0.735   6.351  15.682 -1.1034 -0.9141 -0.1923
   59DOPE  H18Z 7611  -0.810   6.202  15.734  1.4939 -1.2710 -0.9917
   60DOPE     N 7612   6.117   3.924  12.879  1.2240 -0.0154 -0.1743
   60DOPE   HN1 7613   6.198   3.871  12.916 -0.4618 -2.2201  0.5572
   60DOPE   HN2 7614   6.035   3.864  12.899  1.1204  0.0508 -0.4030
   60DOPE   HN3 7615   6.132   3.930  12.776 -0.9253  1.6193 -0.4797
   60DOPE   C12 7616   6.099   4.051  12.944  0.3704 -0.0559  1.0976
   60DOPE  H12A 7617   6.075   4.038  13.052 -3.4890  1.2130  0.5418
   60DOPE  H12B 7618   6.012   4.100  12.896  1.6094  1.3026  0.1419
   60DOPE   C11 7619   6.230   4.137  12.932 -0.5099 -0.2721  0.2256
   60DOPE  H11A 7620   6.264   4.137  12.826  0.3437  1.2937  0.4606
   60DOPE  H11B 7621   6.315   4.089  12.986 -2.0129 -0.7545  2.2792
   60DOPE     P 7622   6.253   4.310  13.127  0.1286 -0.0649  0.1743
   60DOPE   O13 7623   6.168   4.422  13.179  0.0303 -0.3399  0.4469
   60DOPE   O14 7624   6.399   4.334  13.131 -0.2129  0.0407 -0.3142
   60DOPE   O11 7625   6.225   4.177  13.210 -0.3769 -0.2715 -0.2503
   60DOPE   O12 7626   6.211   4.267  12.982  0.5903  0.3225 -0.2342
   60DOPE    C1 7627   6.112   4.165  13.292 -0.4590  0.1317  0.6046
   60DOPE    HA 7628   6.081   4.058  13.291 -2.4807  0.6597  1.6343
   60DOPE    HB 7629   6.021   4.212  13.248 -1.8485 -2.3666  0.6057
   60DOPE    C2 7630   6.129   4.222  13.436 -1.3574  0.2076 -1.2110
   60DOPE    HS 7631   6.124   4.333  13.438  0.2346  0.3025 -0.9208
   60DOPE   O21 7632   6.251   4.172  13.490 -0.2648 -0.6101 -0.4717
   60DOPE   C21 7633   6.317   4.247  13.579  0.7097  0.8423  0.0733
   60DOPE   O22 7634   6.276   4.355  13.617  0.3474 -0.4890  0.4556
   60DOPE   C22 7635   6.443   4.172  13.614  0.0609 -0.0492 -0.5319
   60DOPE   H2R 7636   6.495   4.163  13.516 -2.1939 -2.6623 -1.6163
   60DOPE   H2S 7637   6.420   4.068  13.646  3.2238 -0.6014  0.3628
   60DOPE    C3 7638   6.015   4.170  13.527  0.2316 -0.3075 -0.6336
   60DOPE    HX 7639   5.997   4.066  13.495  0.1327 -0.1871 -0.9781
   60DOPE    HY 7640   5.926   4.229  13.496 -0.1051 -0.5641 -0.1508
   60DOPE   O31 7641   6.032   4.171  13.671  0.5633  0.3165 -1.1455
   60DOPE   C31 7642   5.999   4.285  13.734 -0.6425 -0.7533 -0.3401
   60DOPE   O32 7643   5.950   4.383  13.676 -0.5786 -0.2408 -0.6876
   60DOPE   C32 7644   6.044   4.277  13.884  0.3163 -0.3759  0.4627
   60DOPE   H2X 7645   6.004   4.180  13.920 -1.8357 -0.3604 -1.6662
   60DOPE   H2Y 7646   6.154   4.287  13.895  0.4167 -1.4700  0.5725
   60DOPE   C23 7647   6.538   4.239  13.716  0.1533 -0.6939 -1.2432
   60DOPE   H3R 7648   6.524   4.349  13.714  0.4776 -0.4936  2.1595
   60DOPE   H3S 7649   6.645   4.217  13.696  0.8233  0.2475  0.9910
   60DOPE   C24 7650   6.511   4.182  13.856 -0.2875 -0.2051 -0.0804
   60DOPE   H4R 7651   6.523   4.072  13.853  1.0772 -0.1129  1.0268
   60DOPE   H4S 7652   6.406   4.209  13.881 -0.0736  0.7660 -0.1973
   60DOPE   C25 7653   6.601   4.250  13.966 -0.8122 -0.2057  0.4132
   60DOPE   H5R 7654   6.588   4.358  13.949  1.2412  0.2448  1.3886
   60DOPE   H5S 7655   6.705   4.218  13.944 -1.9281 -1.4799 -3.7933
   60DOPE   C26 7656   6.552   4.206  14.107  0.0214 -0.0873 -0.2175
   60DOPE   H6R 7657   6.632   4.184  14.180 -0.2879 -0.0521  0.1367
   60DOPE   H6S 7658   6.506   4.105  14.104  2.7887 -1.4661  0.7980
   60DOPE   C27 7659   6.450   4.303  14.173  0.1285  0.7218  0.6226
   60DOPE   H7R 7660   6.425   4.275  14.278 -1.4660  2.1649  0.6932
   60DOPE   H7S 7661   6.355   4.293  14.116  1.0908  1.4864 -1.1916
   60DOPE   C28 7662   6.490   4.452  14.175 -0.7223  0.0806  0.0933
   60DOPE   H8R 7663   6.420   4.516  14.234  0.0950  0.6497  0.4564
   60DOPE   H8S 7664   6.476   4.482  14.068 -1.2374 -2.3617 -0.5790
   60DOPE   C29 7665   6.633   4.476  14.228 -0.1477 -0.1372  0.6071
   60DOPE   H9R 7666   6.700   4.501  14.145 -0.6725  0.7094  0.4175
   60DOPE  C210 7667   6.672   4.484  14.354  0.2840  0.5010 -0.6269
   60DOPE  H10R 7668   6.777   4.509  14.371  0.2730  0.5176 -0.5825
   60DOPE  C211 7669   6.589   4.468  14.483  0.3794 -0.6499  0.0190
   60DOPE  H11R 7670   6.482   4.461  14.454  0.6888  0.5490 -1.5572
   60DOPE  H11S 7671   6.611   4.550  14.554  1.2379 -2.1094  1.5108
   60DOPE  C212 7672   6.626   4.334  14.556 -0.0160 -0.1878  0.0825
   60DOPE  H12R 7673   6.735   4.338  14.577 -0.1515 -0.7164  0.9120
   60DOPE  H12S 7674   6.590   4.242  14.504 -0.8992  0.4670 -0.5076
   60DOPE  C213 7675   6.572   4.337  14.698 -0.4658 -0.6234 -1.1178
   60DOPE  H13R 7676   6.461   4.339  14.702 -0.5085  3.2750  2.3246
   60DOPE  H13S 7677   6.594   4.441  14.728 -0.7459 -0.3217 -1.9154
   60DOPE  C214 7678   6.619   4.226  14.791 -0.1173  0.4683 -0.2091
   60DOPE  H14R 7679   6.726   4.208  14.771 -0.2510  0.9893 -1.5163
   60DOPE  H14S 7680   6.573   4.134  14.750  1.7201  0.5618 -2.7360
   60DOPE  C215 7681   6.583   4.252  14.935  0.0440  0.2051 -0.5452
   60DOPE  H15R 7682   6.474   4.272  14.928  0.0344  0.7721  0.8480
   60DOPE  H15S 7683   6.628   4.340  14.986 -1.2222  0.3879  0.3196
   60DOPE  C216 7684   6.607   4.132  15.030  0.3034  0.2264 -0.1989
   60DOPE  H16R 7685   6.717   4.118  15.023  0.2766 -1.5025  1.7538
   60DOPE  H16S 7686   6.555   4.041  14.994 -0.3166  0.0541  1.0793
   60DOPE  C217 7687   6.591   4.162  15.180 -0.1960 -0.2523 -0.1252
   60DOPE  H17R 7688   6.654   4.248  15.212  1.2134 -1.1809 -0.3048
   60DOPE  H17S 7689   6.623   4.073  15.237 -1.8291 -2.1506 -1.9782
   60DOPE  C218 7690   6.449   4.197  15.219 -1.5018  0.2535  0.3484
   60DOPE  H18R 7691   6.425   4.300  15.186 -1.2144 -0.3973 -2.1302
   60DOPE  H18S 7692   6.428   4.179  15.327  0.8924 -2.9164  0.4576
   60DOPE  H18T 7693   6.377   4.139  15.157 -0.0628  0.4719 -1.6332
   60DOPE   C33 7694   5.995   4.390  13.972  0.5860  0.1171 -0.5528
   60DOPE   H3X 7695   5.884   4.383  13.981  0.5135 -0.9093 -1.8468
   60DOPE   H3Y 7696   6.024   4.487  13.927 -0.0922  0.2786 -0.6632
   60DOPE   C34 7697   6.059   4.397  14.109  0.4061  0.2148 -0.4172
   60DOPE   H4X 7698   6.169   4.411  14.099  0.5987  0.0131  1.1918
   60DOPE   H4Y 7699   6.007   4.486  14.150  0.5698 -0.0047  0.2822
   60DOPE   C35 7700   6.025   4.277  14.205  0.3085  0.2497  0.2867
   60DOPE   H5X 7701   6.034   4.177  14.159 -1.2739 -0.3219  1.1146
   60DOPE   H5Y 7702   5.917   4.299  14.219  0.0153  0.5787 -2.1645
   60DOPE   C36 7703   6.104   4.275  14.334  0.0275 -0.1582 -0.3340
   60DOPE   H6X 7704   6.213   4.269  14.317 -0.1817  1.5099 -2.8100
   60DOPE   H6Y 7705   6.071   4.185  14.391 -0.0520 -1.0107 -1.6715
   60DOPE   C37 7706   6.078   4.404  14.422 -0.8043 -0.7195 -0.9962
   60DOPE   H7X 7707   6.111   4.494  14.366 -1.0301 -0.3547 -0.5555
   60DOPE   H7Y 7708   5.973   4.418  14.455 -0.4479  1.0724 -0.4951
   60DOPE   C38 7709   6.151   4.388  14.562 -0.3465  0.2232  0.2829
   60DOPE   H8X 7710   6.243   4.336  14.529 -0.4112  1.2045 -1.6441
   60DOPE   H8Y 7711   6.087   4.319  14.621 -1.3644  2.1076  1.4664
   60DOPE   C39 7712   6.163   4.512  14.640 -0.0877 -0.0814 -0.2301
   60DOPE   H9X 7713   6.138   4.605  14.588 -0.2660  0.1575  0.2773
   60DOPE  C310 7714   6.196   4.519  14.766 -0.1804  0.5051 -0.7257
   60DOPE  H10X 7715   6.222   4.621  14.800  2.1836  0.1426 -1.2859
   60DOPE  C311 7716   6.209   4.405  14.862 -0.2315  1.0916 -0.6146
   60DOPE  H11X 7717   6.219   4.303  14.819 -3.4233  0.1968  0.4757
   60DOPE  H11Y 7718   6.302   4.418  14.921 -0.3172  0.5665 -0.3570
   60DOPE  C312 7719   6.089   4.413  14.958  0.0755 -0.0914  0.0699
   60DOPE  H12X 7720   5.988   4.399  14.914  0.8492 -0.5470 -1.6369
   60DOPE  H12Y 7721   6.091   4.513  15.005  0.6754 -0.3902  0.7065
   60DOPE  C313 7722   6.102   4.328  15.077 -0.8891  0.2223 -0.3742
   60DOPE  H13X 7723   6.132   4.227  15.043  0.3945  0.7510 -0.8906
   60DOPE  H13Y 7724   6.187   4.373  15.134 -0.3436 -1.7038  0.4174
   60DOPE  C314 7725   5.976   4.310  15.158 -0.7106  0.2300 -0.6206
   60DOPE  H14X 7726   5.900   4.273  15.087 -0.1690 -1.3347 -0.4450
   60DOPE  H14Y 7727   5.959   4.409  15.205 -0.3953 -0.2473  0.5357
   60DOPE  C315 7728   5.997   4.222  15.281 -0.0280 -0.7424 -0.6611
   60DOPE  H15X 7729   6.085   4.254  15.340 -1.0311 -1.5434  1.4098
   60DOPE  H15Y 7730   6.015   4.117  15.247  1.7366 -0.4490 -0.6853
   60DOPE  C316 7731   5.863   4.208  15.373  0.3212  0.3573  0.4785
   60DOPE  H16X 7732   5.847   4.314  15.403 -0.3375  1.1813 -2.4052
   60DOPE  H16Y 7733   5.884   4.133  15.452  0.3295 -3.6499 -2.9580
   60DOPE  C317 7734   5.749   4.155  15.288  0.0222 -0.6415  0.9488
   60DOPE  H17X 7735   5.727   4.225  15.205  2.3419 -0.0565  0.7738
   60DOPE  H17Y 7736   5.786   4.065  15.233 -0.5233 -0.4650  0.2802
   60DOPE  C318 7737   5.623   4.119  15.369 -0.1502  0.4156 -0.4417
   60DOPE  H18X 7738   5.546   4.069  15.308 -0.8657  2.6330 -1.4348
   60DOPE  H18Y 7739   5.652   4.064  15.462  0.9880  1.1542 -0.3300
   60DOPE  H18Z 7740   5.591   4.216  15.411 -0.5177 -0.5457  1.6484
   6123SM     N 7741   2.964   6.438  17.687  0.1174  0.0832  0.4420
   6123SM   C15 7742   2.856   6.503  17.758 -0.2103 -0.2958 -0.3957
   6123SM  H15A 7743   2.821   6.586  17.700  1.0478  0.2592 -0.3912
   6123SM  H15B 7744   2.892   6.542  17.852 -0.8949 -1.7270  0.5056
   6123SM  H15C 7745   2.780   6.432  17.787  0.4104 -0.2977  1.3267
   6123SM   C14 7746   3.022   6.327  17.780  0.3010  0.0724 -0.2295
   6123SM  H14A 7747   3.037   6.347  17.885 -0.2686 -2.0048  0.2940
   6123SM  H14B 7748   3.106   6.271  17.741 -0.6807 -1.5860 -0.0546
   6123SM  H14C 7749   2.946   6.251  17.793  0.7695 -0.2663  0.6605
   6123SM   C13 7750   2.913   6.367  17.566 -0.3499  0.1951  0.2795
   6123SM  H13A 7751   2.860   6.278  17.597  0.4105 -0.5104 -0.4088
   6123SM  H13B 7752   2.996   6.337  17.504 -0.8227  3.9369 -2.5627
   6123SM  H13C 7753   2.850   6.432  17.506 -1.9582  0.2283  1.8815
   6123SM   C12 7754   3.063   6.543  17.649 -0.1737 -0.0957 -0.0422
   6123SM  H12A 7755   3.082   6.593  17.742  2.9248 -0.2232 -0.5203
   6123SM  H12B 7756   3.013   6.605  17.576 -0.2872  0.4604  0.5025
   6123SM   C11 7757   3.204   6.497  17.596 -0.1262  0.0037 -1.3248
   6123SM  H11A 7758   3.252   6.578  17.537  1.6078  0.3411  0.4252
   6123SM  H11B 7759   3.194   6.418  17.519  1.6694 -0.6878 -0.8920
   6123SM     P 7760   3.370   6.575  17.784 -0.4919 -0.1918  0.0992
   6123SM   O13 7761   3.277   6.649  17.873 -0.9981 -0.5678 -0.0455
   6123SM   O14 7762   3.476   6.509  17.856 -0.2465 -0.5739 -0.2974
   6123SM   O11 7763   3.440   6.678  17.675  0.3258 -0.1013  0.5716
   6123SM   O12 7764   3.292   6.464  17.704  0.0740  0.6812 -0.3284
   6123SM   C1S 7765   3.552   6.624  17.607 -0.2825  0.1019 -0.1412
   6123SM   H1S 7766   3.538   6.516  17.582 -0.1019 -0.0832  0.5326
   6123SM   H1T 7767   3.640   6.637  17.674  0.7642 -1.7743 -1.0694
   6123SM    NF 7768   3.675   6.625  17.398  0.0480 -0.7541 -0.2369
   6123SM   HNF 7769   3.772   6.647  17.395  0.1079 -0.8599  0.6139
   6123SM   C2S 7770   3.587   6.703  17.475  0.6952  0.0579 -0.2055
   6123SM   H2S 7771   3.490   6.725  17.424 -0.9551 -0.2079  2.6187
   6123SM   C3S 7772   3.637   6.843  17.513 -0.2898  0.0525  0.3077
   6123SM   H3S 7773   3.724   6.845  17.582 -0.8390  0.5224  1.0093
   6123SM    O3 7774   3.532   6.915  17.590 -0.1024 -0.3393 -0.2483
   6123SM   HO3 7775   3.476   6.844  17.622 -1.0709  0.0175 -1.0717
   6123SM   C4S 7776   3.673   6.932  17.402  0.1572 -0.3905 -0.5605
   6123SM   H4S 7777   3.593   6.938  17.326 -1.2511  0.5727  0.9361
   6123SM   C5S 7778   3.798   6.993  17.383  0.5215 -0.0123 -0.1966
   6123SM   H5S 7779   3.879   6.963  17.452 -0.1664 -0.9550  0.2205
   6123SM   C6S 7780   3.842   7.062  17.257 -0.9893  0.0253 -0.3968
   6123SM   H6S 7781   3.952   7.074  17.271 -0.5863 -2.5777 -0.7344
   6123SM   H6T 7782   3.800   7.164  17.245 -0.6284 -0.1064 -3.4482
   6123SM   C7S 7783   3.816   6.982  17.130 -0.4695  0.1491  0.0595
   6123SM   H7S 7784   3.706   6.977  17.114 -0.4757 -2.6639  0.5472
   6123SM   H7T 7785   3.849   6.877  17.149  0.3430  0.3100 -0.3827
   6123SM   C8S 7786   3.895   7.036  17.005  0.2184  0.1055 -0.2219
   6123SM   H8S 7787   4.002   7.008  17.016 -0.0454 -0.8295  0.0965
   6123SM   H8T 7788   3.896   7.147  17.015  2.6930  0.0424  0.8318
   6123SM   C9S 7789   3.829   7.010  16.873 -0.1050  0.0050  0.1465
   6123SM   H9S 7790   3.732   7.064  16.864 -0.0760 -0.2999 -2.5456
   6123SM   H9T 7791   3.798   6.905  16.858 -0.9948  0.4144 -1.0733
   6123SM  C10S 7792   3.931   7.059  16.766  0.1952  0.5294  0.5658
   6123SM  H10S 7793   4.033   7.018  16.775  0.8148  2.0339  0.7577
   6123SM  H10T 7794   3.952   7.167  16.781 -0.5018  0.6935  0.3754
   6123SM  C11S 7795   3.879   7.043  16.627  0.3524  0.6960  0.9403
   6123SM  H11S 7796   3.773   7.071  16.610  1.0603  3.1101  0.1323
   6123SM  H11T 7797   3.886   6.935  16.603  0.1422  0.3973  2.1558
   6123SM  C12S 7798   3.958   7.115  16.518 -0.1330 -0.4226  0.1190
   6123SM  H12S 7799   4.062   7.075  16.519  1.3624  2.9910  2.6601
   6123SM  H12T 7800   3.975   7.221  16.545  1.1819 -0.4945 -0.3242
   6123SM  C13S 7801   3.906   7.094  16.374  0.0434  0.2093 -0.4409
   6123SM  H13S 7802   3.805   7.140  16.375 -0.1614 -0.1251  2.4259
   6123SM  H13T 7803   3.893   6.985  16.360 -0.5878  0.4340 -1.7302
   6123SM  C14S 7804   4.000   7.142  16.260  0.5242 -0.0251  0.5210
   6123SM  H14S 7805   4.092   7.082  16.278 -0.0173 -0.2968  2.5641
   6123SM  H14T 7806   4.015   7.251  16.275  0.6798 -0.3275  2.7929
   6123SM  C15S 7807   3.948   7.094  16.119 -0.2672  0.6916  0.3752
   6123SM  H15S 7808   3.839   7.112  16.125 -0.1310  1.0666  2.1407
   6123SM  H15T 7809   3.964   6.985  16.104 -1.1837  0.6513 -0.4651
   6123SM  C16S 7810   4.003   7.160  15.992 -0.5617  0.0803  0.1743
   6123SM  H16S 7811   4.111   7.139  15.977 -0.3238  1.6499 -0.4869
   6123SM  H16T 7812   4.012   7.270  16.010  1.9222 -0.0765  0.1272
   6123SM  C17S 7813   3.919   7.136  15.872 -0.3305  0.0032 -0.5061
   6123SM  H17S 7814   3.813   7.164  15.891  0.0121  1.0582 -0.0549
   6123SM  H17T 7815   3.918   7.027  15.855 -1.7622  0.0983 -1.2532
   6123SM  C18S 7816   3.991   7.202  15.756 -0.5290  0.5382 -0.7677
   6123SM  H18S 7817   3.940   7.172  15.662  0.3487 -3.4502 -0.1387
   6123SM  H18T 7818   4.098   7.171  15.753 -1.0660 -1.7734  1.1256
   6123SM  H18U 7819   4.008   7.312  15.761 -0.8092  0.6156 -1.3559
   6123SM   C1F 7820   3.627   6.516  17.331 -0.2015 -0.1670  0.3684
   6123SM    OF 7821   3.508   6.493  17.315  0.1031 -0.0709  0.1009
   6123SM   C2F 7822   3.738   6.431  17.272 -0.1621 -0.2603  0.1690
   6123SM   H2F 7823   3.758   6.346  17.340  1.9106 -0.7307 -0.9444
   6123SM   H2G 7824   3.834   6.487  17.268 -1.1227  1.4037 -1.9294
   6123SM   C3F 7825   3.717   6.382  17.127  0.1990  0.6912 -0.0961
   6123SM   H3F 7826   3.635   6.308  17.114  2.4374 -1.9263 -0.4016
   6123SM   H3G 7827   3.816   6.340  17.099 -0.0745  0.6841 -1.0958
   6123SM   C4F 7828   3.699   6.493  17.020 -1.0776 -0.1934 -0.3619
   6123SM   H4F 7829   3.770   6.575  17.042 -0.8045 -0.1284 -1.4248
   6123SM   H4G 7830   3.600   6.539  17.038 -1.0563 -0.5459  0.7346
   6123SM   C5F 7831   3.708   6.432  16.880 -0.6657 -0.7776 -0.2593
   6123SM   H5F 7832   3.618   6.369  16.865 -2.4289  0.6596  3.2246
   6123SM   H5G 7833   3.801   6.373  16.864  0.0369  0.9353 -3.2276
   6123SM   C6F 7834   3.711   6.538  16.772 -0.1306  0.3011  0.3672
   6123SM   H6F 7835   3.782   6.623  16.782  0.1034  1.2817 -5.7771
   6123SM   H6G 7836   3.607   6.578  16.773  0.6158  2.3759  1.1977
   6123SM   C7F 7837   3.744   6.475  16.636 -0.3629 -0.2881 -0.9401
   6123SM   H7F 7838   3.666   6.399  16.615 -0.6495 -0.5921  1.0039
   6123SM   H7G 7839   3.845   6.430  16.631  1.1976  2.6599  1.0656
   6123SM   C8F 7840   3.736   6.581  16.523  0.3585  1.2024  0.3121
   6123SM   H8F 7841   3.799   6.670  16.547  0.3910  1.4534 -0.6755
   6123SM   H8G 7842   3.629   6.612  16.527 -1.0988 -3.1148 -0.1418
   6123SM   C9F 7843   3.772   6.519  16.390 -0.2406 -0.0506  0.4137
   6123SM   H9F 7844   3.686   6.452  16.364  1.6757 -2.5645  0.1363
   6123SM   H9G 7845   3.864   6.457  16.397  0.6502  1.1778 -0.1851
   6123SM  C10F 7846   3.797   6.631  16.284  0.3006 -0.6228  0.2631
   6123SM  H10F 7847   3.877   6.705  16.309  0.9071 -1.0113 -0.4720
   6123SM  H10G 7848   3.711   6.701  16.285  0.4657 -0.2365  4.4780
   6123SM  C11F 7849   3.822   6.568  16.140 -0.5929  0.6988 -0.6416
   6123SM  H11F 7850   3.737   6.499  16.119 -1.1974  2.0703 -3.0978
   6123SM  H11G 7851   3.914   6.507  16.143 -2.2374 -1.9833 -1.0566
   6123SM  C12F 7852   3.817   6.658  16.019  0.5850 -0.9918  0.2462
   6123SM  H12F 7853   3.885   6.745  16.029  0.0210 -0.4826 -0.2467
   6123SM  H12G 7854   3.716   6.704  16.025  0.3865 -1.3794 -0.0718
   6123SM  C13F 7855   3.817   6.592  15.884 -0.0891  1.1309  0.1763
   6123SM  H13F 7856   3.742   6.512  15.866 -2.4454  3.0295  0.9613
   6123SM  H13G 7857   3.918   6.547  15.873 -0.0046  1.2202  0.5683
   6123SM  C14F 7858   3.795   6.699  15.772 -0.1029 -0.1234 -0.6865
   6123SM  H14F 7859   3.889   6.757  15.783  1.2085 -1.7317 -2.6147
   6123SM  H14G 7860   3.710   6.767  15.796  0.4998  0.5474 -0.4210
   6123SM  C15F 7861   3.795   6.651  15.625  0.3679 -0.0016 -0.6132
   6123SM  H15F 7862   3.686   6.630  15.612  0.6533 -1.4507 -0.8552
   6123SM  H15G 7863   3.845   6.554  15.604 -3.0099 -2.0068 -0.1732
   6123SM  C16F 7864   3.841   6.758  15.517 -0.1680  0.8301 -0.3101
   6123SM  H16F 7865   3.946   6.773  15.552  0.5931 -3.9272  0.1344
   6123SM  H16G 7866   3.782   6.852  15.509 -0.8045  0.4091 -0.5489
   6123SM  C17F 7867   3.848   6.692  15.379 -0.0749  0.2422 -0.7036
   6123SM  H17F 7868   3.875   6.586  15.398 -0.1220  0.4332  0.5105
   6123SM  H17G 7869   3.920   6.744  15.312  0.9881 -0.3468 -0.0232
   6123SM  C18F 7870   3.723   6.684  15.297  0.2803 -0.1216  0.0658
   6123SM  H18F 7871   3.647   6.632  15.359  1.2657 -1.3887  0.2539
   6123SM  H18G 7872   3.739   6.630  15.202  0.2673 -0.8022  0.4432
   6123SM  C19F 7873   3.656   6.811  15.251  0.8054  0.6942  0.1369
   6123SM  H19F 7874   3.724   6.875  15.190 -1.6549  3.1481 -0.2270
   6123SM  H19G 7875   3.647   6.874  15.341  0.4042  0.7438  0.0640
   6123SM  C20F 7876   3.517   6.789  15.184  0.3137 -0.0732  0.4296
   6123SM  H20F 7877   3.442   6.743  15.253  1.8730  1.1952  3.1437
   6123SM  H20G 7878   3.529   6.717  15.101 -1.5988 -1.9164  1.6477
   6123SM  C21F 7879   3.462   6.921  15.135 -0.3990  0.4676  0.3820
   6123SM  H21F 7880   3.523   6.958  15.050 -1.7805  0.8209 -0.4798
   6123SM  H21G 7881   3.481   6.989  15.221  3.2026  0.9053 -0.6111
   6123SM  C22F 7882   3.322   6.912  15.080  0.3783  0.2958  0.2018
   6123SM  H22F 7883   3.297   7.012  15.039  0.0431 -0.4880 -1.6031
   6123SM  H22G 7884   3.259   6.892  15.169  1.7550 -1.8140  0.7843
   6123SM  C23F 7885   3.285   6.806  14.973  0.0236  0.7912  0.5554
   6123SM  H23F 7886   3.315   6.701  14.993  0.9549  0.8985 -0.1985
   6123SM  H23G 7887   3.317   6.843  14.873 -1.6409  2.4253  0.5733
   6123SM  H23H 7888   3.174   6.796  14.973  0.0143  0.5262 -1.2296
   6223SM     N 7889   4.095   0.310  18.085 -0.5276 -0.1773 -0.9679
   6223SM   C15 7890   4.205   0.305  18.188 -0.0647  0.5195 -0.2316
   6223SM  H15A 7891   4.180   0.225  18.256 -2.1135 -1.1828 -2.8145
   6223SM  H15B 7892   4.213   0.397  18.243  2.0914 -0.3967  1.1564
   6223SM  H15C 7893   4.299   0.291  18.137  1.0539  0.9751  1.5988
   6223SM   C14 7894   3.979   0.371  18.162 -0.1081 -0.0800 -0.1161
   6223SM  H14A 7895   3.891   0.383  18.100 -1.2144 -0.1414  1.3755
   6223SM  H14B 7896   3.999   0.465  18.211 -0.8376 -0.7684  1.5844
   6223SM  H14C 7897   3.951   0.310  18.247 -2.1954 -1.5906 -1.7671
   6223SM   C13 7898   4.139   0.408  17.981 -0.9427  0.0369  0.0472
   6223SM  H13A 7899   4.243   0.392  17.957 -0.7074 -0.0133  1.0471
   6223SM  H13B 7900   4.140   0.499  18.039  2.5905 -0.3857  0.9103
   6223SM  H13C 7901   4.066   0.412  17.902 -0.9529 -0.1610  0.0475
   6223SM   C12 7902   4.057   0.173  18.029  0.0219 -0.6114  0.0817
   6223SM  H12A 7903   3.965   0.192  17.977 -0.6717 -1.3688  0.9851
   6223SM  H12B 7904   4.021   0.101  18.102 -0.5841 -0.2112  0.1775
   6223SM   C11 7905   4.151   0.118  17.928  0.3817  0.3332 -0.3224
   6223SM  H11A 7906   4.165   0.191  17.846  1.8081  1.7796  1.1212
   6223SM  H11B 7907   4.102   0.026  17.887  0.1082  0.6257 -0.6596
   6223SM     P 7908   4.402   0.079  17.923 -0.1108  0.4245 -0.2315
   6223SM   O13 7909   4.456   0.216  17.946 -0.0197 -0.4434 -0.6274
   6223SM   O14 7910   4.475  -0.039  17.968  0.1111  0.4645  0.2151
   6223SM   O11 7911   4.363   0.070  17.775  0.1570 -0.0383  0.0561
   6223SM   O12 7912   4.265   0.082  17.994 -0.0241  0.3740  0.1228
   6223SM   C1S 7913   4.455   0.036  17.670  0.2038  0.0580 -0.0488
   6223SM   H1S 7914   4.476  -0.073  17.679 -1.1715 -0.0935  2.1029
   6223SM   H1T 7915   4.557   0.079  17.679  0.3783 -0.3784  0.0937
   6223SM    NF 7916   4.470  -0.006  17.413 -0.4608  0.0284  0.3313
   6223SM   HNF 7917   4.491   0.043  17.329  1.4002 -2.3802 -0.7489
   6223SM   C2S 7918   4.398   0.055  17.524  1.1732  0.0359  0.0320
   6223SM   H2S 7919   4.304  -0.003  17.537  0.4092  1.0040 -1.0407
   6223SM   C3S 7920   4.369   0.201  17.487  0.1177  0.3906 -0.9560
   6223SM   H3S 7921   4.457   0.260  17.452  0.1055  1.0676  0.1061
   6223SM    O3 7922   4.332   0.273  17.602 -0.5228 -0.4023  0.0634
   6223SM   HO3 7923   4.322   0.207  17.671 -0.9555 -0.9915 -0.5487
   6223SM   C4S 7924   4.260   0.208  17.389 -0.0992 -1.1952 -0.1479
   6223SM   H4S 7925   4.156   0.202  17.426 -0.5593 -0.7333 -1.2937
   6223SM   C5S 7926   4.271   0.203  17.255 -0.8660 -0.7763 -0.1048
   6223SM   H5S 7927   4.373   0.214  17.215 -0.4276 -0.0029  1.1674
   6223SM   C6S 7928   4.150   0.212  17.160 -0.1513  0.1010 -0.0860
   6223SM   H6S 7929   4.168   0.273  17.069  0.6905  1.4300  0.9465
   6223SM   H6T 7930   4.061   0.254  17.212  0.3720 -0.2722  1.1380
   6223SM   C7S 7931   4.111   0.066  17.117  0.5421  0.5156 -0.3577
   6223SM   H7S 7932   4.049   0.010  17.190  0.3808  1.1301 -0.0188
   6223SM   H7T 7933   4.207   0.010  17.123  0.2563  0.1682  2.0910
   6223SM   C8S 7934   4.044   0.053  16.982 -0.3141 -0.7685 -0.0506
   6223SM   H8S 7935   3.967   0.133  16.979  2.3605  2.0707  0.6810
   6223SM   H8T 7936   3.999  -0.048  16.979 -1.3505 -0.3032 -0.6463
   6223SM   C9S 7937   4.140   0.095  16.868 -0.3990  0.5774  0.4870
   6223SM   H9S 7938   4.240   0.048  16.867 -0.4224  0.5266  0.5927
   6223SM   H9T 7939   4.145   0.206  16.864 -1.1874  0.6185  0.4195
   6223SM  C10S 7940   4.083   0.066  16.733  0.7512  0.1340 -0.3090
   6223SM  H10S 7941   3.979   0.098  16.711  0.6666  2.4210  2.7095
   6223SM  H10T 7942   4.089  -0.044  16.721 -1.1102  0.1525 -1.7950
   6223SM  C11S 7943   4.165   0.135  16.619 -0.3552  0.0347 -0.6098
   6223SM  H11S 7944   4.270   0.100  16.623 -0.3449 -0.0024 -1.1673
   6223SM  H11T 7945   4.168   0.246  16.618 -0.2484  0.0426 -2.5754
   6223SM  C12S 7946   4.116   0.096  16.479 -0.4833  0.4249 -0.0812
   6223SM  H12S 7947   4.007   0.114  16.467 -0.8252 -0.0968  1.9054
   6223SM  H12T 7948   4.133  -0.013  16.481  2.6931  0.8134  0.4352
   6223SM  C13S 7949   4.194   0.169  16.372  0.2681  0.0438 -0.7825
   6223SM  H13S 7950   4.302   0.144  16.368  0.3542  0.0539  0.7094
   6223SM  H13T 7951   4.206   0.274  16.408 -0.6834  0.1709 -0.7991
   6223SM  C14S 7952   4.130   0.163  16.230 -0.0662 -0.5407 -0.1331
   6223SM  H14S 7953   4.022   0.186  16.230 -0.5563 -2.2277 -3.3624
   6223SM  H14T 7954   4.131   0.053  16.214  0.8672 -1.2882  4.0477
   6223SM  C15S 7955   4.214   0.248  16.128 -0.4109  0.4454 -0.0563
   6223SM  H15S 7956   4.317   0.217  16.155 -0.3731 -0.7233 -1.4331
   6223SM  H15T 7957   4.212   0.355  16.159 -0.2980  0.3321  0.3482
   6223SM  C16S 7958   4.182   0.220  15.980 -1.0566  0.0341  0.1227
   6223SM  H16S 7959   4.253   0.287  15.928  1.6750 -0.7872  2.5066
   6223SM  H16T 7960   4.081   0.261  15.957 -2.8690 -2.0079  3.4494
   6223SM  C17S 7961   4.198   0.077  15.939  0.1465 -0.3471  0.2584
   6223SM  H17S 7962   4.111   0.023  15.982 -0.1259 -0.9940 -1.0873
   6223SM  H17T 7963   4.291   0.028  15.976  0.6086  0.6305  0.4231
   6223SM  C18S 7964   4.204   0.065  15.781  0.5298 -0.5687 -0.1636
   6223SM  H18S 7965   4.120   0.128  15.745 -1.1881 -1.6314  1.7795
   6223SM  H18T 7966   4.188  -0.042  15.757  0.6965 -0.6080 -0.1028
   6223SM  H18U 7967   4.304   0.097  15.744  1.4651 -1.4849  1.4523
   6223SM   C1F 7968   4.501  -0.135  17.407  0.1081  1.0269 -0.8839
   6223SM    OF 7969   4.465  -0.212  17.495 -0.2399 -0.1061 -0.4418
   6223SM   C2F 7970   4.586  -0.184  17.295 -0.4437  0.1993  0.3401
   6223SM   H2F 7971   4.691  -0.148  17.293 -0.4546  0.2869 -2.2616
   6223SM   H2G 7972   4.533  -0.142  17.207 -2.4166 -3.2695 -0.3131
   6223SM   C3F 7973   4.575  -0.336  17.281  0.5184  0.4950  0.2516
   6223SM   H3F 7974   4.468  -0.364  17.271  0.1823  1.5315  0.8248
   6223SM   H3G 7975   4.643  -0.381  17.357  2.2093  2.7137  0.1389
   6223SM   C4F 7976   4.645  -0.380  17.152  0.0247  0.0236 -0.1676
   6223SM   H4F 7977   4.588  -0.331  17.071 -0.5887 -1.9195 -0.9630
   6223SM   H4G 7978   4.629  -0.489  17.132 -0.9551  0.2063 -0.4511
   6223SM   C5F 7979   4.794  -0.356  17.146 -0.1821 -0.4019  0.1747
   6223SM   H5F 7980   4.822  -0.398  17.245 -3.5652  0.3278  1.6141
   6223SM   H5G 7981   4.807  -0.246  17.136 -0.7737 -0.2554  0.8650
   6223SM   C6F 7982   4.850  -0.424  17.018 -0.8681  0.1519 -0.5360
   6223SM   H6F 7983   4.813  -0.529  17.005 -0.3314 -0.0641 -0.3301
   6223SM   H6G 7984   4.959  -0.428  17.036 -1.2360 -0.1101  1.9692
   6223SM   C7F 7985   4.819  -0.348  16.891 -0.0202  0.4426 -0.0136
   6223SM   H7F 7986   4.881  -0.256  16.899  1.2529 -0.4043  0.0473
   6223SM   H7G 7987   4.710  -0.326  16.882 -0.1916  0.1505  1.1255
   6223SM   C8F 7988   4.866  -0.422  16.764  1.2734 -0.3347  0.0964
   6223SM   H8F 7989   4.837  -0.530  16.766  1.9197 -0.5113  0.1110
   6223SM   H8G 7990   4.976  -0.420  16.752  1.1566  2.2778 -1.0685
   6223SM   C9F 7991   4.807  -0.353  16.637  0.3967  0.2503 -0.5544
   6223SM   H9F 7992   4.807  -0.243  16.653 -0.6945  0.1393  0.4120
   6223SM   H9G 7993   4.699  -0.375  16.626  0.2158  0.3155  0.9397
   6223SM  C10F 7994   4.890  -0.386  16.510  0.8092  0.2197  1.4123
   6223SM  H10F 7995   4.910  -0.495  16.506  2.6569  0.5536 -1.2702
   6223SM  H10G 7996   4.990  -0.339  16.520  0.6403  1.2388 -1.0138
   6223SM  C11F 7997   4.840  -0.337  16.375 -0.2260 -0.3594  0.4556
   6223SM  H11F 7998   4.893  -0.245  16.343  0.9240 -1.1648 -0.0523
   6223SM  H11G 7999   4.732  -0.309  16.378 -0.7318 -1.8743 -1.2595
   6223SM  C12F 8000   4.851  -0.446  16.268 -0.7329 -1.0229  0.0040
   6223SM  H12F 8001   4.785  -0.532  16.295 -3.3520  0.8726  0.0365
   6223SM  H12G 8002   4.958  -0.473  16.265 -0.2627  0.7964 -1.1806
   6223SM  C13F 8003   4.822  -0.397  16.130  0.3088  0.3427  0.7538
   6223SM  H13F 8004   4.881  -0.303  16.119  3.1337 -1.3238  0.5311
   6223SM  H13G 8005   4.714  -0.374  16.127  0.1176 -0.6093 -1.3278
   6223SM  C14F 8006   4.857  -0.496  16.024  0.5623  0.4504 -0.2653
   6223SM  H14F 8007   4.811  -0.595  16.042 -1.9838  1.5988 -0.1186
   6223SM  H14G 8008   4.968  -0.509  16.021  0.3951 -1.0131 -0.6392
   6223SM  C15F 8009   4.819  -0.449  15.888  0.2206  0.3944  0.9872
   6223SM  H15F 8010   4.870  -0.352  15.869 -1.4467  1.3391  1.1343
   6223SM  H15G 8011   4.709  -0.439  15.874 -0.0588 -0.9427  2.0725
   6223SM  C16F 8012   4.864  -0.543  15.771  0.5564 -0.3079  0.0904
   6223SM  H16F 8013   4.806  -0.637  15.781  2.1374 -1.5265 -1.5752
   6223SM  H16G 8014   4.973  -0.564  15.769  1.3690  3.2286  0.4825
   6223SM  C17F 8015   4.839  -0.481  15.632  0.4649 -0.3180 -0.1579
   6223SM  H17F 8016   4.911  -0.399  15.612  1.1547 -1.2970 -1.9547
   6223SM  H17G 8017   4.737  -0.437  15.629  1.1394  1.3271  0.0420
   6223SM  C18F 8018   4.845  -0.577  15.520 -0.3374 -0.6743 -0.0969
   6223SM  H18F 8019   4.752  -0.637  15.510 -1.8053  1.7327 -2.4368
   6223SM  H18G 8020   4.925  -0.651  15.542 -0.4531 -0.4134  1.2692
   6223SM  C19F 8021   4.859  -0.516  15.372  0.1788  0.6524 -1.0254
   6223SM  H19F 8022   4.931  -0.432  15.384 -0.9459  1.4374  0.4967
   6223SM  H19G 8023   4.767  -0.461  15.343 -1.0678  0.1432  1.6480
   6223SM  C20F 8024   4.919  -0.618  15.270  0.1920  0.2064  0.4126
   6223SM  H20F 8025   4.854  -0.708  15.275  0.7072 -0.2129 -0.2750
   6223SM  H20G 8026   5.023  -0.647  15.294 -0.1994  0.0175  2.0170
   6223SM  C21F 8027   4.880  -0.563  15.128 -0.3432  0.4308  0.1019
   6223SM  H21F 8028   4.892  -0.453  15.128 -0.4508  0.4456 -0.3549
   6223SM  H21G 8029   4.771  -0.570  15.112  0.1416 -0.1435 -4.1829
   6223SM  C22F 8030   4.950  -0.637  15.016 -0.4546 -0.3533 -0.3114
   6223SM  H22F 8031   4.972  -0.742  15.043 -1.2995 -0.4716 -0.0648
   6223SM  H22G 8032   5.044  -0.579  15.003 -1.8931  1.9360 -1.1962
   6223SM  C23F 8033   4.881  -0.640  14.878 -0.4044 -0.0935 -0.7613
   6223SM  H23F 8034   4.955  -0.682  14.806 -1.1918 -1.2376 -0.9286
   6223SM  H23G 8035   4.863  -0.538  14.838 -0.6704  0.3316  0.4195
   6223SM  H23H 8036   4.782  -0.690  14.875 -1.3707  1.6734  0.1420
   6323SM     N 8037   3.443   1.182  18.161  0.7451 -0.0840 -0.2497
   6323SM   C15 8038   3.458   1.325  18.185  0.1057  0.1316  0.2804
   6323SM  H15A 8039   3.369   1.386  18.172 -0.4419 -0.4948  1.0161
   6323SM  H15B 8040   3.530   1.366  18.116 -1.4122  2.3036 -0.1378
   6323SM  H15C 8041   3.493   1.348  18.285 -1.9073  2.0993  0.6131
   6323SM   C14 8042   3.563   1.110  18.221  0.0053 -0.0435 -0.3068
   6323SM  H14A 8043   3.572   1.117  18.328 -0.5507 -1.0487 -0.1791
   6323SM  H14B 8044   3.650   1.158  18.178 -0.3396 -0.2264 -1.2451
   6323SM  H14C 8045   3.568   1.006  18.192  0.1238  0.2042 -1.2282
   6323SM   C13 8046   3.318   1.137  18.231  0.0892 -0.1358  0.5757
   6323SM  H13A 8047   3.270   1.059  18.175  0.9528  0.0150 -0.4056
   6323SM  H13B 8048   3.251   1.223  18.229  1.8035  1.2476 -0.2392
   6323SM  H13C 8049   3.322   1.118  18.337 -0.5174 -0.4490  0.5519
   6323SM   C12 8050   3.418   1.159  18.010  0.1637  0.8995  0.3115
   6323SM  H12A 8051   3.321   1.204  17.991 -0.0057  0.2481 -0.4791
   6323SM  H12B 8052   3.415   1.052  17.995  1.6345  0.7360  1.0146
   6323SM   C11 8053   3.528   1.201  17.919 -0.5967  0.1817  0.0367
   6323SM  H11A 8054   3.576   1.298  17.946 -1.1963  0.3246  0.6285
   6323SM  H11B 8055   3.480   1.239  17.826  1.0706 -0.8178 -1.2833
   6323SM     P 8056   3.583   0.964  17.810  0.0888 -0.0431  0.7148
   6323SM   O13 8057   3.703   0.902  17.753 -0.3482 -0.0654 -0.1535
   6323SM   O14 8058   3.499   0.885  17.906 -0.1790 -0.1677 -0.4178
   6323SM   O11 8059   3.479   1.015  17.702 -0.0597 -0.4082  0.0421
   6323SM   O12 8060   3.628   1.105  17.883 -0.6657  0.2329 -0.5302
   6323SM   C1S 8061   3.520   1.103  17.602  0.6511 -0.0191 -0.0609
   6323SM   H1S 8062   3.609   1.162  17.630  1.5846 -1.9795  1.4008
   6323SM   H1T 8063   3.439   1.173  17.573 -1.0554 -1.0428  1.9313
   6323SM    NF 8064   3.642   1.100  17.386  0.1020 -0.1040  0.5269
   6323SM   HNF 8065   3.601   1.099  17.295 -1.3273 -0.2272  1.1428
   6323SM   C2S 8066   3.565   1.019  17.478 -0.5462  0.4810  0.3819
   6323SM   H2S 8067   3.623   0.931  17.512 -2.0422 -0.9331 -0.5751
   6323SM   C3S 8068   3.437   0.948  17.413  0.4466 -0.0474  0.1024
   6323SM   H3S 8069   3.365   1.031  17.395  0.6039 -0.0858 -0.7313
   6323SM    O3 8070   3.366   0.853  17.494 -0.1708 -0.0912  0.0217
   6323SM   HO3 8071   3.390   0.878  17.584  0.3398 -0.6892  0.0621
   6323SM   C4S 8072   3.466   0.879  17.287 -0.2579 -0.1919  0.5246
   6323SM   H4S 8073   3.417   0.924  17.200  0.4885 -0.2514  0.0690
   6323SM   C5S 8074   3.535   0.762  17.272 -0.8349  0.3698 -0.7659
   6323SM   H5S 8075   3.590   0.723  17.360 -0.0926  1.0623 -0.9142
   6323SM   C6S 8076   3.559   0.692  17.144  0.0180  0.0953 -0.4599
   6323SM   H6S 8077   3.487   0.607  17.140  2.0496 -1.7079 -0.7411
   6323SM   H6T 8078   3.660   0.647  17.141  0.0404  0.0583  0.4576
   6323SM   C7S 8079   3.525   0.767  17.015 -0.1445 -0.2150  0.6141
   6323SM   H7S 8080   3.576   0.866  17.016  0.3233 -0.4289 -0.4796
   6323SM   H7T 8081   3.417   0.789  16.996 -0.1973  0.0910  1.2563
   6323SM   C8S 8082   3.573   0.694  16.883 -0.6730  0.2926 -0.4254
   6323SM   H8S 8083   3.523   0.595  16.873 -2.6906  1.2973 -0.7386
   6323SM   H8T 8084   3.682   0.677  16.896 -0.4883  1.8375  0.3420
   6323SM   C9S 8085   3.555   0.784  16.761 -0.3548 -0.0298  0.3937
   6323SM   H9S 8086   3.611   0.880  16.762  1.6141 -1.1185  0.2372
   6323SM   H9T 8087   3.447   0.809  16.763  0.2100  2.6941  0.3548
   6323SM  C10S 8088   3.603   0.718  16.627 -0.2384  0.2867 -0.9845
   6323SM  H10S 8089   3.545   0.624  16.614  1.4164 -1.1773  1.4095
   6323SM  H10T 8090   3.707   0.684  16.645 -0.5022  1.0773  3.0172
   6323SM  C11S 8091   3.578   0.803  16.505 -0.1072 -0.4514  0.1599
   6323SM  H11S 8092   3.600   0.910  16.527  0.5833 -0.1520 -1.7565
   6323SM  H11T 8093   3.469   0.792  16.484 -0.5675 -0.0210  2.1967
   6323SM  C12S 8094   3.663   0.769  16.386 -0.0241 -0.1676 -0.3076
   6323SM  H12S 8095   3.634   0.667  16.354 -0.6828  0.6964 -2.6865
   6323SM  H12T 8096   3.767   0.764  16.425 -0.5593 -4.7976  1.1113
   6323SM  C13S 8097   3.641   0.865  16.270  0.2880  1.1170  0.1292
   6323SM  H13S 8098   3.696   0.958  16.299 -0.9522  0.6423  4.7720
   6323SM  H13T 8099   3.535   0.891  16.254 -0.1068  1.3565  2.6973
   6323SM  C14S 8100   3.691   0.805  16.138 -0.5196  0.0214  0.1363
   6323SM  H14S 8101   3.648   0.703  16.130 -1.0492 -0.0113  2.5146
   6323SM  H14T 8102   3.802   0.801  16.134 -0.5350 -0.6365  0.2183
   6323SM  C15S 8103   3.640   0.886  16.016  0.1075  0.1829 -0.2078
   6323SM  H15S 8104   3.621   0.986  16.060  0.7269 -0.2222  1.0595
   6323SM  H15T 8105   3.547   0.833  15.988 -0.9500  0.9002  1.7499
   6323SM  C16S 8106   3.752   0.889  15.910 -0.4805 -0.5176  0.0395
   6323SM  H16S 8107   3.794   0.786  15.903  1.2194 -0.0393  2.0405
   6323SM  H16T 8108   3.833   0.954  15.949 -1.0796  0.4047 -0.2205
   6323SM  C17S 8109   3.711   0.931  15.772 -0.2534 -0.1931  0.5285
   6323SM  H17S 8110   3.654   1.026  15.762  0.7683  0.3118 -0.7477
   6323SM  H17T 8111   3.647   0.847  15.738 -0.5679  0.7380 -1.2953
   6323SM  C18S 8112   3.834   0.937  15.684  0.1170 -0.0037 -0.3472
   6323SM  H18S 8113   3.914   1.008  15.715  2.1110 -2.4607  0.5147
   6323SM  H18T 8114   3.802   0.956  15.579 -1.7610  2.7646  0.5919
   6323SM  H18U 8115   3.880   0.836  15.685  4.5385  1.8020  0.0764
   6323SM   C1F 8116   3.758   1.166  17.412 -0.0131  0.8147  0.3231
   6323SM    OF 8117   3.827   1.149  17.515  0.2613  0.4703  0.6127
   6323SM   C2F 8118   3.800   1.266  17.315  0.1944  0.8204  0.7123
   6323SM   H2F 8119   3.848   1.347  17.375  1.5971 -0.1240  0.9184
   6323SM   H2G 8120   3.709   1.308  17.268  0.3460 -0.0625 -0.4013
   6323SM   C3F 8121   3.892   1.209  17.205 -0.2529 -0.3375  0.7891
   6323SM   H3F 8122   3.981   1.169  17.256 -0.2541 -0.7728  0.4542
   6323SM   H3G 8123   3.933   1.290  17.139 -2.8071  0.8397  0.5274
   6323SM   C4F 8124   3.830   1.101  17.111  0.0663  0.3752  0.0532
   6323SM   H4F 8125   3.723   1.127  17.100  0.2600  0.5567 -1.8696
   6323SM   H4G 8126   3.820   1.009  17.172  0.2005  0.1676 -0.2306
   6323SM   C5F 8127   3.912   1.078  16.983 -0.0291  0.4021 -0.1097
   6323SM   H5F 8128   4.018   1.095  17.010 -0.4144  1.9324  0.5571
   6323SM   H5G 8129   3.898   1.151  16.901  3.0718 -0.6942 -1.7685
   6323SM   C6F 8130   3.901   0.935  16.929 -0.4511 -0.4105 -0.1628
   6323SM   H6F 8131   3.804   0.893  16.895  0.1461 -2.8014  0.8728
   6323SM   H6G 8132   3.936   0.881  17.020 -0.4400  1.5439  1.0530
   6323SM   C7F 8133   3.997   0.916  16.820 -0.4294  0.4399 -0.1896
   6323SM   H7F 8134   4.012   0.808  16.800  0.7434  0.1943  1.8380
   6323SM   H7G 8135   4.095   0.968  16.832 -0.4783  0.8301 -1.3388
   6323SM   C8F 8136   3.942   0.985  16.695 -0.0327  0.6499  0.2000
   6323SM   H8F 8137   3.970   1.092  16.698  1.0420  0.4250 -1.0614
   6323SM   H8G 8138   3.831   0.971  16.690 -0.1095 -0.5795  3.2038
   6323SM   C9F 8139   4.014   0.925  16.574 -0.7221  0.4180 -0.5113
   6323SM   H9F 8140   3.986   0.817  16.576 -2.9139  0.9079 -1.3664
   6323SM   H9G 8141   4.122   0.928  16.597 -0.7895  0.0610 -0.1372
   6323SM  C10F 8142   3.987   0.997  16.435  0.6553 -0.1763  0.3190
   6323SM  H10F 8143   4.012   1.104  16.450  0.6752 -0.1918  0.3961
   6323SM  H10G 8144   3.877   1.001  16.424  0.8242  1.3717 -1.1393
   6323SM  C11F 8145   4.073   0.942  16.317  0.4499  0.5215  0.0667
   6323SM  H11F 8146   4.045   0.837  16.293  2.5374  0.0196 -0.3852
   6323SM  H11G 8147   4.180   0.937  16.344  0.1889  1.1924  1.3197
   6323SM  C12F 8148   4.067   1.033  16.199  0.3467 -0.2302 -0.6913
   6323SM  H12F 8149   4.112   1.128  16.232  0.6228 -0.6935  0.3024
   6323SM  H12G 8150   3.961   1.058  16.181  0.6719  0.9036 -1.0677
   6323SM  C13F 8151   4.137   0.975  16.079 -0.0185  0.6911  0.1455
   6323SM  H13F 8152   4.086   0.881  16.048 -0.6848  1.1284 -0.1031
   6323SM  H13G 8153   4.242   0.956  16.110  0.0902  1.4306  0.2326
   6323SM  C14F 8154   4.136   1.069  15.961  0.3337 -0.0937  0.3286
   6323SM  H14F 8155   4.176   1.170  15.980  0.5260 -0.1008 -0.0206
   6323SM  H14G 8156   4.032   1.094  15.929  0.6817 -0.1615 -0.9032
   6323SM  C15F 8157   4.216   1.020  15.838 -0.1759  0.1173 -0.0134
   6323SM  H15F 8158   4.326   1.020  15.851 -0.3210 -0.3072  1.3958
   6323SM  H15G 8159   4.195   1.090  15.754  1.7521  1.2728  0.4155
   6323SM  C16F 8160   4.179   0.885  15.784 -0.1562 -0.5035  0.3970
   6323SM  H16F 8161   4.069   0.896  15.771  0.1018  1.6083 -0.4744
   6323SM  H16G 8162   4.204   0.812  15.864 -0.1915 -0.9448  0.0044
   6323SM  C17F 8163   4.253   0.855  15.641  0.3924 -0.1405 -0.1524
   6323SM  H17F 8164   4.229   0.750  15.612 -2.9516  0.5011 -0.0045
   6323SM  H17G 8165   4.364   0.859  15.650  0.4455 -0.3174 -0.7079
   6323SM  C18F 8166   4.194   0.927  15.518 -0.4044 -0.1367 -0.0916
   6323SM  H18F 8167   4.221   1.032  15.544 -1.4777 -0.1186  1.0521
   6323SM  H18G 8168   4.084   0.920  15.506 -0.5766 -1.9283  1.7576
   6323SM  C19F 8169   4.260   0.888  15.380  0.2913 -0.0544  0.7927
   6323SM  H19F 8170   4.244   0.779  15.365 -3.3059  0.5982 -1.2455
   6323SM  H19G 8171   4.370   0.899  15.370  0.1382 -0.3519 -2.1201
   6323SM  C20F 8172   4.198   0.968  15.261  0.3549  0.4275  0.1167
   6323SM  H20F 8173   4.095   1.008  15.272 -0.2591 -0.4622 -1.8667
   6323SM  H20G 8174   4.189   0.892  15.181  0.0518 -0.3679  0.8842
   6323SM  C21F 8175   4.293   1.068  15.207  0.2149 -0.0843 -0.3874
   6323SM  H21F 8176   4.265   1.076  15.100 -1.2501 -2.1021 -0.2146
   6323SM  H21G 8177   4.402   1.046  15.214  0.9121  2.3366 -2.2191
   6323SM  C22F 8178   4.273   1.202  15.272 -0.1900 -0.4797 -0.4185
   6323SM  H22F 8179   4.313   1.205  15.375 -0.5570  0.0162 -0.2857
   6323SM  H22G 8180   4.163   1.217  15.273 -0.5324 -2.7143  0.1522
   6323SM  C23F 8181   4.341   1.319  15.207  0.0728  0.5297 -0.0100
   6323SM  H23F 8182   4.335   1.411  15.269 -0.2586 -1.0732  2.4367
   6323SM  H23G 8183   4.318   1.335  15.099 -0.8870 -0.7644 -0.0178
   6323SM  H23H 8184   4.449   1.299  15.192  0.0395  1.3150 -1.5150
   6423SM     N 8185   0.684   0.425  18.567  0.0814  0.1924  0.8045
   6423SM   C15 8186   0.760   0.328  18.647 -0.3889 -0.6267 -0.2147
   6423SM  H15A 8187   0.753   0.231  18.599 -0.4987 -1.3483  1.1918
   6423SM  H15B 8188   0.716   0.316  18.745  0.3272 -1.1980  0.0511
   6423SM  H15C 8189   0.865   0.352  18.643 -0.5974  0.1772 -2.0936
   6423SM   C14 8190   0.539   0.385  18.578 -0.1316 -0.5730 -0.2241
   6423SM  H14A 8191   0.503   0.369  18.678 -1.2442 -3.4002 -0.9846
   6423SM  H14B 8192   0.515   0.298  18.518 -0.6735 -0.3045 -0.3965
   6423SM  H14C 8193   0.477   0.465  18.541  1.0666  0.5279  0.0558
   6423SM   C13 8194   0.686   0.561  18.631 -0.0272 -0.6498 -0.4550
   6423SM  H13A 8195   0.660   0.551  18.735 -2.6122  0.0998 -0.9621
   6423SM  H13B 8196   0.616   0.635  18.594 -0.1469  1.7338  3.8902
   6423SM  H13C 8197   0.785   0.599  18.647 -0.8743  1.9811 -0.9703
   6423SM   C12 8198   0.739   0.432  18.431  0.1250 -0.3252 -0.2902
   6423SM  H12A 8199   0.842   0.465  18.436 -0.2376  0.6285  1.5722
   6423SM  H12B 8200   0.682   0.500  18.368  1.4596  0.1695 -1.0097
   6423SM   C11 8201   0.738   0.297  18.340  0.4498  0.6125 -0.0377
   6423SM  H11A 8202   0.795   0.221  18.397 -0.1043 -0.9199 -1.4627
   6423SM  H11B 8203   0.793   0.321  18.247  1.6648  1.8988  0.9586
   6423SM     P 8204   0.499   0.344  18.235 -0.4530 -0.3880 -0.1559
   6423SM   O13 8205   0.362   0.301  18.277 -0.1894  0.4408 -0.0122
   6423SM   O14 8206   0.527   0.487  18.234  0.3869 -0.1680 -0.2596
   6423SM   O11 8207   0.524   0.278  18.101  0.0186 -0.0124  0.1117
   6423SM   O12 8208   0.604   0.258  18.318  0.0701  0.2715 -0.2420
   6423SM   C1S 8209   0.575   0.346  17.984  0.6016 -0.2478  0.8665
   6423SM   H1S 8210   0.645   0.430  17.999  0.3065 -0.1562  1.8129
   6423SM   H1T 8211   0.486   0.406  17.955  1.1500  1.0885  1.8789
   6423SM    NF 8212   0.674   0.319  17.765 -0.0676  0.3494  0.3380
   6423SM   HNF 8213   0.615   0.325  17.684  0.8901 -1.3661 -0.5447
   6423SM   C2S 8214   0.611   0.245  17.878 -1.1803  0.0891 -0.0389
   6423SM   H2S 8215   0.691   0.180  17.918  0.6330  2.6685  0.7472
   6423SM   C3S 8216   0.485   0.164  17.837  0.0037 -0.4836  0.1897
   6423SM   H3S 8217   0.416   0.240  17.795  1.9528  0.3280 -1.7780
   6423SM    O3 8218   0.415   0.107  17.951  0.1904  0.2221  0.2850
   6423SM   HO3 8219   0.447   0.160  18.024  3.2038 -0.5890 -0.3158
   6423SM   C4S 8220   0.519   0.066  17.730  0.5528  0.8994  0.3062
   6423SM   H4S 8221   0.539   0.105  17.630 -0.1717 -1.5346 -0.8663
   6423SM   C5S 8222   0.538  -0.069  17.741 -0.4848  0.0470  0.1933
   6423SM   H5S 8223   0.521  -0.115  17.839  1.6528 -2.9854 -0.7325
   6423SM   C6S 8224   0.586  -0.164  17.635 -0.0058  0.2981 -0.3791
   6423SM   H6S 8225   0.531  -0.261  17.647  0.9547 -0.2222 -0.0906
   6423SM   H6T 8226   0.686  -0.203  17.664 -1.1802 -1.1708  1.9749
   6423SM   C7S 8227   0.583  -0.116  17.489  0.4623  0.0609  0.4653
   6423SM   H7S 8228   0.651  -0.029  17.478  1.8149 -0.7969  1.5946
   6423SM   H7T 8229   0.484  -0.075  17.461  1.2031  2.1754  0.7900
   6423SM   C8S 8230   0.629  -0.228  17.396  0.9031  0.4697  0.2393
   6423SM   H8S 8231   0.554  -0.307  17.418 -0.9280  1.0685 -3.1324
   6423SM   H8T 8232   0.734  -0.259  17.417  0.5682  0.0151  1.3004
   6423SM   C9S 8233   0.631  -0.175  17.250  0.2154 -0.3131  0.6604
   6423SM   H9S 8234   0.717  -0.104  17.255  0.0293 -0.0249 -0.1314
   6423SM   H9T 8235   0.542  -0.113  17.229  0.3883  0.1059  1.1281
   6423SM  C10S 8236   0.643  -0.282  17.145 -0.2003  0.3097  0.0090
   6423SM  H10S 8237   0.547  -0.336  17.131  1.4519 -2.3899 -1.8056
   6423SM  H10T 8238   0.731  -0.343  17.175  2.0265  2.6453 -1.2873
   6423SM  C11S 8239   0.664  -0.219  17.008  0.1412  0.2136  0.4680
   6423SM  H11S 8240   0.763  -0.169  17.008 -0.7007  1.9747 -0.2651
   6423SM  H11T 8241   0.584  -0.143  16.998 -0.7341 -0.9496 -2.4274
   6423SM  C12S 8242   0.644  -0.326  16.898 -0.3816 -0.5271 -0.7464
   6423SM  H12S 8243   0.537  -0.356  16.888  0.1018 -3.6418  1.8509
   6423SM  H12T 8244   0.702  -0.419  16.915  2.1331  0.9945 -0.5325
   6423SM  C13S 8245   0.688  -0.279  16.761 -0.1774  0.0639 -0.8801
   6423SM  H13S 8246   0.798  -0.262  16.752  0.1983 -2.0647 -1.0656
   6423SM  H13T 8247   0.632  -0.185  16.747  0.6113  0.4914 -1.2059
   6423SM  C14S 8248   0.658  -0.374  16.644 -0.1694 -0.6047 -0.1108
   6423SM  H14S 8249   0.548  -0.379  16.629 -0.3479 -0.4344  1.0809
   6423SM  H14T 8250   0.703  -0.475  16.661  0.5346 -0.4245 -0.8146
   6423SM  C15S 8251   0.722  -0.313  16.512  0.5306  0.0744  0.7311
   6423SM  H15S 8252   0.826  -0.281  16.534  0.9998  0.0793 -1.3161
   6423SM  H15T 8253   0.657  -0.229  16.479  2.1754  1.2752  0.4348
   6423SM  C16S 8254   0.736  -0.422  16.408 -0.2346 -0.3347  0.8475
   6423SM  H16S 8255   0.638  -0.437  16.356 -0.1830 -0.0809  0.6739
   6423SM  H16T 8256   0.776  -0.520  16.440  1.0541  0.3562  1.4350
   6423SM  C17S 8257   0.842  -0.374  16.306  0.0788  0.6019 -0.0806
   6423SM  H17S 8258   0.944  -0.360  16.348  0.2226  2.2409 -0.8905
   6423SM  H17T 8259   0.825  -0.271  16.268  1.2669  0.0864 -2.1779
   6423SM  C18S 8260   0.860  -0.470  16.186 -0.7993  0.6414  0.2839
   6423SM  H18S 8261   0.904  -0.562  16.229  0.5648  1.6708  1.1586
   6423SM  H18T 8262   0.934  -0.424  16.117  0.6694 -0.4002  1.1165
   6423SM  H18U 8263   0.763  -0.492  16.136 -0.4592  0.1908 -0.1852
   6423SM   C1F 8264   0.790   0.386  17.779 -0.1488  0.7103 -0.4947
   6423SM    OF 8265   0.862   0.381  17.879  0.4290  0.1015  0.0201
   6423SM   C2F 8266   0.834   0.469  17.663  0.0598  0.4374  0.8176
   6423SM   H2F 8267   0.773   0.562  17.658 -0.7865 -0.1846 -3.2397
   6423SM   H2G 8268   0.809   0.427  17.564 -0.5085 -2.2792  2.0338
   6423SM   C3F 8269   0.987   0.502  17.653 -0.1735  0.5755 -0.5065
   6423SM   H3F 8270   1.042   0.405  17.650  2.6033  1.9868  0.7631
   6423SM   H3G 8271   1.029   0.550  17.744  0.2553  1.4342 -1.1524
   6423SM   C4F 8272   1.037   0.580  17.534  0.5593 -0.8257  0.3213
   6423SM   H4F 8273   1.141   0.617  17.551  0.9692 -0.4247 -2.4829
   6423SM   H4G 8274   0.977   0.673  17.525 -0.3834 -1.6036 -2.4661
   6423SM   C5F 8275   1.037   0.511  17.395 -0.3620 -0.3419 -0.2818
   6423SM   H5F 8276   0.943   0.454  17.381 -0.2979 -0.3957 -0.5011
   6423SM   H5G 8277   1.110   0.428  17.403 -1.1733 -0.9659  1.1518
   6423SM   C6F 8278   1.060   0.616  17.280 -0.1468  0.5285  0.2366
   6423SM   H6F 8279   1.154   0.669  17.305  0.9818 -1.3381  0.0904
   6423SM   H6G 8280   0.981   0.694  17.268 -0.4410 -0.1125 -2.8049
   6423SM   C7F 8281   1.077   0.547  17.141  0.2371 -0.8016 -0.2610
   6423SM   H7F 8282   0.996   0.471  17.138  0.2850 -0.9277  0.9018
   6423SM   H7G 8283   1.177   0.498  17.152  0.4173 -0.2874  0.4688
   6423SM   C8F 8284   1.066   0.639  17.020  0.4403  0.5610  0.7429
   6423SM   H8F 8285   1.137   0.721  17.041  2.9939 -1.1153 -0.7773
   6423SM   H8G 8286   0.962   0.676  17.014 -0.0535 -0.9380 -1.2202
   6423SM   C9F 8287   1.102   0.555  16.886 -0.4089 -0.0722  0.6995
   6423SM   H9F 8288   1.020   0.482  16.869 -1.2579  1.2670 -1.3244
   6423SM   H9G 8289   1.201   0.505  16.892 -0.2505  0.0162 -0.7865
   6423SM  C10F 8290   1.096   0.629  16.747 -0.1930 -0.4065 -0.1296
   6423SM  H10F 8291   1.166   0.715  16.753 -0.3855 -0.2895  0.5519
   6423SM  H10G 8292   0.992   0.666  16.734 -0.8148 -1.2911  1.9268
   6423SM  C11F 8293   1.145   0.545  16.636 -0.1687  0.0797 -0.8276
   6423SM  H11F 8294   1.080   0.457  16.619 -0.1414  0.3799 -2.8385
   6423SM  H11G 8295   1.250   0.508  16.640 -0.3962 -0.4768  0.1444
   6423SM  C12F 8296   1.123   0.619  16.501 -0.5398  0.5435  0.3024
   6423SM  H12F 8297   1.187   0.709  16.508 -1.1067  1.1045 -1.3529
   6423SM  H12G 8298   1.017   0.651  16.508 -1.5925 -2.4586 -0.3429
   6423SM  C13F 8299   1.152   0.545  16.373  0.1514  0.1689  0.1273
   6423SM  H13F 8300   1.094   0.453  16.393  1.9006 -0.8192  0.8492
   6423SM  H13G 8301   1.259   0.515  16.371 -0.3810 -1.7852 -1.8113
   6423SM  C14F 8302   1.112   0.620  16.248  0.5950 -0.5807 -0.5341
   6423SM  H14F 8303   1.188   0.695  16.217 -0.3602  2.3413  3.4351
   6423SM  H14G 8304   1.016   0.673  16.263  1.2545  0.7137 -0.7893
   6423SM  C15F 8305   1.083   0.523  16.131 -0.4721  0.4246 -1.0179
   6423SM  H15F 8306   1.173   0.458  16.124 -0.6628 -0.6700  3.4083
   6423SM  H15G 8307   1.074   0.583  16.038  3.2101 -1.2960 -2.6814
   6423SM  C16F 8308   0.963   0.436  16.147 -0.4180 -0.0257 -0.4529
   6423SM  H16F 8309   0.892   0.472  16.224 -1.8598  0.2094 -1.8399
   6423SM  H16G 8310   1.005   0.349  16.202 -0.0302  0.3429 -0.1543
   6423SM  C17F 8311   0.899   0.397  16.014 -0.9236  0.3105 -0.2935
   6423SM  H17F 8312   0.850   0.485  15.968  1.4262  2.2408  0.7266
   6423SM  H17G 8313   0.830   0.313  16.039 -0.5427  0.4077  1.1314
   6423SM  C18F 8314   0.985   0.340  15.903  0.4276  0.1034 -0.5203
   6423SM  H18F 8315   1.061   0.267  15.937  0.9217  1.1519  0.7193
   6423SM  H18G 8316   1.048   0.422  15.862  0.4789  0.2931 -0.0633
   6423SM  C19F 8317   0.899   0.269  15.794 -0.5722 -0.4072  0.0182
   6423SM  H19F 8318   0.854   0.180  15.844 -1.2050 -0.4483 -0.5986
   6423SM  H19G 8319   0.969   0.225  15.720 -0.7422 -1.6450  0.5690
   6423SM  C20F 8320   0.781   0.360  15.744 -0.4848 -0.2480 -0.7262
   6423SM  H20F 8321   0.827   0.458  15.720  0.1027 -0.3770 -0.1688
   6423SM  H20G 8322   0.715   0.382  15.831  2.6297  0.2133  1.7135
   6423SM  C21F 8323   0.721   0.295  15.627 -0.2698 -0.2404  0.1169
   6423SM  H21F 8324   0.614   0.324  15.622 -0.7765 -1.7680  1.5328
   6423SM  H21G 8325   0.724   0.185  15.640  1.9443 -0.1666  0.5919
   6423SM  C22F 8326   0.790   0.329  15.496  0.5300  0.0289 -0.0939
   6423SM  H22F 8327   0.896   0.301  15.508  0.4941  0.4338  1.2506
   6423SM  H22G 8328   0.789   0.439  15.484  0.8225 -0.0648 -1.0907
   6423SM  C23F 8329   0.713   0.266  15.373 -0.1703  0.1415  0.3237
   6423SM  H23F 8330   0.774   0.279  15.281 -2.4333  2.2447 -1.0121
   6423SM  H23G 8331   0.617   0.318  15.352 -0.5901  0.0603  1.9512
   6423SM  H23H 8332   0.687   0.159  15.385  2.0517 -0.4196  0.5565
   6523SM     N 8333   6.102   1.470  18.362  0.3598 -0.0584 -0.0179
   6523SM   C15 8334   6.066   1.524  18.500  0.0085  0.8093 -0.1206
   6523SM  H15A 8335   6.016   1.448  18.557  2.2058  0.7337  1.8189
   6523SM  H15B 8336   6.004   1.613  18.488 -0.4815  0.3916 -0.7670
   6523SM  H15C 8337   6.151   1.551  18.560 -1.2244  0.3213  1.9556
   6523SM   C14 8338   6.107   1.326  18.369 -0.1186 -0.5544 -0.0424
   6523SM  H14A 8339   6.106   1.281  18.271  0.9829  0.9040 -0.7558
   6523SM  H14B 8340   6.026   1.292  18.431 -1.5885  1.5829 -0.6925
   6523SM  H14C 8341   6.200   1.299  18.416 -0.3658 -2.5486 -0.5952
   6523SM   C13 8342   5.990   1.505  18.265  0.0268 -0.0265 -0.0835
   6523SM  H13A 8343   5.899   1.453  18.293  0.5387 -0.2796  1.1542
   6523SM  H13B 8344   6.000   1.466  18.165 -3.4788 -0.0396 -0.5561
   6523SM  H13C 8345   5.971   1.611  18.255 -1.7782 -0.3575 -0.4946
   6523SM   C12 8346   6.228   1.527  18.314 -0.4250  0.0097 -0.1482
   6523SM  H12A 8347   6.300   1.542  18.393 -0.5663  1.7501 -0.3055
   6523SM  H12B 8348   6.221   1.626  18.270  3.0044  0.4377  0.0277
   6523SM   C11 8349   6.302   1.447  18.205 -0.9613 -0.5256 -0.0258
   6523SM  H11A 8350   6.341   1.347  18.237  0.7672  0.2379  0.3727
   6523SM  H11B 8351   6.397   1.504  18.201  0.2712 -2.3796  0.8966
   6523SM     P 8352   6.210   1.572  17.988 -0.0196 -0.0703 -0.2379
   6523SM   O13 8353   6.108   1.662  18.041  0.5860 -0.1074 -0.4223
   6523SM   O14 8354   6.337   1.639  17.973 -0.6134 -0.2836 -0.2224
   6523SM   O11 8355   6.161   1.507  17.854 -0.3820 -0.8335 -0.3204
   6523SM   O12 8356   6.233   1.440  18.078 -0.3729  0.6452 -0.1279
   6523SM   C1S 8357   6.194   1.381  17.809  0.0880 -0.0474 -0.2029
   6523SM   H1S 8358   6.112   1.311  17.837  0.5687 -1.4535 -2.1153
   6523SM   H1T 8359   6.288   1.350  17.858 -0.6846  0.6589  1.8292
   6523SM    NF 8360   6.226   1.238  17.617  0.8763  0.7819  0.5569
   6523SM   HNF 8361   6.316   1.196  17.613  0.8675  0.6473  1.4832
   6523SM   C2S 8362   6.208   1.382  17.659 -0.1998  0.4736  0.2749
   6523SM   H2S 8363   6.108   1.421  17.631  0.3103  1.7643  0.1896
   6523SM   C3S 8364   6.318   1.477  17.608 -0.7566  0.1112 -0.4580
   6523SM   H3S 8365   6.410   1.440  17.657  0.3980  1.9342 -1.1326
   6523SM    O3 8366   6.292   1.609  17.637 -0.4668  0.0270 -0.0448
   6523SM   HO3 8367   6.230   1.611  17.710  0.2627  0.3156  0.5848
   6523SM   C4S 8368   6.344   1.453  17.463  0.5813 -0.1752 -0.2406
   6523SM   H4S 8369   6.395   1.358  17.443 -1.1659 -1.0608 -0.7268
   6523SM   C5S 8370   6.280   1.524  17.362 -0.8037 -0.0276 -0.7050
   6523SM   H5S 8371   6.219   1.610  17.393 -1.5012 -0.8233  0.1805
   6523SM   C6S 8372   6.293   1.498  17.208 -0.1764  0.7813  0.3795
   6523SM   H6S 8373   6.357   1.580  17.170 -0.2852  0.8015  0.2397
   6523SM   H6T 8374   6.195   1.496  17.155 -0.0391 -0.6180  0.1395
   6523SM   C7S 8375   6.351   1.365  17.146 -0.5918  0.5853  0.2232
   6523SM   H7S 8376   6.301   1.283  17.203 -0.8813 -1.0731 -2.2584
   6523SM   H7T 8377   6.461   1.346  17.147 -0.4214  1.4868 -0.2981
   6523SM   C8S 8378   6.315   1.357  16.992  0.0044 -0.6395  0.1434
   6523SM   H8S 8379   6.207   1.344  16.972  0.1050  0.1136 -1.0417
   6523SM   H8T 8380   6.363   1.264  16.954  1.6742  0.4545 -0.5978
   6523SM   C9S 8381   6.373   1.477  16.908  0.3086 -0.2933  1.1592
   6523SM   H9S 8382   6.466   1.526  16.944  0.7861  0.8157 -1.3904
   6523SM   H9T 8383   6.303   1.563  16.911 -0.4642 -0.6655 -2.1644
   6523SM  C10S 8384   6.375   1.455  16.756  0.0338 -0.3036  0.7275
   6523SM  H10S 8385   6.457   1.383  16.736  1.5750  1.6528 -0.3709
   6523SM  H10T 8386   6.410   1.551  16.712  0.0912 -0.5849  0.1528
   6523SM  C11S 8387   6.242   1.406  16.690  0.0744 -0.5926  0.4671
   6523SM  H11S 8388   6.157   1.467  16.725 -0.1876 -0.2913 -0.6509
   6523SM  H11T 8389   6.215   1.304  16.725 -3.9127 -0.4501 -1.6178
   6523SM  C12S 8390   6.233   1.410  16.535  0.1809  0.2893  0.2500
   6523SM  H12S 8391   6.228   1.514  16.495 -2.9224  0.3597  0.5414
   6523SM  H12T 8392   6.134   1.371  16.501  0.9562 -1.5373 -0.0150
   6523SM  C13S 8393   6.346   1.329  16.470 -0.7895  0.2437  0.6265
   6523SM  H13S 8394   6.361   1.234  16.526  0.3221 -0.0927 -0.2023
   6523SM  H13T 8395   6.436   1.390  16.495 -0.8044  0.2079  0.7677
   6523SM  C14S 8396   6.329   1.285  16.320  0.3280 -0.3267  0.3909
   6523SM  H14S 8397   6.300   1.371  16.257  1.3408 -1.0587 -1.1319
   6523SM  H14T 8398   6.236   1.225  16.312 -0.0101  0.3435 -0.8874
   6523SM  C15S 8399   6.446   1.219  16.250 -0.1684  0.4337  0.1627
   6523SM  H15S 8400   6.491   1.133  16.303  0.0432  0.6235  0.2945
   6523SM  H15T 8401   6.536   1.284  16.258  0.1067  0.6510 -3.1848
   6523SM  C16S 8402   6.414   1.187  16.103  0.0663 -0.1538  1.1139
   6523SM  H16S 8403   6.388   1.283  16.053 -1.2341 -1.6270 -1.2647
   6523SM  H16T 8404   6.324   1.122  16.097 -1.4163  1.8814 -0.6120
   6523SM  C17S 8405   6.520   1.117  16.021 -0.7229  0.1440 -0.3052
   6523SM  H17S 8406   6.556   1.034  16.086 -0.1795 -1.2385 -2.2622
   6523SM  H17T 8407   6.608   1.184  16.011 -0.7621  0.1323 -0.7271
   6523SM  C18S 8408   6.462   1.060  15.887  0.4264  0.1402 -0.3358
   6523SM  H18S 8409   6.392   0.975  15.901 -1.1579  1.7883  2.7708
   6523SM  H18T 8410   6.541   1.020  15.820 -0.7384  0.2631 -1.8252
   6523SM  H18U 8411   6.403   1.141  15.841  0.4401  1.0854  1.2385
   6523SM   C1F 8412   6.123   1.149  17.617  0.1474 -0.5060  0.7123
   6523SM    OF 8413   6.008   1.196  17.617  0.5390 -0.0151  0.4520
   6523SM   C2F 8414   6.160   1.002  17.597  0.0427 -0.3525  0.3131
   6523SM   H2F 8415   6.107   0.949  17.679 -1.3844  0.3201 -0.1395
   6523SM   H2G 8416   6.270   0.997  17.604 -0.0083  0.1668  2.1860
   6523SM   C3F 8417   6.131   0.940  17.456  0.0771  0.8954 -0.2414
   6523SM   H3F 8418   6.021   0.932  17.442  0.0561 -0.1530  0.4181
   6523SM   H3G 8419   6.173   0.837  17.458  0.6992  1.1506  1.3054
   6523SM   C4F 8420   6.205   1.019  17.344  0.6507  0.9976  0.1187
   6523SM   H4F 8421   6.311   0.985  17.350  0.1516 -0.6196  0.1841
   6523SM   H4G 8422   6.202   1.129  17.363  0.2134  1.1325 -0.6926
   6523SM   C5F 8423   6.158   0.989  17.200  0.0822 -0.0858 -0.2292
   6523SM   H5F 8424   6.167   1.075  17.130  0.0402 -1.8571 -2.5216
   6523SM   H5G 8425   6.053   0.954  17.208  0.6223 -2.0368 -0.9640
   6523SM   C6F 8426   6.229   0.869  17.150  0.4084  0.1432  0.3719
   6523SM   H6F 8427   6.210   0.787  17.223  1.5216  0.7429  1.3774
   6523SM   H6G 8428   6.338   0.889  17.158  0.7111 -0.9944 -0.6832
   6523SM   C7F 8429   6.206   0.836  16.997 -0.7416  0.8236  0.1309
   6523SM   H7F 8430   6.097   0.824  16.980 -0.7232 -1.0731  1.0333
   6523SM   H7G 8431   6.247   0.733  16.988 -1.7021  0.5184 -0.9017
   6523SM   C8F 8432   6.266   0.926  16.897  0.3722  0.3049 -0.6630
   6523SM   H8F 8433   6.372   0.932  16.929  0.2685 -1.9310  0.3146
   6523SM   H8G 8434   6.220   1.026  16.908  0.8785  0.8184 -2.8808
   6523SM   C9F 8435   6.258   0.868  16.753  0.1700  0.3664  0.2375
   6523SM   H9F 8436   6.152   0.843  16.731  0.1272 -0.4180  1.2895
   6523SM   H9G 8437   6.320   0.777  16.744 -1.7120 -0.8460 -1.3361
   6523SM  C10F 8438   6.305   0.966  16.638 -0.9541  1.3106  0.5270
   6523SM  H10F 8439   6.416   0.954  16.640 -0.9739  0.5135 -1.1889
   6523SM  H10G 8440   6.289   1.074  16.659  1.0784  1.4818  1.5400
   6523SM  C11F 8441   6.255   0.917  16.500 -0.6041  0.5225 -0.5368
   6523SM  H11F 8442   6.302   0.983  16.424  0.6753  1.9207  1.3847
   6523SM  H11G 8443   6.144   0.922  16.492 -0.7298  2.5266  1.3177
   6523SM  C12F 8444   6.303   0.773  16.457  0.7832 -0.6358 -0.3457
   6523SM  H12F 8445   6.217   0.705  16.473 -1.7524  2.7001  1.6122
   6523SM  H12G 8446   6.379   0.747  16.534  0.7146  0.7400  0.2236
   6523SM  C13F 8447   6.324   0.772  16.306  0.2095 -0.0278  0.0478
   6523SM  H13F 8448   6.400   0.849  16.282  0.8331 -0.6578 -0.0281
   6523SM  H13G 8449   6.231   0.800  16.252  0.1506  0.5152  0.4322
   6523SM  C14F 8450   6.384   0.638  16.263 -0.2190  0.6080  0.1993
   6523SM  H14F 8451   6.315   0.555  16.290  0.4398 -0.7495 -1.9808
   6523SM  H14G 8452   6.477   0.616  16.319 -1.0283  0.2049  1.4207
   6523SM  C15F 8453   6.421   0.634  16.115 -0.1475 -0.0048 -0.3049
   6523SM  H15F 8454   6.504   0.560  16.114  0.6192  0.8111  0.7405
   6523SM  H15G 8455   6.459   0.731  16.078 -1.3285  0.5425 -0.1360
   6523SM  C16F 8456   6.310   0.588  16.037  0.3305  0.3709 -0.3813
   6523SM  H16F 8457   6.245   0.677  16.024 -2.7748 -2.1278 -4.3294
   6523SM  H16G 8458   6.249   0.505  16.078  2.5980 -2.1341 -1.7302
   6523SM  C17F 8459   6.347   0.537  15.900 -0.3415 -1.0370  0.8501
   6523SM  H17F 8460   6.355   0.427  15.909  0.5128 -0.9552  1.2583
   6523SM  H17G 8461   6.449   0.574  15.873 -1.6691  1.2297 -1.5204
   6523SM  C18F 8462   6.246   0.577  15.792 -0.9775 -0.2836 -0.0323
   6523SM  H18F 8463   6.215   0.684  15.796  0.8081  0.2745 -0.2608
   6523SM  H18G 8464   6.148   0.525  15.799 -0.8404 -0.8261 -1.8485
   6523SM  C19F 8465   6.289   0.549  15.650 -1.2388  0.7530  0.0458
   6523SM  H19F 8466   6.206   0.562  15.577 -1.4484 -0.5245  0.0493
   6523SM  H19G 8467   6.318   0.443  15.638 -2.3452  0.3535  0.7944
   6523SM  C20F 8468   6.411   0.626  15.608 -0.6610  0.0171  0.4135
   6523SM  H20F 8469   6.448   0.600  15.507 -2.0627 -1.2725  0.1896
   6523SM  H20G 8470   6.497   0.624  15.678 -1.1399  1.2817  1.0811
   6523SM  C21F 8471   6.385   0.781  15.589 -0.2137 -0.6564  0.1892
   6523SM  H21F 8472   6.341   0.821  15.683  1.6773 -0.6832  1.1517
   6523SM  H21G 8473   6.317   0.797  15.503 -2.9272 -1.5667  2.0251
   6523SM  C22F 8474   6.515   0.868  15.569  0.4251  0.1724 -0.1032
   6523SM  H22F 8475   6.572   0.807  15.496 -1.4992 -1.6211 -0.2145
   6523SM  H22G 8476   6.585   0.880  15.655 -2.0823  1.3358  1.9181
   6523SM  C23F 8477   6.484   1.005  15.511 -0.1020  0.6393 -0.4868
   6523SM  H23F 8478   6.436   1.004  15.410  1.3109  0.4446 -1.1788
   6523SM  H23G 8479   6.586   1.048  15.500  0.0611  0.7576  1.3015
   6523SM  H23H 8480   6.431   1.076  15.579  1.1437  0.9859  0.1638
   6623SM     N 8481   3.172   4.398  17.759  0.3686  0.5517  0.3067
   6623SM   C15 8482   3.223   4.516  17.695  0.2812 -0.7371  0.3651
   6623SM  H15A 8483   3.174   4.513  17.598  0.1306 -0.6930  0.4393
   6623SM  H15B 8484   3.330   4.514  17.687  0.3489  0.9938  0.4057
   6623SM  H15C 8485   3.194   4.612  17.735 -1.8994 -1.4960  0.7611
   6623SM   C14 8486   3.274   4.363  17.858  0.4379  0.2465 -0.3751
   6623SM  H14A 8487   3.232   4.279  17.911 -2.1381  2.2038  0.9348
   6623SM  H14B 8488   3.285   4.449  17.923  1.4588 -0.4983  0.4886
   6623SM  H14C 8489   3.360   4.325  17.806  1.3810  0.6967  0.7994
   6623SM   C13 8490   3.036   4.427  17.834 -0.6046 -0.1032  0.1780
   6623SM  H13A 8491   2.963   4.476  17.771 -1.3999  0.2310  1.3347
   6623SM  H13B 8492   3.046   4.500  17.913 -0.4088  0.9501 -0.7893
   6623SM  H13C 8493   2.983   4.340  17.871  1.3092 -0.5158  2.1381
   6623SM   C12 8494   3.156   4.279  17.666  0.1307 -0.4380 -0.1344
   6623SM  H12A 8495   3.084   4.302  17.588  2.0527  0.8676 -1.6164
   6623SM  H12B 8496   3.109   4.201  17.724  2.1730 -0.8569  1.0277
   6623SM   C11 8497   3.285   4.230  17.588 -0.1386 -0.0703 -0.5332
   6623SM  H11A 8498   3.329   4.317  17.534 -1.6608  0.5887 -0.7812
   6623SM  H11B 8499   3.246   4.157  17.514 -0.8465 -0.2486  0.0036
   6623SM     P 8500   3.526   4.101  17.625 -0.0517  0.1000  0.0547
   6623SM   O13 8501   3.628   4.180  17.701 -0.1478  0.5008  0.1334
   6623SM   O14 8502   3.522   3.954  17.645 -0.4284  0.8330  0.1629
   6623SM   O11 8503   3.547   4.131  17.474 -0.0223  0.8402 -0.7985
   6623SM   O12 8504   3.383   4.165  17.669  0.5683  0.1312 -0.5048
   6623SM   C1S 8505   3.619   4.246  17.434  0.8309  0.6381 -0.5414
   6623SM   H1S 8506   3.719   4.260  17.479  0.0689  1.8870  0.8642
   6623SM   H1T 8507   3.572   4.342  17.462  1.0451  0.4377  0.5410
   6623SM    NF 8508   3.660   4.393  17.246 -0.0308  0.3323  0.2607
   6623SM   HNF 8509   3.590   4.462  17.231  0.1545  0.7055  1.0757
   6623SM   C2S 8510   3.612   4.263  17.287  0.3046 -0.0467 -0.3615
   6623SM   H2S 8511   3.669   4.177  17.244  0.1603 -0.6705  0.6624
   6623SM   C3S 8512   3.461   4.252  17.249 -0.0571  0.5241  0.1710
   6623SM   H3S 8513   3.407   4.337  17.297 -0.6011  0.7405 -0.7986
   6623SM    O3 8514   3.383   4.138  17.288 -0.1141 -0.2777 -0.3948
   6623SM   HO3 8515   3.430   4.114  17.368 -1.4188 -1.8909 -0.0441
   6623SM   C4S 8516   3.455   4.264  17.094 -0.0097 -0.8350 -0.4979
   6623SM   H4S 8517   3.451   4.369  17.063 -1.3084 -0.8919 -0.5629
   6623SM   C5S 8518   3.432   4.171  17.000 -0.8369 -0.1282 -0.3601
   6623SM   H5S 8519   3.410   4.071  17.041 -0.0466 -0.2815 -0.2920
   6623SM   C6S 8520   3.422   4.188  16.848 -0.0059  0.1398 -0.5490
   6623SM   H6S 8521   3.321   4.161  16.813 -0.0338  0.8664 -1.0505
   6623SM   H6T 8522   3.487   4.107  16.809 -0.6723 -0.5238 -0.2808
   6623SM   C7S 8523   3.454   4.317  16.778  0.4198  0.0445  0.4092
   6623SM   H7S 8524   3.558   4.347  16.803  0.7149 -0.2088 -0.4787
   6623SM   H7T 8525   3.384   4.396  16.814 -1.2767 -0.4951 -1.4999
   6623SM   C8S 8526   3.429   4.315  16.623  0.0527  0.6815 -0.3012
   6623SM   H8S 8527   3.319   4.317  16.608 -0.2043 -1.0597  1.0082
   6623SM   H8T 8528   3.473   4.226  16.573 -0.2896  1.3916 -1.9296
   6623SM   C9S 8529   3.511   4.426  16.562  0.1784 -0.4978  0.3211
   6623SM   H9S 8530   3.618   4.397  16.549  0.3300  0.7189 -1.4575
   6623SM   H9T 8531   3.519   4.499  16.645  0.9926 -0.7921  0.5085
   6623SM  C10S 8532   3.449   4.485  16.437 -1.2147  0.3255 -0.0459
   6623SM  H10S 8533   3.493   4.581  16.405  2.0923  0.2222  3.3953
   6623SM  H10T 8534   3.345   4.518  16.459 -0.8223  1.6245 -0.1120
   6623SM  C11S 8535   3.447   4.388  16.314 -0.8168 -0.6294  0.4185
   6623SM  H11S 8536   3.365   4.317  16.336 -0.3056 -1.1455  0.6842
   6623SM  H11T 8537   3.538   4.326  16.301 -1.3906 -1.5666  0.7728
   6623SM  C12S 8538   3.422   4.470  16.189  0.0107  0.1097 -0.2647
   6623SM  H12S 8539   3.499   4.550  16.175 -1.6075  1.4151 -2.5099
   6623SM  H12T 8540   3.332   4.533  16.209  1.6466  2.4231  0.2573
   6623SM  C13S 8541   3.407   4.398  16.061 -0.4944  0.1792  0.7612
   6623SM  H13S 8542   3.483   4.318  16.064  0.7442  1.3283  2.9192
   6623SM  H13T 8543   3.410   4.463  15.970  2.3840  1.2816  1.5228
   6623SM  C14S 8544   3.278   4.315  16.047  0.1606  0.0390  0.1130
   6623SM  H14S 8545   3.193   4.385  16.062  0.9507  1.4128 -1.4186
   6623SM  H14T 8546   3.265   4.248  16.134 -0.8276  0.7764  0.5511
   6623SM  C15S 8547   3.265   4.228  15.922 -0.1749  0.0130  0.1990
   6623SM  H15S 8548   3.169   4.173  15.922  0.7279 -1.6544  1.0984
   6623SM  H15T 8549   3.338   4.144  15.928  0.1190  0.2614  0.1322
   6623SM  C16S 8550   3.300   4.301  15.793 -0.5583 -0.4508 -0.1902
   6623SM  H16S 8551   3.314   4.226  15.712  0.6469  0.2966 -0.6965
   6623SM  H16T 8552   3.400   4.345  15.809 -1.8081  1.9145  1.9407
   6623SM  C17S 8553   3.199   4.399  15.746  0.3514  0.6956 -0.2259
   6623SM  H17S 8554   3.239   4.442  15.652  0.3290  0.5105 -0.3209
   6623SM  H17T 8555   3.173   4.483  15.813  0.8286  1.4805 -1.0088
   6623SM  C18S 8556   3.073   4.322  15.693  0.5379 -0.4880  0.3231
   6623SM  H18S 8557   3.103   4.235  15.631  2.4980  1.7284 -2.0950
   6623SM  H18T 8558   3.009   4.401  15.646 -1.9722 -0.5923  3.2766
   6623SM  H18U 8559   3.010   4.279  15.773 -3.5531 -0.7469 -2.7258
   6623SM   C1F 8560   3.785   4.420  17.225  0.8250 -0.5419  0.6824
   6623SM    OF 8561   3.876   4.371  17.293  0.3954 -0.0024 -0.3802
   6623SM   C2F 8562   3.808   4.530  17.128 -0.6355  0.1947 -1.5662
   6623SM   H2F 8563   3.894   4.584  17.173 -1.5567  0.8885 -0.5981
   6623SM   H2G 8564   3.722   4.600  17.127 -1.7832 -1.0691  0.8127
   6623SM   C3F 8565   3.826   4.477  16.991 -0.5078 -0.1786  0.3074
   6623SM   H3F 8566   3.736   4.418  16.961 -0.2505 -0.6386  0.4364
   6623SM   H3G 8567   3.907   4.402  16.987  3.7705  3.8291  2.1143
   6623SM   C4F 8568   3.866   4.589  16.889  0.1172  0.3844  0.2887
   6623SM   H4F 8569   3.957   4.637  16.930  0.4484 -0.3730  0.4440
   6623SM   H4G 8570   3.773   4.648  16.870 -0.6960 -1.0692 -0.4610
   6623SM   C5F 8571   3.897   4.540  16.745 -0.5556  0.2126 -0.7000
   6623SM   H5F 8572   3.828   4.454  16.730 -2.8874  0.4036  5.8865
   6623SM   H5G 8573   3.999   4.497  16.736 -1.1522 -1.2753 -0.6956
   6623SM   C6F 8574   3.872   4.643  16.638 -0.1919  0.7840 -0.5448
   6623SM   H6F 8575   3.934   4.733  16.660  4.0236 -2.2615  1.4825
   6623SM   H6G 8576   3.763   4.660  16.655 -0.3818 -1.7619  1.4292
   6623SM   C7F 8577   3.892   4.593  16.493  0.3973  0.1444  0.2661
   6623SM   H7F 8578   3.829   4.501  16.490 -0.3119  0.6201  0.4690
   6623SM   H7G 8579   3.998   4.559  16.483  0.6322  0.2752  2.0173
   6623SM   C8F 8580   3.855   4.692  16.388 -0.1186  0.6806  0.2767
   6623SM   H8F 8581   3.908   4.790  16.400 -0.4314  1.1047 -1.5337
   6623SM   H8G 8582   3.749   4.720  16.402  0.1779  1.3793  1.2827
   6623SM   C9F 8583   3.880   4.636  16.252 -0.4383 -0.0169 -0.0008
   6623SM   H9F 8584   3.866   4.526  16.258 -1.6640  0.1799  1.3076
   6623SM   H9G 8585   3.984   4.644  16.214 -0.9557  0.2071 -1.4283
   6623SM  C10F 8586   3.790   4.692  16.146  0.0639  0.4319 -0.4586
   6623SM  H10F 8587   3.845   4.786  16.127  1.3991  0.1267  1.6179
   6623SM  H10G 8588   3.692   4.701  16.199  0.7053 -1.5562  1.1691
   6623SM  C11F 8589   3.772   4.609  16.019 -0.3750 -1.1195 -0.0719
   6623SM  H11F 8590   3.706   4.522  16.038  0.1066 -1.6453 -0.7401
   6623SM  H11G 8591   3.871   4.563  15.994 -0.9010 -0.7242 -3.3353
   6623SM  C12F 8592   3.714   4.682  15.895 -0.1885 -0.7026 -0.9065
   6623SM  H12F 8593   3.802   4.721  15.839 -1.8502  1.7561 -2.0025
   6623SM  H12G 8594   3.638   4.756  15.929 -0.7752 -0.9575 -1.6224
   6623SM  C13F 8595   3.642   4.581  15.803 -0.1696  0.8522 -0.1313
   6623SM  H13F 8596   3.547   4.544  15.848 -1.0592 -1.0841 -3.2465
   6623SM  H13G 8597   3.706   4.491  15.791 -0.8679  0.3076  0.1465
   6623SM  C14F 8598   3.611   4.628  15.660 -0.0295  0.5765  0.2304
   6623SM  H14F 8599   3.700   4.660  15.601 -0.5689  1.8020  0.0399
   6623SM  H14G 8600   3.544   4.716  15.674 -0.8506 -0.1805  1.1591
   6623SM  C15F 8601   3.545   4.515  15.582  1.0308 -0.1117 -0.3815
   6623SM  H15F 8602   3.438   4.507  15.614  0.6008  0.5207 -1.5794
   6623SM  H15G 8603   3.604   4.421  15.584  0.2426 -0.5998  1.2847
   6623SM  C16F 8604   3.528   4.547  15.429  0.1349 -0.1503  0.0910
   6623SM  H16F 8605   3.625   4.582  15.387  2.1481 -3.1072  1.8754
   6623SM  H16G 8606   3.452   4.625  15.408 -0.2807 -1.1391 -2.3876
   6623SM  C17F 8607   3.494   4.416  15.358  0.5378  0.3852  0.2721
   6623SM  H17F 8608   3.405   4.378  15.411  0.3933  2.3334  1.5239
   6623SM  H17G 8609   3.583   4.350  15.351  1.0198  1.1863 -2.0838
   6623SM  C18F 8610   3.439   4.442  15.218  0.1717  0.1048 -0.3364
   6623SM  H18F 8611   3.485   4.529  15.166 -0.4759  0.8558  0.3150
   6623SM  H18G 8612   3.330   4.466  15.221  0.2165  0.7778 -2.2877
   6623SM  C19F 8613   3.434   4.317  15.121  0.1913  0.2102  0.4116
   6623SM  H19F 8614   3.404   4.231  15.184  0.2288  1.3583  2.0557
   6623SM  H19G 8615   3.541   4.298  15.097  0.6033  2.5239  0.2004
   6623SM  C20F 8616   3.369   4.337  14.987 -0.2102  0.6306 -0.3945
   6623SM  H20F 8617   3.382   4.439  14.946  2.0425  0.5899  0.0695
   6623SM  H20G 8618   3.260   4.328  15.006 -0.0484 -0.7583 -0.0300
   6623SM  C21F 8619   3.422   4.237  14.885  1.0410  0.8557  0.0178
   6623SM  H21F 8620   3.391   4.135  14.915  0.5215  1.0799  0.2463
   6623SM  H21G 8621   3.533   4.231  14.875  0.9947 -0.7625  0.2896
   6623SM  C22F 8622   3.360   4.252  14.743 -0.0512  0.1078 -0.4210
   6623SM  H22F 8623   3.412   4.330  14.684 -1.4055  1.3130 -0.0752
   6623SM  H22G 8624   3.252   4.272  14.756 -0.2475  0.3897 -2.2549
   6623SM  C23F 8625   3.387   4.131  14.655 -0.5959 -0.5847  0.4775
   6623SM  H23F 8626   3.304   4.123  14.582  0.7162 -1.2055 -1.0219
   6623SM  H23G 8627   3.396   4.034  14.708  0.3560  0.2505  1.8917
   6623SM  H23H 8628   3.488   4.149  14.612 -0.7295  0.6293  0.6252
   6723SM     N 8629   4.725   1.635  17.483  0.1079  0.9674 -0.1793
   6723SM   C15 8630   4.687   1.555  17.610 -0.0967 -0.4500 -0.1070
   6723SM  H15A 8631   4.682   1.449  17.588  1.4025 -0.4207 -0.7675
   6723SM  H15B 8632   4.593   1.593  17.647 -1.0074 -0.7155 -2.0160
   6723SM  H15C 8633   4.767   1.564  17.682  0.2743 -2.9408 -0.0989
   6723SM   C14 8634   4.859   1.584  17.439 -0.1265 -0.1724 -0.3743
   6723SM  H14A 8635   4.868   1.597  17.332  1.8745  2.5550  0.0338
   6723SM  H14B 8636   4.860   1.480  17.469 -4.0185 -0.7324 -1.5891
   6723SM  H14C 8637   4.936   1.638  17.491 -1.6713  0.7521  1.0898
   6723SM   C13 8638   4.626   1.623  17.379  0.2710  0.8353  0.6380
   6723SM  H13A 8639   4.631   1.525  17.333  0.3375  2.0639 -2.2410
   6723SM  H13B 8640   4.648   1.689  17.296  1.1002 -1.7248 -1.3278
   6723SM  H13C 8641   4.525   1.645  17.410 -0.0726  0.6305 -0.2792
   6723SM   C12 8642   4.739   1.783  17.524  0.0956 -0.1980  0.3531
   6723SM  H12A 8643   4.818   1.799  17.596 -1.6382  0.4688  2.2064
   6723SM  H12B 8644   4.642   1.810  17.562  0.2155 -0.6740  1.0095
   6723SM   C11 8645   4.761   1.868  17.399  0.0645  0.0711 -0.3232
   6723SM  H11A 8646   4.840   1.820  17.338 -0.2382 -0.5778 -0.2131
   6723SM  H11B 8647   4.794   1.961  17.450 -0.1969  0.0278 -0.0666
   6723SM     P 8648   4.623   2.029  17.259  0.3746  0.0184  0.1552
   6723SM   O13 8649   4.484   2.030  17.208 -0.2771 -0.2800 -0.8251
   6723SM   O14 8650   4.658   2.146  17.342  0.6685 -0.5125  0.1135
   6723SM   O11 8651   4.711   2.025  17.133  0.8129 -0.1643 -0.2138
   6723SM   O12 8652   4.640   1.894  17.338  0.6350  0.2283  0.3694
   6723SM   C1S 8653   4.727   1.907  17.051  0.3173 -0.1806 -0.0967
   6723SM   H1S 8654   4.653   1.828  17.077  0.2446 -0.3934 -0.9037
   6723SM   H1T 8655   4.832   1.872  17.066 -0.2661 -1.2689  1.7358
   6723SM    NF 8656   4.728   1.838  16.823 -0.0709 -0.8981 -0.1203
   6723SM   HNF 8657   4.823   1.828  16.794  1.0156  1.9843  1.9054
   6723SM   C2S 8658   4.707   1.957  16.905 -1.4404 -0.0477  0.2592
   6723SM   H2S 8659   4.602   1.976  16.876 -0.5263  2.1089 -2.0122
   6723SM   C3S 8660   4.809   2.078  16.877 -0.7995 -0.0133  1.0300
   6723SM   H3S 8661   4.903   2.029  16.910 -0.2781  0.3620  0.1573
   6723SM    O3 8662   4.799   2.195  16.956  0.3322 -0.0019  0.1329
   6723SM   HO3 8663   4.771   2.150  17.037 -2.0381 -1.1598 -1.2415
   6723SM   C4S 8664   4.807   2.097  16.726 -0.1518  0.0205 -0.3790
   6723SM   H4S 8665   4.850   2.012  16.671 -0.1986 -1.0199  1.1339
   6723SM   C5S 8666   4.753   2.201  16.660 -0.3170 -0.3317 -0.5163
   6723SM   H5S 8667   4.708   2.279  16.723 -0.5345  1.2461 -2.5006
   6723SM   C6S 8668   4.733   2.220  16.511  0.2260 -0.2525  0.1190
   6723SM   H6S 8669   4.769   2.324  16.500  0.5955 -0.1511  1.8630
   6723SM   H6T 8670   4.625   2.219  16.486  0.1067 -2.3052  0.4651
   6723SM   C7S 8671   4.814   2.123  16.425  0.1216 -0.0266  0.0677
   6723SM   H7S 8672   4.771   2.020  16.427  1.2006 -0.5095 -0.7344
   6723SM   H7T 8673   4.916   2.132  16.467 -0.2647  2.0578  0.6852
   6723SM   C8S 8674   4.825   2.166  16.277  0.6425 -0.4217  0.1608
   6723SM   H8S 8675   4.859   2.269  16.254  0.4958 -0.2333  0.7777
   6723SM   H8T 8676   4.727   2.165  16.225  1.5945  1.4355 -1.8127
   6723SM   C9S 8677   4.907   2.067  16.199  0.7831 -0.8852 -1.1253
   6723SM   H9S 8678   4.863   1.965  16.198 -0.0218 -0.5484 -1.8101
   6723SM   H9T 8679   5.004   2.065  16.252  1.8028  0.5561 -2.8191
   6723SM  C10S 8680   4.914   2.104  16.051 -0.9729 -0.3214 -0.2049
   6723SM  H10S 8681   4.969   2.201  16.052 -0.8434 -0.3826 -0.9648
   6723SM  H10T 8682   4.815   2.113  16.003 -1.4558  0.8758  0.9575
   6723SM  C11S 8683   4.997   2.006  15.972 -0.1908  0.6661 -0.4829
   6723SM  H11S 8684   4.927   1.923  15.947  1.5185 -0.3519 -2.2238
   6723SM  H11T 8685   5.075   1.951  16.030  0.4231  2.8772  0.8983
   6723SM  C12S 8686   5.052   2.058  15.848 -0.1913 -0.5191  0.3950
   6723SM  H12S 8687   5.119   2.141  15.877  0.7782 -0.7139 -1.2053
   6723SM  H12T 8688   4.963   2.090  15.789  0.7923  1.4388 -0.1010
   6723SM  C13S 8689   5.131   1.955  15.760 -0.0902 -0.1226 -0.2392
   6723SM  H13S 8690   5.065   1.866  15.750 -0.1540 -0.2018  0.7731
   6723SM  H13T 8691   5.222   1.923  15.817 -0.0755 -2.4840 -1.4672
   6723SM  C14S 8692   5.170   2.010  15.628 -0.2304  0.3658  0.3062
   6723SM  H14S 8693   5.214   2.112  15.639 -1.0307  0.9476 -1.5424
   6723SM  H14T 8694   5.078   2.018  15.567  0.4796 -2.0442 -1.1761
   6723SM  C15S 8695   5.257   1.913  15.550 -0.1384 -0.2289  1.0481
   6723SM  H15S 8696   5.198   1.820  15.535 -0.1623 -0.4719  2.5049
   6723SM  H15T 8697   5.348   1.884  15.607  0.9354 -2.3193 -1.5229
   6723SM  C16S 8698   5.318   1.977  15.420  0.1353  0.3201 -0.1404
   6723SM  H16S 8699   5.231   1.995  15.353  0.7438  0.5267 -0.8800
   6723SM  H16T 8700   5.384   1.901  15.375 -1.0867 -0.3561 -0.8614
   6723SM  C17S 8701   5.407   2.094  15.449 -0.3989  0.0281 -0.4791
   6723SM  H17S 8702   5.494   2.059  15.509 -1.1956 -1.8082 -0.3182
   6723SM  H17T 8703   5.354   2.174  15.504 -1.2721  0.1993 -1.5329
   6723SM  C18S 8704   5.454   2.165  15.317 -0.6961  0.5685  0.1621
   6723SM  H18S 8705   5.370   2.181  15.245 -1.0568  0.7122  0.6122
   6723SM  H18T 8706   5.522   2.091  15.270 -1.3264 -0.2314  0.5023
   6723SM  H18U 8707   5.523   2.251  15.330  0.0210 -0.2336  1.9324
   6723SM   C1F 8708   4.648   1.733  16.828 -0.2499  1.0338 -0.1574
   6723SM    OF 8709   4.531   1.737  16.877 -0.0700  0.2623 -0.3152
   6723SM   C2F 8710   4.708   1.607  16.775  0.3728  0.4286 -0.4020
   6723SM   H2F 8711   4.684   1.522  16.843  0.7022 -1.7231 -2.8400
   6723SM   H2G 8712   4.819   1.604  16.773  0.3949 -0.7073  0.7659
   6723SM   C3F 8713   4.647   1.580  16.639  0.1703  0.3045  1.1219
   6723SM   H3F 8714   4.539   1.555  16.641 -0.2261  1.2195 -2.1009
   6723SM   H3G 8715   4.691   1.489  16.593 -1.4990  0.7197 -1.5470
   6723SM   C4F 8716   4.681   1.688  16.532 -0.3750  0.4488  0.5657
   6723SM   H4F 8717   4.787   1.723  16.532 -0.3716  0.4437  1.2083
   6723SM   H4G 8718   4.622   1.776  16.564 -0.8456 -0.3138  1.8354
   6723SM   C5F 8719   4.637   1.643  16.391  0.1625  0.5627 -0.8926
   6723SM   H5F 8720   4.526   1.643  16.387  0.1940  1.2924 -2.8251
   6723SM   H5G 8721   4.674   1.538  16.386  3.1335  1.2468  2.4493
   6723SM   C6F 8722   4.704   1.728  16.282  0.0887 -0.2173  0.3303
   6723SM   H6F 8723   4.815   1.726  16.278  0.0969  0.1920  0.2924
   6723SM   H6G 8724   4.680   1.833  16.308  4.6997  0.6028  2.1173
   6723SM   C7F 8725   4.651   1.677  16.143  0.2653  0.4217 -0.2472
   6723SM   H7F 8726   4.670   1.753  16.064 -2.5667  0.5129 -0.9349
   6723SM   H7G 8727   4.540   1.682  16.143  0.0356 -2.6226 -1.1344
   6723SM   C8F 8728   4.682   1.531  16.119 -0.4199 -0.2830  0.1412
   6723SM   H8F 8729   4.651   1.468  16.206 -0.2442  0.5377  0.8162
   6723SM   H8G 8730   4.793   1.518  16.119 -0.3299  0.4475 -0.3891
   6723SM   C9F 8731   4.627   1.472  15.985 -0.2865 -0.5745 -0.6643
   6723SM   H9F 8732   4.524   1.438  16.010 -0.5227 -0.2009 -1.0984
   6723SM   H9G 8733   4.692   1.388  15.954  0.9702 -0.2135  0.8590
   6723SM  C10F 8734   4.610   1.554  15.859 -0.4375 -0.3131  0.0526
   6723SM  H10F 8735   4.549   1.645  15.881  0.3792  0.2505  0.0075
   6723SM  H10G 8736   4.545   1.497  15.788 -0.6206 -1.5434  1.1755
   6723SM  C11F 8737   4.743   1.607  15.795  0.7718 -0.4248  0.1006
   6723SM  H11F 8738   4.817   1.527  15.818  0.1038 -1.0491  0.0931
   6723SM  H11G 8739   4.774   1.700  15.849 -0.2073  2.5364 -3.9461
   6723SM  C12F 8740   4.736   1.645  15.647  1.3775  0.1286 -0.5273
   6723SM  H12F 8741   4.639   1.700  15.640  0.7601 -1.0265 -1.5286
   6723SM  H12G 8742   4.721   1.549  15.594  1.7889  1.5532 -3.4323
   6723SM  C13F 8743   4.837   1.736  15.581  0.5301  1.5198 -0.0107
   6723SM  H13F 8744   4.936   1.700  15.617  1.5382  4.7844  0.7900
   6723SM  H13G 8745   4.834   1.842  15.614  1.1096  1.8327 -0.9167
   6723SM  C14F 8746   4.846   1.720  15.428 -0.1883 -0.4943  0.2217
   6723SM  H14F 8747   4.850   1.609  15.416 -0.9376 -0.6722  1.4390
   6723SM  H14G 8748   4.939   1.766  15.388 -0.4258 -0.0057  0.2248
   6723SM  C15F 8749   4.721   1.766  15.355 -0.0769 -0.5343 -0.1056
   6723SM  H15F 8750   4.728   1.876  15.341 -1.4256 -0.4310 -0.0691
   6723SM  H15G 8751   4.626   1.748  15.408  0.1649  1.8778  1.2857
   6723SM  C16F 8752   4.711   1.695  15.215 -0.2843 -0.2918 -0.2566
   6723SM  H16F 8753   4.693   1.591  15.248 -0.1236 -0.2727 -0.1055
   6723SM  H16G 8754   4.810   1.705  15.164  1.3698  0.0087  2.7738
   6723SM  C17F 8755   4.606   1.750  15.129  0.7124  0.0801  0.0052
   6723SM  H17F 8756   4.625   1.705  15.029 -1.2948 -1.3125  0.2004
   6723SM  H17G 8757   4.613   1.859  15.110 -2.5884  0.2520 -0.7094
   6723SM  C18F 8758   4.473   1.693  15.168  0.7096  0.4623  0.2614
   6723SM  H18F 8759   4.430   1.745  15.256  2.3017 -1.3973  2.2802
   6723SM  H18G 8760   4.478   1.584  15.190  2.0952  0.6965  1.2579
   6723SM  C19F 8761   4.353   1.707  15.064 -0.6758  0.3209  1.0602
   6723SM  H19F 8762   4.341   1.811  15.029 -1.3560 -0.1250 -0.0816
   6723SM  H19G 8763   4.260   1.684  15.122 -0.7600 -0.6941  0.5403
   6723SM  C20F 8764   4.367   1.608  14.948  0.0188  0.2415 -0.5096
   6723SM  H20F 8765   4.405   1.507  14.976 -0.2814 -0.2857 -1.9136
   6723SM  H20G 8766   4.454   1.640  14.887  0.5795 -1.2720 -0.5571
   6723SM  C21F 8767   4.241   1.592  14.872  0.1151 -0.5699 -0.4511
   6723SM  H21F 8768   4.253   1.575  14.763  0.9253 -2.2845 -0.1247
   6723SM  H21G 8769   4.188   1.690  14.878 -1.3230 -1.3133 -0.6199
   6723SM  C22F 8770   4.163   1.473  14.917  0.2078  0.1459  0.5728
   6723SM  H22F 8771   4.164   1.460  15.027 -1.0673  0.3819  0.6256
   6723SM  H22G 8772   4.212   1.387  14.866 -0.3135 -0.9151  1.8160
   6723SM  C23F 8773   4.017   1.481  14.886 -0.0855  0.2009  0.4826
   6723SM  H23F 8774   3.959   1.482  14.981 -0.8310 -1.5553  0.0837
   6723SM  H23G 8775   3.982   1.404  14.815  0.9889  1.5523 -1.6067
   6723SM  H23H 8776   3.996   1.576  14.832 -1.5841 -1.3349 -1.7893
   6823SM     N 8777   4.413   2.679  17.422  0.0066  0.2062 -0.3186
   6823SM   C15 8778   4.440   2.675  17.573 -0.0448 -0.0822 -0.4900
   6823SM  H15A 8779   4.534   2.631  17.604 -1.2303 -1.2856  1.6720
   6823SM  H15B 8780   4.370   2.610  17.624 -0.3755 -0.2261 -1.1177
   6823SM  H15C 8781   4.436   2.776  17.612 -0.8091 -0.6781  1.0562
   6823SM   C14 8782   4.396   2.538  17.376  0.0137 -0.4473 -0.6096
   6823SM  H14A 8783   4.483   2.477  17.394 -1.9029 -3.2647 -0.1171
   6823SM  H14B 8784   4.374   2.542  17.270 -0.5569  0.6320 -0.4601
   6823SM  H14C 8785   4.313   2.503  17.436  2.0433 -0.9158  2.1570
   6823SM   C13 8786   4.279   2.751  17.407  0.8126  0.1564  0.2592
   6823SM  H13A 8787   4.276   2.786  17.305 -0.7975  0.9136  0.5401
   6823SM  H13B 8788   4.261   2.840  17.465 -3.7991  0.2498 -0.9301
   6823SM  H13C 8789   4.199   2.678  17.407 -0.4459  1.4061  2.6823
   6823SM   C12 8790   4.523   2.751  17.353 -0.5923 -0.2741  0.6179
   6823SM  H12A 8791   4.622   2.711  17.367 -0.0384  0.4017 -1.0378
   6823SM  H12B 8792   4.519   2.848  17.400  1.7334 -0.0915  0.5413
   6823SM   C11 8793   4.508   2.778  17.204 -0.5719 -0.2373 -0.0672
   6823SM  H11A 8794   4.471   2.683  17.160 -1.5154 -0.6053  1.4238
   6823SM  H11B 8795   4.607   2.796  17.157  0.9269 -1.2060  2.5010
   6823SM     P 8796   4.469   3.037  17.181  0.0568  0.3963 -0.3687
   6823SM   O13 8797   4.352   3.132  17.181  0.8713 -0.3673 -0.2682
   6823SM   O14 8798   4.556   3.051  17.302 -0.5265 -0.5994 -0.0770
   6823SM   O11 8799   4.555   3.057  17.055  0.3667  0.9604 -0.3340
   6823SM   O12 8800   4.417   2.882  17.171 -0.4445  0.2236  0.2392
   6823SM   C1S 8801   4.523   2.988  16.934  0.0120 -0.6437 -0.4225
   6823SM   H1S 8802   4.413   2.989  16.924 -0.0127 -0.1374 -0.1551
   6823SM   H1T 8803   4.556   2.882  16.933 -2.3885 -1.4467 -1.5875
   6823SM    NF 8804   4.533   2.986  16.694 -0.2484  0.1200  0.6109
   6823SM   HNF 8805   4.587   2.929  16.633 -2.8342 -3.3773  1.2915
   6823SM   C2S 8806   4.589   3.055  16.808  0.4778 -0.0350 -0.4363
   6823SM   H2S 8807   4.551   3.160  16.812 -4.0033 -1.4572  1.6394
   6823SM   C3S 8808   4.746   3.052  16.816  0.9076 -0.2082  0.7521
   6823SM   H3S 8809   4.773   2.944  16.807 -2.7540 -1.3945  1.9585
   6823SM    O3 8810   4.797   3.085  16.946  0.4174 -0.3124 -0.3150
   6823SM   HO3 8811   4.717   3.076  17.000  0.8345  1.1661  0.6111
   6823SM   C4S 8812   4.802   3.123  16.707 -0.3359 -0.0124  0.3346
   6823SM   H4S 8813   4.791   3.076  16.608  0.2091  2.1753 -0.8321
   6823SM   C5S 8814   4.841   3.253  16.708 -0.8307 -0.3297 -0.1317
   6823SM   H5S 8815   4.833   3.306  16.804 -2.6175 -0.7744  0.0052
   6823SM   C6S 8816   4.891   3.329  16.590  0.1139  0.1806  0.2770
   6823SM   H6S 8817   4.991   3.373  16.611  0.2287 -0.3478  0.8725
   6823SM   H6T 8818   4.817   3.411  16.580  2.2802  2.4919  1.8766
   6823SM   C7S 8819   4.908   3.253  16.455 -0.5813 -0.3044 -0.0426
   6823SM   H7S 8820   4.816   3.198  16.427 -0.0424 -1.8961  1.1426
   6823SM   H7T 8821   4.982   3.169  16.454 -2.8064 -2.4082  1.0814
   6823SM   C8S 8822   4.941   3.347  16.336  0.0406 -0.2336  0.2432
   6823SM   H8S 8823   5.036   3.401  16.358  1.7762 -2.2723 -1.7551
   6823SM   H8T 8824   4.872   3.434  16.329 -1.6812 -1.6343 -1.3439
   6823SM   C9S 8825   4.947   3.275  16.201  0.0104  0.6624 -0.1007
   6823SM   H9S 8826   4.852   3.218  16.192  0.2740  0.0465  0.7977
   6823SM   H9T 8827   5.036   3.209  16.197  0.3972  1.2389 -1.4618
   6823SM  C10S 8828   4.970   3.367  16.079 -0.6160 -0.9999  0.4442
   6823SM  H10S 8829   5.058   3.433  16.098  0.3403 -1.9164 -0.6547
   6823SM  H10T 8830   4.887   3.440  16.062 -0.0560 -0.7972 -1.7095
   6823SM  C11S 8831   4.983   3.277  15.957 -0.6585 -0.0426 -0.1456
   6823SM  H11S 8832   4.889   3.234  15.919 -0.5769  0.3151 -0.7710
   6823SM  H11T 8833   5.057   3.195  15.971 -2.1077 -1.1495  1.3778
   6823SM  C12S 8834   5.028   3.374  15.848 -0.2941  0.9924 -0.7667
   6823SM  H12S 8835   5.117   3.433  15.878  0.9584 -1.5053  0.7572
   6823SM  H12T 8836   4.943   3.444  15.838 -1.2306 -0.0308 -0.1314
   6823SM  C13S 8837   5.051   3.299  15.715 -0.0853  0.0096  0.5208
   6823SM  H13S 8838   4.955   3.278  15.662  0.9129 -1.2836 -0.8587
   6823SM  H13T 8839   5.118   3.214  15.736 -1.8051 -1.6516 -0.3635
   6823SM  C14S 8840   5.139   3.378  15.613 -0.3703 -0.4766 -0.4160
   6823SM  H14S 8841   5.173   3.304  15.538  0.5117 -0.2855 -0.2167
   6823SM  H14T 8842   5.227   3.412  15.672 -0.5727  0.0983 -0.4384
   6823SM  C15S 8843   5.063   3.498  15.554  0.3647  0.2172  0.1061
   6823SM  H15S 8844   5.014   3.554  15.637 -1.0646  0.6361 -0.9808
   6823SM  H15T 8845   4.977   3.456  15.497  0.7842  0.9558 -1.0956
   6823SM  C16S 8846   5.160   3.594  15.483 -0.3048 -0.3473  0.1553
   6823SM  H16S 8847   5.106   3.649  15.403  0.7773  0.6375  0.0676
   6823SM  H16T 8848   5.230   3.525  15.430  0.2352  1.4637 -1.6269
   6823SM  C17S 8849   5.228   3.701  15.571  0.1396  0.5173  0.4874
   6823SM  H17S 8850   5.252   3.657  15.670 -1.0385 -0.1147  0.5125
   6823SM  H17T 8851   5.152   3.779  15.591 -2.6225 -2.0244  0.6325
   6823SM  C18S 8852   5.342   3.778  15.503  1.3001 -0.5609  0.5377
   6823SM  H18S 8853   5.421   3.705  15.478  0.3773 -0.9512 -1.4259
   6823SM  H18T 8854   5.388   3.850  15.574 -1.6010  0.1185  1.9033
   6823SM  H18U 8855   5.311   3.830  15.410  0.4181  1.8132  2.0550
   6823SM   C1F 8856   4.405   3.006  16.656  0.6438 -0.1476 -0.5231
   6823SM    OF 8857   4.337   3.097  16.712  0.6271  0.0370  0.4921
   6823SM   C2F 8858   4.349   2.915  16.552 -0.1163  0.2503 -0.0895
   6823SM   H2F 8859   4.375   2.808  16.567 -2.1299 -0.4825 -1.4308
   6823SM   H2G 8860   4.403   2.941  16.458 -0.7500  2.5992  0.1225
   6823SM   C3F 8861   4.195   2.915  16.541  0.2039 -0.1850 -0.2632
   6823SM   H3F 8862   4.166   3.020  16.519 -0.4096 -0.1361  0.7188
   6823SM   H3G 8863   4.147   2.881  16.636  0.1838  0.6843  0.0508
   6823SM   C4F 8864   4.131   2.833  16.428 -0.0873  0.2846  0.5236
   6823SM   H4F 8865   4.022   2.854  16.417  0.3055  1.4221 -2.1153
   6823SM   H4G 8866   4.144   2.728  16.461  1.8868 -0.1722 -1.4205
   6823SM   C5F 8867   4.210   2.859  16.299 -0.2093 -0.4183 -0.3608
   6823SM   H5F 8868   4.311   2.815  16.289 -0.1083 -0.6956  1.4790
   6823SM   H5G 8869   4.242   2.965  16.302 -0.4036 -0.2512 -2.4399
   6823SM   C6F 8870   4.132   2.837  16.170  0.2934  0.2521 -0.1549
   6823SM   H6F 8871   4.021   2.837  16.176  0.2538 -2.0682  0.3417
   6823SM   H6G 8872   4.149   2.734  16.130  1.9718  0.7414 -0.7742
   6823SM   C7F 8873   4.181   2.938  16.056  0.4782 -0.1935 -0.4567
   6823SM   H7F 8874   4.284   2.908  16.025  0.8635  0.9930 -0.3952
   6823SM   H7G 8875   4.182   3.040  16.099  0.7133 -1.0591  1.6959
   6823SM   C8F 8876   4.100   2.932  15.930 -0.0006  0.3081 -0.2180
   6823SM   H8F 8877   3.996   2.970  15.936 -0.5609 -1.0433 -0.9659
   6823SM   H8G 8878   4.092   2.825  15.902  1.0369 -0.3166  1.6679
   6823SM   C9F 8879   4.172   3.007  15.814  0.0218  0.0787  0.3860
   6823SM   H9F 8880   4.268   2.952  15.799 -1.1446 -1.8399 -0.4797
   6823SM   H9G 8881   4.180   3.111  15.851  2.0163 -0.2075  0.8593
   6823SM  C10F 8882   4.096   2.988  15.681  0.4402 -0.0132 -0.9369
   6823SM  H10F 8883   3.989   3.012  15.701  0.4982 -0.9824  0.6517
   6823SM  H10G 8884   4.100   2.878  15.670  0.0400 -0.2460  0.8783
   6823SM  C11F 8885   4.138   3.067  15.564 -0.0077 -0.1661  0.6341
   6823SM  H11F 8886   4.248   3.062  15.552 -0.0166 -0.3128  0.6010
   6823SM  H11G 8887   4.104   3.171  15.579  0.0476  0.0420 -0.6041
   6823SM  C12F 8888   4.070   3.002  15.443  0.4541  0.2174 -0.3714
   6823SM  H12F 8889   3.962   3.027  15.431  0.2732 -0.6392 -0.5390
   6823SM  H12G 8890   4.084   2.893  15.452 -0.8982 -0.0120 -0.9059
   6823SM  C13F 8891   4.140   3.040  15.310  0.2071 -0.1191  0.4069
   6823SM  H13F 8892   4.099   2.978  15.227  1.0158 -0.0049 -0.0915
   6823SM  H13G 8893   4.251   3.039  15.301  0.0887  0.6950 -2.1536
   6823SM  C14F 8894   4.097   3.186  15.266 -0.3002  0.5237  0.3583
   6823SM  H14F 8895   4.129   3.263  15.340 -0.1154  0.4183  0.3905
   6823SM  H14G 8896   3.987   3.187  15.253 -0.2127  0.3004 -0.4601
   6823SM  C15F 8897   4.151   3.219  15.128  0.5204 -0.1121 -0.5081
   6823SM  H15F 8898   4.096   3.156  15.056  0.4048 -0.3967 -0.1746
   6823SM  H15G 8899   4.256   3.185  15.119  0.3590 -0.3832 -1.4123
   6823SM  C16F 8900   4.151   3.372  15.104 -0.1018 -0.1236 -0.5758
   6823SM  H16F 8901   4.197   3.404  15.008 -0.2016  0.3040 -0.4857
   6823SM  H16G 8902   4.227   3.412  15.175  0.8855  0.4595 -1.9175
   6823SM  C17F 8903   4.007   3.436  15.113 -0.1459 -0.2885  0.1613
   6823SM  H17F 8904   3.948   3.393  15.197  0.5793 -0.4524  0.5938
   6823SM  H17G 8905   3.952   3.404  15.022 -2.3924  0.6755  1.1107
   6823SM  C18F 8906   4.012   3.591  15.120 -0.1725  0.4207  0.1320
   6823SM  H18F 8907   4.049   3.621  15.020 -1.9246  1.9460 -0.1152
   6823SM  H18G 8908   4.083   3.620  15.201 -0.4518  1.1547  0.1237
   6823SM  C19F 8909   3.879   3.652  15.154  0.9826 -0.5392  0.8634
   6823SM  H19F 8910   3.860   3.627  15.260  1.3054 -5.5911 -0.0187
   6823SM  H19G 8911   3.809   3.592  15.091 -0.9622  1.9399  0.4909
   6823SM  C20F 8912   3.857   3.805  15.115 -0.0406 -0.3397  0.0573
   6823SM  H20F 8913   3.842   3.814  15.005  1.6602  1.4063 -0.0691
   6823SM  H20G 8914   3.939   3.871  15.149 -0.8497 -0.7636  3.1127
   6823SM  C21F 8915   3.729   3.853  15.181  0.4803 -0.0600 -0.6988
   6823SM  H21F 8916   3.753   3.844  15.289 -1.8808 -1.1527 -0.2091
   6823SM  H21G 8917   3.638   3.795  15.156 -1.2259  2.4849 -0.6774
   6823SM  C22F 8918   3.705   4.006  15.153  0.3349 -1.0277 -0.2950
   6823SM  H22F 8919   3.601   4.038  15.178  0.9161  0.4586  0.3087
   6823SM  H22G 8920   3.718   4.018  15.044 -0.3431 -1.9696 -0.4957
   6823SM  C23F 8921   3.812   4.094  15.223  0.1317 -0.0224 -0.3601
   6823SM  H23F 8922   3.848   4.181  15.163  1.6028  0.9364  1.8000
   6823SM  H23G 8923   3.891   4.019  15.244  0.0227  0.3342  1.5427
   6823SM  H23H 8924   3.769   4.143  15.313 -0.1899 -0.6974 -0.1453
   6923SM     N 8925   6.486   5.144  18.431 -0.1819 -0.6755 -0.3614
   6923SM   C15 8926   6.489   4.995  18.399 -0.3042  0.2023 -0.3116
   6923SM  H15A 8927   6.570   4.955  18.341  0.1513  0.0886  0.3850
   6923SM  H15B 8928   6.404   4.970  18.338  1.1153 -0.9031 -1.9063
   6923SM  H15C 8929   6.487   4.937  18.490 -2.1462  0.4847 -0.1354
   6923SM   C14 8930   6.623   5.189  18.478 -0.1130 -0.0891 -0.5146
   6923SM  H14A 8931   6.707   5.146  18.425  0.9153 -0.4829  1.3493
   6923SM  H14B 8932   6.625   5.173  18.585  3.0333 -1.6221 -0.6873
   6923SM  H14C 8933   6.634   5.296  18.474 -1.9692  0.2025  0.9926
   6923SM   C13 8934   6.458   5.215  18.303 -0.4542  0.9417  0.1465
   6923SM  H13A 8935   6.473   5.321  18.322  0.3569  1.2480 -2.0069
   6923SM  H13B 8936   6.355   5.201  18.272  0.0945 -0.1131 -1.2983
   6923SM  H13C 8937   6.525   5.192  18.222 -1.0945 -1.0045  0.1180
   6923SM   C12 8938   6.385   5.175  18.546  1.0483 -0.0681  0.3376
   6923SM  H12A 8939   6.381   5.281  18.566  1.3224  0.3018 -1.4044
   6923SM  H12B 8940   6.419   5.124  18.635  1.0108  0.6334  0.7610
   6923SM   C11 8941   6.234   5.127  18.507  0.4541 -0.0789 -0.6986
   6923SM  H11A 8942   6.184   5.113  18.606  0.5344  0.5150 -0.5679
   6923SM  H11B 8943   6.232   5.027  18.459 -0.1746 -0.6881  0.5395
   6923SM     P 8944   6.151   5.372  18.448 -0.1074 -0.1263 -0.1914
   6923SM   O13 8945   6.006   5.369  18.493 -0.7644  0.4224  0.2873
   6923SM   O14 8946   6.251   5.434  18.533 -0.6453  0.1183  0.0844
   6923SM   O11 8947   6.140   5.440  18.306  0.0501  0.2267 -0.1477
   6923SM   O12 8948   6.175   5.217  18.412 -0.6788  0.0177 -0.0528
   6923SM   C1S 8949   6.059   5.404  18.198  0.3059 -0.1939 -0.3189
   6923SM   H1S 8950   5.952   5.420  18.222 -0.1513 -2.0977 -0.8692
   6923SM   H1T 8951   6.072   5.297  18.169  2.2273  0.4339 -2.0018
   6923SM    NF 8952   5.983   5.492  17.988  0.0285 -0.3470 -0.5534
   6923SM   HNF 8953   5.968   5.414  17.927 -0.3587  0.4690 -1.5210
   6923SM   C2S 8954   6.096   5.482  18.072 -0.6657 -0.4627 -0.1083
   6923SM   H2S 8955   6.125   5.584  18.107  2.6739 -1.4438  0.2966
   6923SM   C3S 8956   6.225   5.423  18.004  0.5430 -0.4588  0.3056
   6923SM   H3S 8957   6.196   5.319  17.982 -0.7525 -0.6279  2.5092
   6923SM    O3 8958   6.336   5.416  18.094 -0.6582  0.2346  0.2875
   6923SM   HO3 8959   6.287   5.439  18.173 -1.1585 -1.1406  0.3966
   6923SM   C4S 8960   6.250   5.490  17.874 -0.3075 -0.3940  0.5500
   6923SM   H4S 8961   6.217   5.434  17.785 -0.9610  1.9108 -0.7535
   6923SM   C5S 8962   6.319   5.600  17.845  0.1075  0.0058 -0.2867
   6923SM   H5S 8963   6.360   5.655  17.930  1.3588  0.7189 -1.3061
   6923SM   C6S 8964   6.356   5.651  17.704 -0.0476  0.3915  0.3303
   6923SM   H6S 8965   6.448   5.596  17.674 -0.8699 -0.4802 -0.6926
   6923SM   H6T 8966   6.367   5.761  17.704 -0.6851  0.4718 -0.7442
   6923SM   C7S 8967   6.250   5.610  17.594  0.1988  0.1259  0.4245
   6923SM   H7S 8968   6.144   5.619  17.627 -0.0524  0.6608 -0.5059
   6923SM   H7T 8969   6.268   5.502  17.571 -2.6220 -0.6698  1.5451
   6923SM   C8S 8970   6.267   5.681  17.466 -0.0658  0.1644 -0.0434
   6923SM   H8S 8971   6.374   5.672  17.439  0.8815 -0.3809  3.4429
   6923SM   H8T 8972   6.245   5.790  17.475  0.0768  0.3137 -1.3442
   6923SM   C9S 8973   6.169   5.628  17.358  0.8157  0.2634 -0.0359
   6923SM   H9S 8974   6.067   5.665  17.381  0.5993  0.4675 -1.2334
   6923SM   H9T 8975   6.180   5.518  17.369  0.0432  0.2964  1.2586
   6923SM  C10S 8976   6.195   5.675  17.212  0.3786 -0.5646  0.7374
   6923SM  H10S 8977   6.132   5.607  17.152 -0.2156  0.0358  0.6718
   6923SM  H10T 8978   6.300   5.655  17.182 -1.0942 -3.7162 -3.1804
   6923SM  C11S 8979   6.163   5.821  17.168  0.1620 -0.0570 -0.1167
   6923SM  H11S 8980   6.244   5.883  17.213 -1.6671 -0.7301  4.6508
   6923SM  H11T 8981   6.064   5.860  17.201 -0.3362 -0.7012 -0.8104
   6923SM  C12S 8982   6.175   5.839  17.016  0.1742  0.1718  0.4677
   6923SM  H12S 8983   6.094   5.788  16.959  0.5384  0.8912 -0.7436
   6923SM  H12T 8984   6.278   5.812  16.983  0.1561  0.1530  0.4266
   6923SM  C13S 8985   6.170   5.989  16.971 -0.7481  0.2207  0.4075
   6923SM  H13S 8986   6.234   6.049  17.040  1.6170  0.6741 -1.9937
   6923SM  H13T 8987   6.072   6.037  16.990 -1.7421 -2.1440  1.6331
   6923SM  C14S 8988   6.208   6.014  16.821 -0.7313  0.2851 -0.5240
   6923SM  H14S 8989   6.297   5.955  16.791 -0.9412  0.1156 -0.8207
   6923SM  H14T 8990   6.231   6.122  16.808  0.0320  0.1947  0.0098
   6923SM  C15S 8991   6.107   5.970  16.725  0.0694 -0.3953  0.2642
   6923SM  H15S 8992   6.011   6.019  16.753  1.3820  1.7477  1.2603
   6923SM  H15T 8993   6.099   5.859  16.724  0.4278 -0.4327 -1.6986
   6923SM  C16S 8994   6.138   6.029  16.584  0.1935  0.0051 -0.1283
   6923SM  H16S 8995   6.245   6.021  16.555  0.5863  4.3865 -0.6347
   6923SM  H16T 8996   6.118   6.139  16.582  0.6115  0.1719  2.3426
   6923SM  C17S 8997   6.055   5.959  16.474 -0.4819 -0.2839  0.5249
   6923SM  H17S 8998   5.946   5.955  16.495  0.1808 -1.8892  4.4384
   6923SM  H17T 8999   6.099   5.859  16.490  1.6925  0.6701  0.9267
   6923SM  C18S 9000   6.089   6.013  16.334 -0.0741 -0.6979  0.4345
   6923SM  H18S 9001   6.063   5.940  16.255 -3.8095  1.5008 -0.5918
   6923SM  H18T 9002   6.198   6.039  16.329 -0.4030  1.4908  2.4060
   6923SM  H18U 9003   6.030   6.106  16.322 -0.3996 -1.0716 -1.0233
   6923SM   C1F 9004   5.883   5.578  17.999 -0.9063  0.7097  0.2073
   6923SM    OF 9005   5.880   5.648  18.104  0.1673  0.2384  0.4007
   6923SM   C2F 9006   5.782   5.580  17.894  0.3047 -0.1399  0.5203
   6923SM   H2F 9007   5.703   5.648  17.932  0.9427  0.6419  0.4645
   6923SM   H2G 9008   5.724   5.485  17.898 -2.3058  1.3355 -0.3170
   6923SM   C3F 9009   5.844   5.619  17.757 -0.3868  0.1719  0.9265
   6923SM   H3F 9010   5.908   5.532  17.730 -2.5014 -1.8070  1.8509
   6923SM   H3G 9011   5.900   5.714  17.771 -0.2693  0.0916  1.0077
   6923SM   C4F 9012   5.731   5.635  17.642 -0.1074  0.6773  0.8678
   6923SM   H4F 9013   5.663   5.720  17.663 -0.2724  0.9257 -0.5735
   6923SM   H4G 9014   5.665   5.545  17.638 -0.7800  1.1937 -2.4505
   6923SM   C5F 9015   5.797   5.650  17.501  0.5215  0.1239 -0.2595
   6923SM   H5F 9016   5.847   5.558  17.464 -0.6918 -0.6780  0.0276
   6923SM   H5G 9017   5.875   5.729  17.507  0.7189 -0.1025  0.2136
   6923SM   C6F 9018   5.692   5.697  17.393 -0.0468  0.1810 -0.0177
   6923SM   H6F 9019   5.629   5.785  17.419 -0.4172  0.3930 -1.5040
   6923SM   H6G 9020   5.623   5.611  17.381  1.4494 -0.8811 -1.3776
   6923SM   C7F 9021   5.762   5.729  17.266  0.1148  0.2063  0.3715
   6923SM   H7F 9022   5.845   5.664  17.229  0.1823  0.9287 -0.7917
   6923SM   H7G 9023   5.811   5.826  17.287  0.2096  0.3314 -0.4003
   6923SM   C8F 9024   5.664   5.766  17.145 -0.4483 -0.1854  0.2988
   6923SM   H8F 9025   5.585   5.840  17.169 -0.5044  0.0036 -0.4307
   6923SM   H8G 9026   5.599   5.681  17.115  0.7865 -1.0105 -0.1595
   6923SM   C9F 9027   5.735   5.814  17.023 -0.6875 -0.1790 -1.1182
   6923SM   H9F 9028   5.820   5.744  17.010  0.4820  0.7043  1.2612
   6923SM   H9G 9029   5.801   5.902  17.043 -1.4541  0.5196 -1.5890
   6923SM  C10F 9030   5.640   5.838  16.909  0.4169  0.0378  0.6568
   6923SM  H10F 9031   5.571   5.924  16.920  2.0982  1.3092  1.9063
   6923SM  H10G 9032   5.579   5.746  16.895  0.1778  0.4832 -1.5983
   6923SM  C11F 9033   5.710   5.854  16.771 -0.4422  0.0785  0.6727
   6923SM  H11F 9034   5.787   5.774  16.762  0.4210  0.7874  1.4589
   6923SM  H11G 9035   5.774   5.945  16.774 -0.7367  0.2757  2.5212
   6923SM  C12F 9036   5.610   5.857  16.651  0.0315 -0.3352 -0.0350
   6923SM  H12F 9037   5.565   5.955  16.627 -1.1114 -0.9607 -0.5742
   6923SM  H12G 9038   5.527   5.787  16.672 -0.8687  0.9620  0.8458
   6923SM  C13F 9039   5.682   5.814  16.523 -0.0356 -0.1898 -0.2468
   6923SM  H13F 9040   5.704   5.707  16.544  0.3149 -0.1141 -0.2318
   6923SM  H13G 9041   5.774   5.874  16.508  0.0363 -0.0980  0.5109
   6923SM  C14F 9042   5.591   5.816  16.397 -0.1940  0.3529 -0.5016
   6923SM  H14F 9043   5.520   5.901  16.404  0.8657  1.2466 -0.3185
   6923SM  H14G 9044   5.528   5.725  16.401 -2.3266  1.7992  0.7156
   6923SM  C15F 9045   5.667   5.834  16.267 -0.1347 -0.0916 -0.3964
   6923SM  H15F 9046   5.709   5.741  16.225 -0.6945  0.0258 -1.2223
   6923SM  H15G 9047   5.754   5.903  16.276 -0.4276  0.3803 -1.0863
   6923SM  C16F 9048   5.572   5.876  16.157 -0.6139  0.2149  0.6023
   6923SM  H16F 9049   5.515   5.968  16.182  2.8415  1.9593  2.8171
   6923SM  H16G 9050   5.511   5.784  16.148  2.2046 -1.6692 -0.6994
   6923SM  C17F 9051   5.656   5.921  16.030  0.3815 -0.5860  0.3661
   6923SM  H17F 9052   5.711   5.832  15.993  0.0212 -0.8206  0.3927
   6923SM  H17G 9053   5.740   5.988  16.060  0.0779  0.4062 -0.8928
   6923SM  C18F 9054   5.580   5.989  15.916  0.7745  0.5506 -0.6954
   6923SM  H18F 9055   5.564   6.094  15.948 -0.4571  0.0736  0.3704
   6923SM  H18G 9056   5.481   5.938  15.911  1.9903 -2.2360  1.1058
   6923SM  C19F 9057   5.653   5.988  15.778 -0.1122  0.2670  0.6729
   6923SM  H19F 9058   5.660   5.887  15.731  0.9775  1.2259 -1.3570
   6923SM  H19G 9059   5.757   6.018  15.805 -0.8549  2.9252  0.8818
   6923SM  C20F 9060   5.585   6.084  15.686  0.6246 -0.2837  1.1363
   6923SM  H20F 9061   5.625   6.102  15.584 -1.2141  0.9017  0.5691
   6923SM  H20G 9062   5.574   6.187  15.727 -2.1737 -0.1661  0.2892
   6923SM  C21F 9063   5.441   6.035  15.648 -0.5078 -0.6199  0.6563
   6923SM  H21F 9064   5.375   6.056  15.734 -0.2300 -1.2769  1.0393
   6923SM  H21G 9065   5.443   5.929  15.615  2.1078  0.1925 -2.2670
   6923SM  C22F 9066   5.380   6.136  15.547 -0.5584 -0.5586 -0.2379
   6923SM  H22F 9067   5.444   6.130  15.457  2.6447  0.4669  1.7884
   6923SM  H22G 9068   5.385   6.244  15.574 -0.3166 -0.7604  0.5836
   6923SM  C23F 9069   5.235   6.098  15.518 -0.0372 -0.1902  0.3605
   6923SM  H23F 9070   5.167   6.144  15.592  2.0224  1.2026  1.4847
   6923SM  H23G 9071   5.214   5.990  15.501 -0.1735  0.0207 -0.9363
   6923SM  H23H 9072   5.222   6.142  15.417  1.1207 -1.9565 -0.6124
   7023SM     N 9073   4.354   4.474  18.158  0.1510  0.5527  0.2921
   7023SM   C15 9074   4.229   4.412  18.198 -0.5512  0.1106  0.2472
   7023SM  H15A 9075   4.229   4.304  18.208  1.2645  0.1549  1.0192
   7023SM  H15B 9076   4.149   4.432  18.128  0.7428 -0.3960 -1.4128
   7023SM  H15C 9077   4.197   4.450  18.294  0.9330 -0.6580  1.0791
   7023SM   C14 9078   4.335   4.624  18.153  0.2075  0.2292  0.1079
   7023SM  H14A 9079   4.311   4.664  18.250 -0.3687  1.4568 -0.5140
   7023SM  H14B 9080   4.251   4.639  18.086 -0.1987 -1.5000  0.1963
   7023SM  H14C 9081   4.418   4.677  18.108 -0.3347  0.5655 -0.5231
   7023SM   C13 9082   4.462   4.443  18.264 -0.5652 -0.7720  0.0047
   7023SM  H13A 9083   4.561   4.478  18.237  0.1811 -1.5562  1.6388
   7023SM  H13B 9084   4.464   4.336  18.278 -1.5918 -0.5387  2.2733
   7023SM  H13C 9085   4.431   4.493  18.355 -1.9569 -0.3022 -0.6831
   7023SM   C12 9086   4.407   4.416  18.031 -0.5482  0.2562 -0.1521
   7023SM  H12A 9087   4.423   4.310  18.046  1.5839  0.6714  0.8848
   7023SM  H12B 9088   4.507   4.454  18.017 -0.0856  0.0060  2.0785
   7023SM   C11 9089   4.326   4.443  17.902 -0.0057 -0.6096  0.1700
   7023SM  H11A 9090   4.389   4.398  17.822  0.8886  1.1880 -0.1821
   7023SM  H11B 9091   4.327   4.552  17.879 -1.4410 -0.6393 -0.0779
   7023SM     P 9092   4.167   4.239  17.843  0.2039  0.0923  0.1714
   7023SM   O13 9093   4.248   4.139  17.919  0.9475  0.3505  0.5515
   7023SM   O14 9094   4.023   4.212  17.831  0.5300  0.9466  0.1834
   7023SM   O11 9095   4.235   4.254  17.699  0.0342  0.1582  0.3903
   7023SM   O12 9096   4.189   4.383  17.902  0.5894 -0.1552 -0.4821
   7023SM   C1S 9097   4.197   4.345  17.604 -0.2064  0.1957  1.2488
   7023SM   H1S 9098   4.269   4.430  17.601 -0.1575  0.1430 -0.8798
   7023SM   H1T 9099   4.094   4.383  17.625 -0.2330  2.1695 -1.8177
   7023SM    NF 9100   4.172   4.363  17.352  0.6060  0.5548 -0.4089
   7023SM   HNF 9101   4.080   4.352  17.315  1.1015  0.4209 -1.6290
   7023SM   C2S 9102   4.202   4.275  17.464 -0.0207  0.9915  0.7654
   7023SM   H2S 9103   4.305   4.237  17.445 -0.4280 -0.2671  0.9683
   7023SM   C3S 9104   4.104   4.147  17.476  0.0106 -0.5337 -0.0583
   7023SM   H3S 9105   4.005   4.178  17.515  0.6101  0.0534  1.0276
   7023SM    O3 9106   4.141   4.045  17.567 -0.2690  0.2788  0.2762
   7023SM   HO3 9107   4.198   4.091  17.629 -0.7109 -1.2614  1.8974
   7023SM   C4S 9108   4.074   4.080  17.342 -0.5970 -0.5814  0.3932
   7023SM   H4S 9109   4.161   4.025  17.304 -0.6474 -0.2855 -0.1489
   7023SM   C5S 9110   3.961   4.073  17.274  0.2320  0.3833  0.4718
   7023SM   H5S 9111   3.876   4.125  17.322  0.1272 -1.0751  2.0060
   7023SM   C6S 9112   3.927   4.008  17.142 -0.3479 -0.0728 -0.2694
   7023SM   H6S 9113   3.853   3.926  17.154 -1.2528  0.9532  1.6460
   7023SM   H6T 9114   4.027   3.967  17.119 -0.9432 -0.3617 -2.6319
   7023SM   C7S 9115   3.890   4.101  17.024  0.2616  0.6498 -0.0570
   7023SM   H7S 9116   3.974   4.173  17.011 -0.1645  1.3084  0.7201
   7023SM   H7T 9117   3.806   4.162  17.063 -0.8671 -2.3363  2.7172
   7023SM   C8S 9118   3.859   4.036  16.892  0.4694 -0.2844 -0.1467
   7023SM   H8S 9119   3.772   3.967  16.900  0.7647 -0.6800 -0.3038
   7023SM   H8T 9120   3.944   3.970  16.865  1.9440  1.3447  0.3629
   7023SM   C9S 9121   3.832   4.144  16.777  0.2732 -0.9673  0.4496
   7023SM   H9S 9122   3.930   4.195  16.775 -0.5608  0.7023 -0.8758
   7023SM   H9T 9123   3.748   4.215  16.798  0.5408 -1.1182  2.1299
   7023SM  C10S 9124   3.793   4.071  16.644  0.6843  0.2347 -0.4450
   7023SM  H10S 9125   3.683   4.058  16.642  0.8772 -1.4280 -1.3127
   7023SM  H10T 9126   3.842   3.972  16.644  1.0645  0.3222  2.6189
   7023SM  C11S 9127   3.836   4.146  16.517  0.3371 -0.1337 -0.1292
   7023SM  H11S 9128   3.947   4.152  16.513  0.3446  1.1307  1.1940
   7023SM  H11T 9129   3.794   4.248  16.515 -0.2062 -0.3605 -0.3927
   7023SM  C12S 9130   3.811   4.068  16.388  0.1325 -0.4507  0.1620
   7023SM  H12S 9131   3.707   4.030  16.398 -0.2416  0.4551 -0.1931
   7023SM  H12T 9132   3.885   3.985  16.378  0.7645  0.2584 -1.4112
   7023SM  C13S 9133   3.824   4.159  16.264  0.3596  0.1054 -0.5065
   7023SM  H13S 9134   3.932   4.167  16.239  1.1997 -2.6405  1.6678
   7023SM  H13T 9135   3.785   4.261  16.281  1.8508  1.3023 -3.5976
   7023SM  C14S 9136   3.758   4.100  16.134 -0.0380 -0.0510 -0.5871
   7023SM  H14S 9137   3.647   4.099  16.142  0.0216  2.5735  2.3598
   7023SM  H14T 9138   3.790   3.994  16.140  1.8677  0.4483 -1.1375
   7023SM  C15S 9139   3.781   4.172  15.998 -0.0973 -0.3307  0.6522
   7023SM  H15S 9140   3.890   4.194  15.991  0.4025 -2.8517 -0.6734
   7023SM  H15T 9141   3.720   4.265  16.003 -1.4177 -1.2068  1.2535
   7023SM  C16S 9142   3.720   4.092  15.884 -0.2640  0.1507  0.1105
   7023SM  H16S 9143   3.617   4.059  15.912  0.6174 -2.7734  0.1519
   7023SM  H16T 9144   3.779   4.006  15.848  1.5509  1.5490 -0.3968
   7023SM  C17S 9145   3.703   4.178  15.751 -0.2582  0.2835  0.4861
   7023SM  H17S 9146   3.806   4.201  15.714  0.5552 -2.9445  0.4843
   7023SM  H17T 9147   3.668   4.280  15.779  0.3214  0.2680  1.3015
   7023SM  C18S 9148   3.619   4.119  15.638  0.1785 -0.2190 -0.0860
   7023SM  H18S 9149   3.613   4.179  15.544 -1.9186 -1.5749 -0.8947
   7023SM  H18T 9150   3.518   4.086  15.669  0.2892 -0.5051 -0.0286
   7023SM  H18U 9151   3.673   4.023  15.621 -0.4199 -0.7553  0.9694
   7023SM   C1F 9152   4.262   4.438  17.291  0.3649 -0.5040  0.0567
   7023SM    OF 9153   4.372   4.450  17.329  0.0571  0.1430  0.2004
   7023SM   C2F 9154   4.221   4.515  17.163  0.1918  0.0409 -0.3147
   7023SM   H2F 9155   4.157   4.603  17.190 -1.2161 -1.0751  0.1356
   7023SM   H2G 9156   4.166   4.447  17.095  1.4593 -3.6953  2.1140
   7023SM   C3F 9157   4.355   4.552  17.094 -0.1481 -0.3518 -0.5219
   7023SM   H3F 9158   4.411   4.468  17.049  1.3311 -0.7102  1.7954
   7023SM   H3G 9159   4.423   4.602  17.166  3.1454 -1.7830 -2.4677
   7023SM   C4F 9160   4.310   4.655  16.984 -0.3564 -0.2575  0.3115
   7023SM   H4F 9161   4.254   4.728  17.046  1.6917 -0.2818  2.3387
   7023SM   H4G 9162   4.241   4.600  16.917 -0.3344 -2.6961  2.1201
   7023SM   C5F 9163   4.410   4.732  16.895  0.0220 -0.4627 -0.0665
   7023SM   H5F 9164   4.459   4.817  16.948 -0.7595  1.2089 -1.8739
   7023SM   H5G 9165   4.345   4.783  16.821  0.6711  3.6808  1.9135
   7023SM   C6F 9166   4.512   4.644  16.824  0.6777 -0.0312  0.5318
   7023SM   H6F 9167   4.465   4.566  16.760  3.2738  0.6590 -2.5178
   7023SM   H6G 9168   4.567   4.584  16.899  0.2084 -0.5167  0.4964
   7023SM   C7F 9169   4.607   4.712  16.724  0.5544  0.2139 -0.4577
   7023SM   H7F 9170   4.679   4.640  16.678 -1.7267 -0.4889 -3.2343
   7023SM   H7G 9171   4.674   4.776  16.786  0.1190 -0.0673  0.3134
   7023SM   C8F 9172   4.535   4.784  16.613  0.3956  0.0149 -0.1524
   7023SM   H8F 9173   4.599   4.824  16.532  2.2555 -1.5464  0.4771
   7023SM   H8G 9174   4.481   4.875  16.648  1.1622 -0.2638  1.9256
   7023SM   C9F 9175   4.431   4.701  16.545  0.0115  0.6052  0.0928
   7023SM   H9F 9176   4.339   4.684  16.604 -0.9062  0.2625 -1.3763
   7023SM   H9G 9177   4.463   4.595  16.537  0.2261  0.8117 -2.4961
   7023SM  C10F 9178   4.373   4.757  16.407  0.0734  0.0149 -0.7815
   7023SM  H10F 9179   4.320   4.852  16.432  1.8645  1.0222 -0.6475
   7023SM  H10G 9180   4.309   4.675  16.366  0.6553 -0.8112 -0.0711
   7023SM  C11F 9181   4.474   4.792  16.298 -0.2670  0.2011 -0.3909
   7023SM  H11F 9182   4.523   4.695  16.275 -0.0395 -0.0884  1.1979
   7023SM  H11G 9183   4.556   4.858  16.334 -1.7926  1.1352  1.5729
   7023SM  C12F 9184   4.408   4.853  16.182  0.4449  0.5294  0.7026
   7023SM  H12F 9185   4.484   4.883  16.106 -2.1041  0.4125 -2.1022
   7023SM  H12G 9186   4.351   4.945  16.209 -1.1598 -1.1248  3.4027
   7023SM  C13F 9187   4.309   4.760  16.108  0.4329  0.4467  0.1092
   7023SM  H13F 9188   4.218   4.743  16.170 -0.3940  0.9120 -0.9331
   7023SM  H13G 9189   4.364   4.664  16.113 -1.2318 -0.5437  0.4567
   7023SM  C14F 9190   4.269   4.785  15.960  0.8049 -0.2343 -0.3772
   7023SM  H14F 9191   4.255   4.893  15.941  2.3241  0.2040  0.7422
   7023SM  H14G 9192   4.166   4.746  15.951 -0.6612  2.6767  2.0474
   7023SM  C15F 9193   4.356   4.716  15.854 -0.0463  0.5134  0.0475
   7023SM  H15F 9194   4.371   4.608  15.872  0.8795  1.0404  3.1744
   7023SM  H15G 9195   4.456   4.762  15.841  0.8302 -1.6403 -1.3743
   7023SM  C16F 9196   4.289   4.737  15.720  0.5248  0.1278 -0.3043
   7023SM  H16F 9197   4.268   4.844  15.697  0.3807 -0.1883 -1.7110
   7023SM  H16G 9198   4.195   4.678  15.713  0.4718  0.1093  0.5093
   7023SM  C17F 9199   4.384   4.694  15.608  0.4160 -0.0237  1.1783
   7023SM  H17F 9200   4.378   4.583  15.604 -2.3060  0.0928 -0.4529
   7023SM  H17G 9201   4.490   4.722  15.628 -0.0561  1.6624  1.4016
   7023SM  C18F 9202   4.339   4.750  15.472 -0.5155 -0.0260  0.7575
   7023SM  H18F 9203   4.333   4.860  15.486 -3.6680  0.2997 -1.9077
   7023SM  H18G 9204   4.234   4.724  15.450 -0.0057  0.2288 -2.4478
   7023SM  C19F 9205   4.426   4.708  15.356 -0.4056 -0.2447 -0.4770
   7023SM  H19F 9206   4.535   4.718  15.375 -0.5476 -1.6193  1.2475
   7023SM  H19G 9207   4.404   4.771  15.267  2.4582  0.4753 -0.7792
   7023SM  C20F 9208   4.400   4.559  15.320 -0.3009  0.2826  0.2537
   7023SM  H20F 9209   4.311   4.531  15.380 -0.5475  2.2138  0.8690
   7023SM  H20G 9210   4.483   4.491  15.348 -1.4102 -1.1812  0.1132
   7023SM  C21F 9211   4.369   4.528  15.173 -0.0599  0.0578  0.4260
   7023SM  H21F 9212   4.453   4.567  15.112  0.9330  0.2695  1.8906
   7023SM  H21G 9213   4.273   4.572  15.136  0.9978  1.0271 -1.3074
   7023SM  C22F 9214   4.360   4.376  15.156 -0.3544  0.5375  0.3912
   7023SM  H22F 9215   4.279   4.328  15.214 -2.4907  1.9066 -1.3025
   7023SM  H22G 9216   4.448   4.333  15.208 -0.3852  0.3002  0.2476
   7023SM  C23F 9217   4.353   4.329  15.012 -0.5408 -0.8143 -0.0151
   7023SM  H23F 9218   4.267   4.377  14.961 -0.9570 -0.0747  1.3288
   7023SM  H23G 9219   4.328   4.221  15.018 -1.5104 -0.5571  1.0905
   7023SM  H23H 9220   4.446   4.343  14.954 -0.5259 -1.4179 -0.1436
   7123SM     N 9221   5.466   2.324  18.062  0.4986 -0.5608  0.1714
   7123SM   C15 9222   5.407   2.204  18.125 -0.1324 -0.2499 -0.1609
   7123SM  H15A 9223   5.482   2.158  18.189  1.0870  1.7656 -0.0538
   7123SM  H15B 9224   5.369   2.130  18.056 -2.3502  0.3572  0.3264
   7123SM  H15C 9225   5.324   2.235  18.186  0.3213  0.5043  0.0836
   7123SM   C14 9226   5.368   2.408  17.985  0.3670  0.3957 -0.1584
   7123SM  H14A 9227   5.354   2.380  17.881 -1.0702  1.6849 -0.3437
   7123SM  H14B 9228   5.394   2.512  17.977  0.6834  0.4668  1.6039
   7123SM  H14C 9229   5.268   2.408  18.027  0.4901 -0.9611  0.1993
   7123SM   C13 9230   5.514   2.402  18.183  0.1345  0.1474 -0.0099
   7123SM  H13A 9231   5.577   2.338  18.243 -1.1099 -1.5702 -0.4724
   7123SM  H13B 9232   5.432   2.436  18.245  0.2808 -1.5461  1.1832
   7123SM  H13C 9233   5.571   2.492  18.165 -1.6797  1.2541 -0.4247
   7123SM   C12 9234   5.585   2.293  17.973 -0.5329  0.2342  0.4107
   7123SM  H12A 9235   5.559   2.218  17.900 -0.6551  0.9427 -0.2904
   7123SM  H12B 9236   5.654   2.239  18.037  0.9559 -0.6767 -1.8429
   7123SM   C11 9237   5.674   2.395  17.898 -0.0269  0.4080 -0.5679
   7123SM  H11A 9238   5.613   2.452  17.826  0.5882  1.6133 -0.1659
   7123SM  H11B 9239   5.741   2.330  17.838 -1.5886 -0.1796 -1.7161
   7123SM     P 9240   5.758   2.638  17.965  0.0634  0.1416  0.1528
   7123SM   O13 9241   5.622   2.690  17.933 -0.2688  0.0513  0.1319
   7123SM   O14 9242   5.824   2.698  18.084  0.4484 -0.0765  0.4127
   7123SM   O11 9243   5.850   2.649  17.836  0.4282  0.3344 -0.5343
   7123SM   O12 9244   5.747   2.475  17.995  0.7578 -0.4440 -0.1198
   7123SM   C1S 9245   5.970   2.574  17.820  0.2556 -0.2082 -0.9856
   7123SM   H1S 9246   5.937   2.468  17.821  0.8700 -0.4003 -0.1017
   7123SM   H1T 9247   6.042   2.592  17.902  3.2575 -0.7016 -3.3149
   7123SM    NF 9248   6.115   2.485  17.639 -0.1032 -0.2306  0.6911
   7123SM   HNF 9249   6.211   2.510  17.650 -0.3683  0.1858  2.2426
   7123SM   C2S 9250   6.026   2.597  17.677 -0.8694  0.1934  0.2988
   7123SM   H2S 9251   5.952   2.602  17.595 -1.2711  2.6533  0.7451
   7123SM   C3S 9252   6.105   2.722  17.676  0.0073  0.5078  0.2512
   7123SM   H3S 9253   6.193   2.683  17.730 -2.4566 -4.1993  1.4452
   7123SM    O3 9254   6.049   2.826  17.756 -0.1153  0.2269 -0.5421
   7123SM   HO3 9255   5.966   2.793  17.792  0.0086 -0.8470 -1.2084
   7123SM   C4S 9256   6.137   2.760  17.537  0.1054  0.0742  0.7157
   7123SM   H4S 9257   6.237   2.725  17.506  0.1508  0.6103  0.2473
   7123SM   C5S 9258   6.058   2.836  17.459  0.1544  0.2354 -0.8845
   7123SM   H5S 9259   5.953   2.857  17.482  0.6857  0.8827  1.2309
   7123SM   C6S 9260   6.097   2.858  17.315  0.3249 -0.3666 -0.3143
   7123SM   H6S 9261   6.205   2.864  17.289 -0.2481 -0.3589 -2.9721
   7123SM   H6T 9262   6.050   2.952  17.278 -1.3253 -1.5920 -1.4871
   7123SM   C7S 9263   6.034   2.761  17.219 -0.2031  0.2117 -0.0647
   7123SM   H7S 9264   5.923   2.767  17.226 -0.1783  1.7498 -0.7212
   7123SM   H7T 9265   6.070   2.660  17.246 -0.2906 -0.1072 -1.0904
   7123SM   C8S 9266   6.085   2.806  17.078  0.4035 -0.3078  0.3075
   7123SM   H8S 9267   6.195   2.792  17.074  0.6104  1.4306 -1.0503
   7123SM   H8T 9268   6.054   2.909  17.051  1.6710  0.8180  2.8895
   7123SM   C9S 9269   6.028   2.721  16.958 -0.4149 -0.1848  0.0615
   7123SM   H9S 9270   5.918   2.733  16.966 -0.3690  0.2047  0.1199
   7123SM   H9T 9271   6.065   2.616  16.968 -0.3780 -0.0254  1.8218
   7123SM  C10S 9272   6.080   2.767  16.815 -0.6567 -0.1633  0.0836
   7123SM  H10S 9273   6.191   2.766  16.824 -0.4075 -0.3893 -2.4669
   7123SM  H10T 9274   6.048   2.874  16.807  1.6736  0.5467 -0.6084
   7123SM  C11S 9275   6.031   2.692  16.700 -0.6263 -0.2485 -0.0106
   7123SM  H11S 9276   5.922   2.704  16.683 -1.0481  2.0044  3.4383
   7123SM  H11T 9277   6.064   2.588  16.724  1.7435  0.4385 -0.0116
   7123SM  C12S 9278   6.086   2.736  16.565  0.2648 -0.4968 -0.3736
   7123SM  H12S 9279   6.191   2.756  16.596 -0.3679  1.5068  0.6558
   7123SM  H12T 9280   6.034   2.827  16.531 -1.1825 -0.6318  1.3194
   7123SM  C13S 9281   6.075   2.632  16.454 -0.0488 -0.4862  0.3635
   7123SM  H13S 9282   5.971   2.600  16.430 -1.2067  1.1466  2.8493
   7123SM  H13T 9283   6.133   2.541  16.479  1.7729  0.4003 -0.4295
   7123SM  C14S 9284   6.142   2.680  16.322  0.7156 -0.0217 -0.2468
   7123SM  H14S 9285   6.252   2.686  16.332  0.6264  0.3444  0.6921
   7123SM  H14T 9286   6.100   2.776  16.286  1.5869  0.1135 -0.9068
   7123SM  C15S 9287   6.110   2.581  16.208 -0.0611  0.3087  0.3787
   7123SM  H15S 9288   6.002   2.555  16.212 -0.2141  1.0224  1.1934
   7123SM  H15T 9289   6.157   2.482  16.227 -1.2178 -0.5536 -0.9921
   7123SM  C16S 9290   6.145   2.630  16.069  0.0666  0.4348  0.2989
   7123SM  H16S 9291   6.250   2.669  16.063  0.3612 -0.5122 -1.1660
   7123SM  H16T 9292   6.081   2.718  16.046  1.5084  1.7839  1.1908
   7123SM  C17S 9293   6.131   2.523  15.957 -0.4668 -0.4690  0.2763
   7123SM  H17S 9294   6.021   2.514  15.945 -0.2718 -0.3389 -2.1767
   7123SM  H17T 9295   6.166   2.421  15.985 -1.5173 -0.1488  3.0614
   7123SM  C18S 9296   6.177   2.561  15.815 -0.1306 -0.8552  1.2681
   7123SM  H18S 9297   6.168   2.671  15.798 -1.4279 -1.2042 -0.6428
   7123SM  H18T 9298   6.106   2.514  15.744 -0.8239  0.5098  1.0220
   7123SM  H18U 9299   6.281   2.527  15.794 -0.3568  0.0443 -1.8550
   7123SM   C1F 9300   6.065   2.358  17.613  0.1661  0.3028 -0.0743
   7123SM    OF 9301   5.946   2.326  17.614  0.1998  0.3798  0.2415
   7123SM   C2F 9302   6.158   2.251  17.574 -0.9405 -0.6158 -0.6505
   7123SM   H2F 9303   6.116   2.157  17.616  1.4892 -0.7693  1.7301
   7123SM   H2G 9304   6.259   2.273  17.616 -0.8708  1.2727 -1.6977
   7123SM   C3F 9305   6.157   2.240  17.415 -0.1626 -0.3272  0.1498
   7123SM   H3F 9306   6.204   2.329  17.368  1.7778 -0.7136  1.2659
   7123SM   H3G 9307   6.050   2.242  17.384 -0.2991 -1.7148  0.4547
   7123SM   C4F 9308   6.231   2.112  17.384 -0.5219  0.7976 -0.4407
   7123SM   H4F 9309   6.175   2.029  17.433  0.1784 -0.5383 -1.8196
   7123SM   H4G 9310   6.335   2.114  17.422 -0.1011 -0.2257 -1.4808
   7123SM   C5F 9311   6.246   2.072  17.235 -0.4834  0.4526 -0.1380
   7123SM   H5F 9312   6.298   2.140  17.165 -0.4947 -1.4914 -2.1251
   7123SM   H5G 9313   6.145   2.062  17.190 -1.3177  0.6749  1.5720
   7123SM   C6F 9314   6.315   1.933  17.226  0.8897  0.6821  0.3942
   7123SM   H6F 9315   6.244   1.851  17.249  0.4583  0.6366 -1.0066
   7123SM   H6G 9316   6.381   1.930  17.316 -0.3471  1.5699  1.3579
   7123SM   C7F 9317   6.396   1.899  17.097 -0.3386 -0.0251  0.5611
   7123SM   H7F 9318   6.473   1.822  17.115 -0.5345  0.1284  2.2157
   7123SM   H7G 9319   6.451   1.994  17.081 -0.3126  0.1443  1.5805
   7123SM   C8F 9320   6.319   1.855  16.972 -0.2622 -0.1582 -0.3079
   7123SM   H8F 9321   6.243   1.935  16.956  1.9841  1.9757 -1.0510
   7123SM   H8G 9322   6.266   1.761  16.996  0.6748 -0.0816  2.3827
   7123SM   C9F 9323   6.413   1.847  16.854  1.2356 -0.0285  0.0136
   7123SM   H9F 9324   6.376   1.781  16.773 -0.5188 -0.0153  0.7499
   7123SM   H9G 9325   6.506   1.793  16.882  1.4498 -0.0258 -0.6844
   7123SM  C10F 9326   6.446   1.982  16.791 -0.7429  0.6972 -0.0744
   7123SM  H10F 9327   6.522   2.046  16.840  0.1976 -0.6903  0.3268
   7123SM  H10G 9328   6.355   2.044  16.781 -0.8319  0.6511  0.4640
   7123SM  C11F 9329   6.499   1.958  16.653  0.7029  0.1004 -0.0545
   7123SM  H11F 9330   6.578   1.880  16.646 -1.3396 -2.0398 -0.6357
   7123SM  H11G 9331   6.539   2.056  16.618 -0.8840  0.9089  0.2928
   7123SM  C12F 9332   6.405   1.916  16.541  0.1646  0.8534  0.2969
   7123SM  H12F 9333   6.317   1.983  16.533 -0.7227 -0.4141 -1.2100
   7123SM  H12G 9334   6.363   1.815  16.561  0.3802  0.7082  0.0147
   7123SM  C13F 9335   6.467   1.908  16.400 -0.3065 -0.0627  0.3238
   7123SM  H13F 9336   6.560   1.848  16.407  0.5938  0.9935 -1.6081
   7123SM  H13G 9337   6.496   2.010  16.370 -0.5551 -0.4309 -1.2763
   7123SM  C14F 9338   6.377   1.840  16.295 -0.3335  0.1164  0.4751
   7123SM  H14F 9339   6.277   1.886  16.296 -0.7112 -0.6862  1.0917
   7123SM  H14G 9340   6.369   1.735  16.330  2.6423 -0.4868 -0.2898
   7123SM  C15F 9341   6.435   1.826  16.151  0.5620  0.1431 -0.2909
   7123SM  H15F 9342   6.521   1.758  16.162 -0.2500 -0.8645 -0.0203
   7123SM  H15G 9343   6.453   1.927  16.108  1.1273 -0.8033 -2.4251
   7123SM  C16F 9344   6.333   1.763  16.051 -0.3680  0.2311  0.1180
   7123SM  H16F 9345   6.259   1.844  16.036  0.8580  1.2929 -0.3946
   7123SM  H16G 9346   6.299   1.671  16.103 -0.5239  1.4411  2.2492
   7123SM  C17F 9347   6.395   1.724  15.910  0.5090 -0.0634 -0.6595
   7123SM  H17F 9348   6.451   1.810  15.868  1.2010  0.3998  1.1166
   7123SM  H17G 9349   6.323   1.696  15.830  0.5795 -0.1825 -0.6829
   7123SM  C18F 9350   6.486   1.598  15.927  0.3863 -0.0382 -0.2849
   7123SM  H18F 9351   6.426   1.522  15.981 -0.3435  0.6283 -0.1430
   7123SM  H18G 9352   6.581   1.623  15.979  0.6928 -0.7766 -0.4859
   7123SM  C19F 9353   6.518   1.543  15.788  0.2106 -0.0636 -0.0658
   7123SM  H19F 9354   6.579   1.620  15.736 -0.9502 -0.2932 -1.8661
   7123SM  H19G 9355   6.421   1.544  15.733  1.2626 -0.6339 -2.0630
   7123SM  C20F 9356   6.578   1.404  15.801 -0.5961 -0.1547 -0.1846
   7123SM  H20F 9357   6.506   1.338  15.853 -1.9953 -0.8621 -2.8734
   7123SM  H20G 9358   6.672   1.403  15.860 -0.0827 -0.7230 -0.9892
   7123SM  C21F 9359   6.599   1.339  15.663 -0.5973  0.1001 -0.1369
   7123SM  H21F 9360   6.497   1.324  15.620  0.1018  2.1814 -2.8173
   7123SM  H21G 9361   6.638   1.237  15.684 -0.7315  0.6287  3.0188
   7123SM  C22F 9362   6.689   1.423  15.578  0.6049  0.0428  0.6948
   7123SM  H22F 9363   6.780   1.446  15.637  1.0400  0.9719 -0.2940
   7123SM  H22G 9364   6.641   1.520  15.556 -0.1256 -0.7391 -1.4400
   7123SM  C23F 9365   6.728   1.355  15.445  0.0208 -0.5206  0.8671
   7123SM  H23F 9366   6.798   1.270  15.463 -0.9221 -1.5863 -0.3008
   7123SM  H23G 9367   6.773   1.434  15.382 -0.0862  0.5658  2.1196
   7123SM  H23H 9368   6.639   1.334  15.382  1.5800 -0.8679 -1.3435
   7223SM     N 9369   0.615   5.359  18.571  0.6113  0.5161  0.8457
   7223SM   C15 9370   0.667   5.320  18.704  0.3586 -0.2922 -0.9409
   7223SM  H15A 9371   0.622   5.386  18.778  3.0178  0.3204  0.2293
   7223SM  H15B 9372   0.774   5.323  18.711  0.3622 -0.5799 -0.8671
   7223SM  H15C 9373   0.635   5.219  18.726 -0.4578  0.3066  0.8138
   7223SM   C14 9374   0.474   5.389  18.570 -0.0262  0.5451 -0.0226
   7223SM  H14A 9375   0.438   5.471  18.631 -0.5867  0.5913 -0.4092
   7223SM  H14B 9376   0.424   5.303  18.610  0.0377 -0.0935 -1.2765
   7223SM  H14C 9377   0.443   5.400  18.468  1.9651 -1.5462 -0.9360
   7223SM   C13 9378   0.679   5.485  18.516  0.6147  0.7020 -0.1566
   7223SM  H13A 9379   0.649   5.570  18.576  3.2862  1.7006 -0.0961
   7223SM  H13B 9380   0.653   5.498  18.412 -1.3475  0.2115  0.2357
   7223SM  H13C 9381   0.786   5.472  18.515  0.5525 -0.3742  1.7236
   7223SM   C12 9382   0.639   5.240  18.474 -0.1941 -0.5041 -0.5914
   7223SM  H12A 9383   0.589   5.269  18.382  1.0221 -0.4671 -1.2741
   7223SM  H12B 9384   0.590   5.150  18.507  1.7006 -1.0229  1.0259
   7223SM   C11 9385   0.789   5.216  18.434 -0.6950  0.5547 -0.0797
   7223SM  H11A 9386   0.783   5.119  18.380 -0.2638  0.4190  0.1090
   7223SM  H11B 9387   0.851   5.201  18.525  0.7045 -0.4532 -1.1498
   7223SM     P 9388   0.940   5.292  18.242 -0.2491  0.9434  0.0391
   7223SM   O13 9389   1.056   5.385  18.257  0.6243  0.5662  0.0259
   7223SM   O14 9390   0.963   5.146  18.242 -0.0384  0.6805  0.1574
   7223SM   O11 9391   0.862   5.320  18.110  0.2178  0.4018  0.0966
   7223SM   O12 9392   0.842   5.323  18.351  0.1522  0.3303 -0.1565
   7223SM   C1S 9393   0.722   5.323  18.101  0.5377 -0.0464  0.0131
   7223SM   H1S 9394   0.677   5.417  18.139 -1.9374 -1.4130  0.6904
   7223SM   H1T 9395   0.680   5.230  18.146 -1.1984  0.5573 -0.2793
   7223SM    NF 9396   0.516   5.328  17.958  0.2587 -0.1009  0.2492
   7223SM   HNF 9397   0.459   5.246  17.959  0.6792 -0.3881  0.8652
   7223SM   C2S 9398   0.662   5.327  17.951  0.2232  0.0488 -0.0175
   7223SM   H2S 9399   0.702   5.422  17.908 -0.1488  0.7875  1.2184
   7223SM   C3S 9400   0.732   5.209  17.870  0.2854  0.4232 -0.4194
   7223SM   H3S 9401   0.707   5.111  17.917  0.7837  0.7030  0.4511
   7223SM    O3 9402   0.877   5.203  17.874 -0.1654 -0.6800  0.9596
   7223SM   HO3 9403   0.892   5.275  17.936  0.4931 -1.7304  2.0800
   7223SM   C4S 9404   0.669   5.198  17.733 -0.5604 -0.0432 -0.3053
   7223SM   H4S 9405   0.583   5.130  17.724 -0.7939  0.3332 -0.9313
   7223SM   C5S 9406   0.707   5.266  17.628  0.5750 -1.0816 -0.1455
   7223SM   H5S 9407   0.794   5.333  17.623  0.0106 -0.3543 -0.5277
   7223SM   C6S 9408   0.620   5.272  17.503 -0.4191 -0.0048 -0.4108
   7223SM   H6S 9409   0.549   5.358  17.500  0.5132  0.7596 -1.3513
   7223SM   H6T 9410   0.555   5.182  17.496 -0.3667 -0.1684  1.0529
   7223SM   C7S 9411   0.686   5.281  17.362  0.0544  0.4210  0.4945
   7223SM   H7S 9412   0.772   5.212  17.354  2.0746  2.9140 -0.8650
   7223SM   H7T 9413   0.732   5.380  17.345  2.0017 -0.8928 -2.7548
   7223SM   C8S 9414   0.585   5.257  17.246 -0.6894 -0.0103  0.0357
   7223SM   H8S 9415   0.501   5.328  17.260 -2.0157 -1.6016  0.4524
   7223SM   H8T 9416   0.555   5.151  17.261 -0.0776 -0.4996 -1.9305
   7223SM   C9S 9417   0.646   5.284  17.106  0.8381  0.4405 -0.4313
   7223SM   H9S 9418   0.738   5.223  17.092  0.7544  0.2783 -0.2834
   7223SM   H9T 9419   0.671   5.391  17.099  0.6291  0.8144  2.8375
   7223SM  C10S 9420   0.546   5.257  16.986  0.0274 -0.2177 -0.1659
   7223SM  H10S 9421   0.448   5.307  17.003  0.0847  0.2209 -1.0694
   7223SM  H10T 9422   0.532   5.147  16.987 -0.3433 -0.1776  1.2199
   7223SM  C11S 9423   0.597   5.299  16.855 -0.2479  0.0388  0.4728
   7223SM  H11S 9424   0.706   5.281  16.844 -0.3785 -1.2105  1.1001
   7223SM  H11T 9425   0.599   5.408  16.833  0.5194  0.0420  0.5352
   7223SM  C12S 9426   0.513   5.240  16.743 -0.9960 -0.0952 -0.0236
   7223SM  H12S 9427   0.406   5.253  16.770 -1.6953 -0.6248 -2.3534
   7223SM  H12T 9428   0.536   5.134  16.720 -0.3720  0.6507 -3.4791
   7223SM  C13S 9429   0.535   5.317  16.608  1.0491 -0.2646 -0.5021
   7223SM  H13S 9430   0.529   5.424  16.636 -1.5680 -1.1147  2.8213
   7223SM  H13T 9431   0.448   5.283  16.548  0.6164 -0.5488  0.2766
   7223SM  C14S 9432   0.662   5.287  16.526 -0.0399 -0.0679 -0.4279
   7223SM  H14S 9433   0.683   5.178  16.521 -1.9668 -0.6707  2.1734
   7223SM  H14T 9434   0.738   5.325  16.598  0.3986 -0.1820 -0.8296
   7223SM  C15S 9435   0.635   5.349  16.390  0.1476 -0.0641  0.2288
   7223SM  H15S 9436   0.738   5.369  16.351  0.5106 -3.6044 -1.0763
   7223SM  H15T 9437   0.595   5.451  16.405 -0.3499 -0.3251  0.6816
   7223SM  C16S 9438   0.562   5.258  16.293 -0.3825  0.2356  0.3982
   7223SM  H16S 9439   0.462   5.237  16.338  0.0128  0.1687  1.2655
   7223SM  H16T 9440   0.619   5.163  16.292 -0.0539  0.3441  2.5267
   7223SM  C17S 9441   0.531   5.309  16.165 -0.2494  0.4095  0.4324
   7223SM  H17S 9442   0.479   5.407  16.170 -0.8297  0.1922 -0.9052
   7223SM  H17T 9443   0.463   5.241  16.109  1.7200 -1.4161  0.0851
   7223SM  C18S 9444   0.651   5.324  16.071 -0.1334 -0.8492 -0.5650
   7223SM  H18S 9445   0.739   5.381  16.109  0.3800 -0.9751 -1.5143
   7223SM  H18T 9446   0.608   5.366  15.978  0.1884 -1.7340 -1.1270
   7223SM  H18U 9447   0.704   5.228  16.051 -0.0222 -0.4673 -2.2851
   7223SM   C1F 9448   0.467   5.454  17.964  0.0833 -0.2030 -0.5952
   7223SM    OF 9449   0.539   5.553  17.956  0.2364 -0.4224 -0.2153
   7223SM   C2F 9450   0.318   5.467  17.969  1.1752  0.2145 -0.8994
   7223SM   H2F 9451   0.279   5.515  18.062  0.1458 -1.0770 -0.6367
   7223SM   H2G 9452   0.271   5.366  17.971 -0.4998  0.8900  2.7332
   7223SM   C3F 9453   0.262   5.548  17.846 -0.0767 -0.0980 -0.0883
   7223SM   H3F 9454   0.311   5.647  17.833 -2.3807  1.0054 -0.8286
   7223SM   H3G 9455   0.154   5.573  17.855 -0.2449 -0.1979 -1.6137
   7223SM   C4F 9456   0.284   5.470  17.715 -0.3075  0.1387  0.3155
   7223SM   H4F 9457   0.244   5.367  17.731  3.2066 -1.4586 -0.2469
   7223SM   H4G 9458   0.390   5.455  17.687  0.5003  1.0734  2.6661
   7223SM   C5F 9459   0.203   5.525  17.594  0.0323  0.6982  0.3644
   7223SM   H5F 9460   0.248   5.615  17.548 -0.7808  0.3857 -1.0747
   7223SM   H5G 9461   0.097   5.544  17.619 -0.3481  1.6555 -1.7848
   7223SM   C6F 9462   0.210   5.423  17.470 -0.2563 -0.3793  0.4512
   7223SM   H6F 9463   0.173   5.328  17.514 -1.3464 -0.5987 -0.8784
   7223SM   H6G 9464   0.316   5.408  17.438 -0.2803  0.1557  0.1051
   7223SM   C7F 9465   0.130   5.470  17.353  0.3225 -0.3617  1.1229
   7223SM   H7F 9466   0.145   5.577  17.327  0.7599 -0.7471 -0.3272
   7223SM   H7G 9467   0.021   5.461  17.374 -0.0359  2.4909  0.9073
   7223SM   C8F 9468   0.170   5.397  17.228 -0.0262 -0.1148  0.4882
   7223SM   H8F 9469   0.145   5.290  17.243  0.0476 -0.0082  1.4235
   7223SM   H8G 9470   0.280   5.403  17.215  0.2328 -0.5202  2.2477
   7223SM   C9F 9471   0.102   5.439  17.097  0.3745 -0.4055 -0.0298
   7223SM   H9F 9472   0.130   5.546  17.087 -2.8177  0.6979  1.3750
   7223SM   H9G 9473  -0.007   5.438  17.118  0.2782  0.0074 -0.4866
   7223SM  C10F 9474   0.124   5.362  16.968  0.4018  0.3070 -0.5914
   7223SM  H10F 9475   0.062   5.269  16.971  0.6307  0.1680 -0.1676
   7223SM  H10G 9476   0.230   5.329  16.974  0.4166  0.3679 -0.5259
   7223SM  C11F 9477   0.093   5.433  16.842  0.3032 -0.2931  0.5845
   7223SM  H11F 9478   0.163   5.518  16.824 -0.2832  0.1728  0.4907
   7223SM  H11G 9479  -0.012   5.467  16.848  0.9066  2.6583 -2.3970
   7223SM  C12F 9480   0.119   5.342  16.720 -0.1523 -0.7846  0.4826
   7223SM  H12F 9481   0.072   5.242  16.726 -0.3591 -0.8004 -1.0319
   7223SM  H12G 9482   0.227   5.318  16.721  0.0048 -0.7428 -2.8675
   7223SM  C13F 9483   0.083   5.392  16.570 -0.8725  0.0190 -0.3336
   7223SM  H13F 9484  -0.027   5.402  16.554 -0.6297  0.7147 -1.6889
   7223SM  H13G 9485   0.124   5.316  16.500 -1.0443 -0.5222  0.1428
   7223SM  C14F 9486   0.151   5.528  16.539  0.0023 -0.1176 -0.3140
   7223SM  H14F 9487   0.260   5.530  16.560 -0.1693 -1.9581  1.0771
   7223SM  H14G 9488   0.103   5.593  16.615 -0.5801  0.4439 -1.1530
   7223SM  C15F 9489   0.118   5.580  16.401 -0.3934 -0.6928  0.9536
   7223SM  H15F 9490   0.134   5.690  16.399  0.6117 -0.8290  0.2388
   7223SM  H15G 9491   0.009   5.577  16.383 -0.7017  3.5839  1.0999
   7223SM  C16F 9492   0.186   5.508  16.284 -0.0437  0.3140  0.3326
   7223SM  H16F 9493   0.125   5.420  16.257 -0.0133  0.9224 -1.9967
   7223SM  H16G 9494   0.291   5.474  16.299 -0.8243 -1.9490  0.9919
   7223SM  C17F 9495   0.179   5.611  16.171  0.1820 -0.2536  0.1219
   7223SM  H17F 9496   0.241   5.701  16.190 -1.7190  1.0255  0.6334
   7223SM  H17G 9497   0.076   5.650  16.157  0.0953  0.3334  2.0486
   7223SM  C18F 9498   0.224   5.546  16.039  0.0471  0.2067  0.3123
   7223SM  H18F 9499   0.327   5.504  16.039  0.1340  0.4114 -0.4478
   7223SM  H18G 9500   0.232   5.627  15.963 -0.3709  0.8682  0.9612
   7223SM  C19F 9501   0.121   5.442  15.979  0.0594 -0.3813 -0.0006
   7223SM  H19F 9502   0.020   5.487  15.977  0.5817  0.9092  1.0754
   7223SM  H19G 9503   0.119   5.351  16.041 -0.2915 -0.4100 -0.0551
   7223SM  C20F 9504   0.168   5.389  15.838  0.1927  0.0037  0.1918
   7223SM  H20F 9505   0.091   5.316  15.803 -0.3333 -0.0722  1.4605
   7223SM  H20G 9506   0.262   5.330  15.841  0.9019  1.1694  1.4625
   7223SM  C21F 9507   0.173   5.495  15.732 -0.1114  0.0862 -0.1553
   7223SM  H21F 9508   0.268   5.553  15.738 -0.0732  0.3458 -2.4208
   7223SM  H21G 9509   0.096   5.571  15.756 -0.1805  0.8687 -2.5940
   7223SM  C22F 9510   0.163   5.442  15.587 -0.7596 -0.7905 -0.1588
   7223SM  H22F 9511   0.067   5.387  15.576 -0.1679 -1.7012 -0.9166
   7223SM  H22G 9512   0.243   5.364  15.579 -0.1943 -0.2464  0.0766
   7223SM  C23F 9513   0.190   5.545  15.479 -0.9555  0.1864 -0.1552
   7223SM  H23F 9514   0.102   5.611  15.467 -1.5259 -0.8817 -2.4115
   7223SM  H23G 9515   0.198   5.502  15.377  2.6531  1.9862 -0.8081
   7223SM  H23H 9516   0.281   5.604  15.505 -0.1494 -0.8468 -0.5321
   7323SM     N 9517   4.922   3.556  18.334  0.1936 -0.3890 -0.3916
   7323SM   C15 9518   5.067   3.600  18.345  0.4277 -0.0715  0.0306
   7323SM  H15A 9519   5.134   3.526  18.305  0.0492 -1.6100  2.1112
   7323SM  H15B 9520   5.092   3.621  18.448 -0.0438  1.6116 -0.1616
   7323SM  H15C 9521   5.081   3.695  18.295 -0.1468  1.0719  1.9416
   7323SM   C14 9522   4.904   3.424  18.405  0.2311 -0.0999 -0.2839
   7323SM  H14A 9523   4.796   3.414  18.403 -0.0270  2.2481 -0.3185
   7323SM  H14B 9524   4.938   3.433  18.507 -1.1969 -1.2936  0.3323
   7323SM  H14C 9525   4.962   3.350  18.351  2.3931  0.0746  1.6654
   7323SM   C13 9526   4.838   3.668  18.395  0.2382  0.2241 -0.7585
   7323SM  H13A 9527   4.858   3.755  18.334  2.5038 -0.5339 -1.1809
   7323SM  H13B 9528   4.870   3.680  18.498 -2.8850 -1.8095  0.5984
   7323SM  H13C 9529   4.736   3.636  18.378  0.4898 -0.6373 -0.7068
   7323SM   C12 9530   4.888   3.531  18.187  0.6193  0.5215  0.0325
   7323SM  H12A 9531   4.781   3.546  18.189  0.7346  1.4370 -0.1208
   7323SM  H12B 9532   4.904   3.427  18.164 -0.0386 -0.3682  3.0913
   7323SM   C11 9533   4.940   3.629  18.076  0.1068 -0.5412  0.2587
   7323SM  H11A 9534   4.906   3.600  17.974  3.6337 -0.9634 -0.9203
   7323SM  H11B 9535   5.050   3.616  18.078 -0.0897 -2.6616 -0.6774
   7323SM     P 9536   4.979   3.888  18.122  0.6947 -0.6057 -0.3876
   7323SM   O13 9537   4.891   4.006  18.150 -0.2904  0.0519  0.1382
   7323SM   O14 9538   5.091   3.879  18.214  0.0017  0.7367  0.2467
   7323SM   O11 9539   5.034   3.900  17.976 -0.3606 -0.4844  0.3252
   7323SM   O12 9540   4.891   3.757  18.119  0.2723 -0.6198  0.1800
   7323SM   C1S 9541   4.928   3.900  17.876 -0.3361  0.0205  0.2676
   7323SM   H1S 9542   4.887   4.002  17.890 -0.7567 -0.4028  2.5311
   7323SM   H1T 9543   4.850   3.826  17.902 -0.0214 -0.0951  0.8935
   7323SM    NF 9544   4.900   3.942  17.643 -0.0964 -0.2159 -0.8171
   7323SM   HNF 9545   4.849   3.879  17.585  1.5000 -1.6114 -0.7609
   7323SM   C2S 9546   4.984   3.873  17.737 -1.3796 -0.3887  0.6384
   7323SM   H2S 9547   5.085   3.919  17.724 -2.2987  1.2702 -1.0193
   7323SM   C3S 9548   4.995   3.721  17.712 -1.0449 -0.3167  0.0498
   7323SM   H3S 9549   4.895   3.679  17.735  0.0739 -2.2981  1.6405
   7323SM    O3 9550   5.096   3.659  17.794  0.2733  0.1415  1.0883
   7323SM   HO3 9551   5.141   3.730  17.842  0.4196  0.5142  0.4078
   7323SM   C4S 9552   5.042   3.699  17.573 -0.1651  0.2256  0.1497
   7323SM   H4S 9553   5.141   3.736  17.543 -1.1490  1.5182 -1.6748
   7323SM   C5S 9554   4.975   3.631  17.475  0.4365 -0.5063 -0.4566
   7323SM   H5S 9555   4.884   3.577  17.504  1.0513 -1.1486  0.3531
   7323SM   C6S 9556   5.033   3.600  17.347 -0.2607  0.1385  0.0362
   7323SM   H6S 9557   5.010   3.493  17.326 -0.3967 -0.5126  3.0147
   7323SM   H6T 9558   5.143   3.617  17.346 -0.1453 -0.5184  0.7068
   7323SM   C7S 9559   4.960   3.687  17.240 -0.7823  0.1913  0.7876
   7323SM   H7S 9560   4.975   3.793  17.269  4.1467 -0.1583  0.3859
   7323SM   H7T 9561   4.852   3.665  17.234 -0.8608  0.9818 -1.4031
   7323SM   C8S 9562   5.027   3.652  17.105 -0.1823  0.5790  0.0076
   7323SM   H8S 9563   4.999   3.547  17.086  1.7719 -0.2883  1.4979
   7323SM   H8T 9564   5.137   3.654  17.120 -0.3055  1.6058  0.9444
   7323SM   C9S 9565   4.992   3.742  16.988 -0.2167  0.4235 -0.6573
   7323SM   H9S 9566   5.030   3.845  17.009  0.8300  0.4082 -2.2795
   7323SM   H9T 9567   4.882   3.742  16.976 -0.1666 -0.3598 -1.1420
   7323SM  C10S 9568   5.068   3.692  16.865  0.1911  0.1598 -0.3013
   7323SM  H10S 9569   5.059   3.582  16.869 -1.3749  0.3048  1.6640
   7323SM  H10T 9570   5.176   3.717  16.868  0.1999  1.0799 -3.7030
   7323SM  C11S 9571   5.009   3.745  16.737 -0.1600 -0.1162 -0.1348
   7323SM  H11S 9572   5.010   3.856  16.745  0.4649 -0.2278  1.8859
   7323SM  H11T 9573   4.903   3.712  16.738 -0.2347  0.0619  1.5326
   7323SM  C12S 9574   5.084   3.690  16.617 -0.0797 -0.2685 -0.5839
   7323SM  H12S 9575   5.066   3.582  16.599 -0.1130 -0.1285 -1.4156
   7323SM  H12T 9576   5.193   3.701  16.635 -0.4517  1.1284  1.0981
   7323SM  C13S 9577   5.061   3.769  16.489  0.5195 -0.1253 -0.3703
   7323SM  H13S 9578   5.086   3.875  16.515  3.0146 -0.3538 -1.5036
   7323SM  H13T 9579   4.954   3.758  16.461  0.7100  0.7580 -1.5105
   7323SM  C14S 9580   5.153   3.721  16.377 -0.0072 -0.6132 -0.0249
   7323SM  H14S 9581   5.123   3.623  16.335  0.5408 -0.7655 -0.0746
   7323SM  H14T 9582   5.257   3.712  16.416  0.4464 -1.5442 -1.3808
   7323SM  C15S 9583   5.161   3.830  16.273  0.2345 -0.7092  0.3239
   7323SM  H15S 9584   5.157   3.930  16.321  3.3455 -0.6994  0.7706
   7323SM  H15T 9585   5.070   3.826  16.209  0.8792  0.1848 -0.6867
   7323SM  C16S 9586   5.272   3.818  16.166 -0.2201  0.1007 -0.7941
   7323SM  H16S 9587   5.233   3.733  16.105 -1.1988 -0.4251  0.5203
   7323SM  H16T 9588   5.369   3.797  16.216 -0.8367  2.0917  1.4025
   7323SM  C17S 9589   5.278   3.949  16.090  0.7390 -0.1852  0.2080
   7323SM  H17S 9590   5.314   4.030  16.156  0.8544  1.0456 -1.3155
   7323SM  H17T 9591   5.176   3.982  16.060  0.3654  0.0357  1.6704
   7323SM  C18S 9592   5.354   3.945  15.964 -0.3659  0.1841  0.0418
   7323SM  H18S 9593   5.329   4.037  15.907  1.2862  1.3827  1.1336
   7323SM  H18T 9594   5.323   3.859  15.901  0.1181  0.1359 -0.1373
   7323SM  H18U 9595   5.465   3.933  15.966 -0.0818  2.0013 -1.8072
   7323SM   C1F 9596   4.893   4.079  17.636  0.1182 -0.3645 -0.3803
   7323SM    OF 9597   4.975   4.152  17.695  0.2636 -0.5958 -0.1867
   7323SM   C2F 9598   4.792   4.135  17.544 -0.2035  0.5616 -0.2179
   7323SM   H2F 9599   4.795   4.245  17.558  1.6079  0.4882  0.1463
   7323SM   H2G 9600   4.692   4.093  17.570 -0.0987  1.1721  1.3045
   7323SM   C3F 9601   4.819   4.113  17.389 -0.6314 -0.2139  0.7425
   7323SM   H3F 9602   4.831   4.006  17.362  1.6793  0.5497 -1.6864
   7323SM   H3G 9603   4.917   4.159  17.364 -1.5389  1.8872  0.7982
   7323SM   C4F 9604   4.718   4.183  17.288  0.9680 -0.2105 -0.0232
   7323SM   H4F 9605   4.620   4.142  17.321  1.8669 -1.1205  1.6362
   7323SM   H4G 9606   4.746   4.160  17.183  1.5857  3.1287 -0.6812
   7323SM   C5F 9607   4.713   4.338  17.311  0.1153  0.0742 -0.1481
   7323SM   H5F 9608   4.816   4.351  17.353 -0.6244  2.3587  1.1829
   7323SM   H5G 9609   4.640   4.359  17.392  0.4610  0.3100  0.1068
   7323SM   C6F 9610   4.678   4.424  17.188 -0.7441 -0.3918  0.0446
   7323SM   H6F 9611   4.633   4.523  17.211 -0.0000  0.0077 -0.2013
   7323SM   H6G 9612   4.604   4.374  17.123 -0.8632  2.2115 -1.9957
   7323SM   C7F 9613   4.814   4.469  17.116  0.3328  0.9446 -0.0142
   7323SM   H7F 9614   4.881   4.509  17.195  1.2085 -0.8554  0.1875
   7323SM   H7G 9615   4.774   4.553  17.054 -0.8619  0.4377  0.0460
   7323SM   C8F 9616   4.886   4.374  17.031  0.1579 -0.0482 -0.3028
   7323SM   H8F 9617   4.919   4.278  17.076 -1.8264 -1.3571 -1.5004
   7323SM   H8G 9618   4.976   4.421  16.985  0.0774 -0.8506 -1.3060
   7323SM   C9F 9619   4.799   4.312  16.922  0.3154  0.1381 -0.3232
   7323SM   H9F 9620   4.783   4.402  16.859  1.4154 -0.0608 -0.9156
   7323SM   H9G 9621   4.706   4.273  16.969  0.8887 -2.0136 -0.8633
   7323SM  C10F 9622   4.857   4.192  16.848 -0.2756 -0.0664 -0.4793
   7323SM  H10F 9623   4.875   4.121  16.931 -0.1410  0.7689  0.2193
   7323SM  H10G 9624   4.951   4.224  16.798 -1.4797 -1.7294 -4.1965
   7323SM  C11F 9625   4.770   4.138  16.737  0.9262 -0.4856 -0.7863
   7323SM  H11F 9626   4.666   4.122  16.774  0.2789  1.8475 -1.4102
   7323SM  H11G 9627   4.813   4.040  16.708  0.5485 -2.2124  3.7446
   7323SM  C12F 9628   4.747   4.234  16.623 -0.1811  0.8545  0.1916
   7323SM  H12F 9629   4.835   4.297  16.600 -0.4971  2.1774  2.3209
   7323SM  H12G 9630   4.668   4.302  16.663 -0.0578  1.5083 -0.6497
   7323SM  C13F 9631   4.692   4.168  16.496  0.0854  0.0118 -0.7159
   7323SM  H13F 9632   4.592   4.126  16.519  0.7551 -1.2250  0.0360
   7323SM  H13G 9633   4.746   4.076  16.467 -1.5173 -2.6594  3.7990
   7323SM  C14F 9634   4.702   4.270  16.379 -0.0340  0.1461 -0.1629
   7323SM  H14F 9635   4.804   4.308  16.356 -0.2848  0.2314 -1.1637
   7323SM  H14G 9636   4.644   4.358  16.412  0.1427 -0.2545  1.3032
   7323SM  C15F 9637   4.654   4.207  16.249  0.0693 -0.1160 -0.1463
   7323SM  H15F 9638   4.549   4.172  16.264  0.3838 -0.0536  2.8095
   7323SM  H15G 9639   4.710   4.113  16.235 -0.5807 -0.1872 -2.6479
   7323SM  C16F 9640   4.661   4.306  16.131 -0.1415 -0.4314  0.1146
   7323SM  H16F 9641   4.756   4.364  16.120 -1.1119  0.7309 -3.1095
   7323SM  H16G 9642   4.574   4.374  16.130 -0.4493 -0.8256 -0.6107
   7323SM  C17F 9643   4.661   4.231  15.999  0.1574 -0.0976 -0.1999
   7323SM  H17F 9644   4.574   4.163  15.988  0.0344 -0.0069  0.1878
   7323SM  H17G 9645   4.750   4.165  15.997 -0.3699 -1.3757  4.8614
   7323SM  C18F 9646   4.655   4.338  15.886 -0.3521 -0.4363 -0.2658
   7323SM  H18F 9647   4.750   4.394  15.901 -0.4889  0.2115 -1.6604
   7323SM  H18G 9648   4.574   4.412  15.897  1.8197  2.0539  0.0870
   7323SM  C19F 9649   4.658   4.264  15.751  0.2485 -0.0746 -0.0533
   7323SM  H19F 9650   4.566   4.202  15.747 -0.3167  0.7070  0.6019
   7323SM  H19G 9651   4.743   4.193  15.749  0.9363  0.7256  0.4408
   7323SM  C20F 9652   4.674   4.357  15.628 -0.1289  0.0749  0.0349
   7323SM  H20F 9653   4.600   4.439  15.644 -0.0297 -0.2730  2.6816
   7323SM  H20G 9654   4.652   4.301  15.535 -1.7635  1.6926 -0.6191
   7323SM  C21F 9655   4.813   4.431  15.614 -0.9204  0.1604 -0.4159
   7323SM  H21F 9656   4.823   4.504  15.697  1.1903 -0.8456  0.2852
   7323SM  H21G 9657   4.809   4.491  15.521 -0.3435  0.4960 -0.2288
   7323SM  C22F 9658   4.941   4.342  15.613 -0.0147  0.1573 -0.1312
   7323SM  H22F 9659   4.933   4.282  15.519  2.1183 -0.4018 -0.0101
   7323SM  H22G 9660   4.934   4.282  15.706  0.1697  2.8604  1.7123
   7323SM  C23F 9661   5.069   4.429  15.626 -0.1704 -0.2473  0.6064
   7323SM  H23F 9662   5.149   4.356  15.602 -2.0178 -2.0451 -0.3998
   7323SM  H23G 9663   5.073   4.460  15.733  0.2610  1.0623  0.2371
   7323SM  H23H 9664   5.079   4.511  15.551  0.7150 -1.4804 -0.6840
   7423SM     N 9665   2.619   0.330  18.036  0.2487  0.8466 -0.3005
   7423SM   C15 9666   2.769   0.310  18.006  0.1709  0.0040 -0.4392
   7423SM  H15A 9667   2.805   0.213  18.038 -0.3928  0.1311  0.6518
   7423SM  H15B 9668   2.823   0.388  18.058  0.8716 -1.1774  0.6476
   7423SM  H15C 9669   2.782   0.313  17.899  0.0003 -0.1031 -0.4638
   7423SM   C14 9670   2.536   0.224  17.985  0.7148  0.6763 -0.1325
   7423SM  H14A 9671   2.555   0.199  17.881  0.1219 -2.5144  0.4215
   7423SM  H14B 9672   2.434   0.256  17.996 -0.1105 -0.4540 -3.2729
   7423SM  H14C 9673   2.544   0.129  18.035  0.6113  0.8989  0.3106
   7423SM   C13 9674   2.604   0.331  18.185  0.0800 -0.1811 -0.0434
   7423SM  H13A 9675   2.501   0.314  18.209  0.1088 -0.7376 -0.3055
   7423SM  H13B 9676   2.647   0.416  18.236 -0.0799 -0.0399 -0.1437
   7423SM  H13C 9677   2.657   0.248  18.229  0.8443  1.1559  1.6924
   7423SM   C12 9678   2.568   0.461  17.984  0.2874  0.1027 -0.7101
   7423SM  H12A 9679   2.556   0.460  17.877 -2.2072  0.3290 -0.4942
   7423SM  H12B 9680   2.644   0.535  18.005  0.8011 -0.4698 -0.5479
   7423SM   C11 9681   2.428   0.515  18.043 -0.2263 -0.0326 -0.4021
   7423SM  H11A 9682   2.410   0.608  17.984  1.7966 -0.2102 -1.4078
   7423SM  H11B 9683   2.435   0.547  18.150  1.0232 -1.2356 -0.0887
   7423SM     P 9684   2.167   0.449  18.019  0.2145 -0.0968  0.0483
   7423SM   O13 9685   2.096   0.352  18.102  0.3705 -0.0846  1.0462
   7423SM   O14 9686   2.135   0.592  18.055 -0.3414 -0.0763  0.3298
   7423SM   O11 9687   2.128   0.444  17.875  0.0482  0.1409 -0.0582
   7423SM   O12 9688   2.321   0.421  18.023 -0.4716  0.4213  0.4508
   7423SM   C1S 9689   2.191   0.348  17.783  0.0796 -0.4022  0.1250
   7423SM   H1S 9690   2.214   0.249  17.828 -1.1094 -0.1481  1.3628
   7423SM   H1T 9691   2.281   0.400  17.743 -0.9390  0.5098 -1.0491
   7423SM    NF 9692   2.146   0.227  17.562  0.3056  0.0882  0.0250
   7423SM   HNF 9693   2.156   0.235  17.463  1.4919  0.3723  0.1512
   7423SM   C2S 9694   2.104   0.339  17.655  0.8560 -0.1818 -0.2682
   7423SM   H2S 9695   1.996   0.326  17.679  0.6813 -1.2465 -1.5014
   7423SM   C3S 9696   2.101   0.484  17.580 -0.3663 -0.1299 -0.3313
   7423SM   H3S 9697   2.207   0.506  17.554 -0.9851  1.5991 -1.5275
   7423SM    O3 9698   2.067   0.597  17.660  0.3009  0.0950  0.4779
   7423SM   HO3 9699   2.063   0.566  17.751  0.1648  3.0321  1.5939
   7423SM   C4S 9700   2.041   0.491  17.442  0.3976  0.0008 -0.0779
   7423SM   H4S 9701   2.106   0.493  17.353  0.0551  3.2348 -0.3660
   7423SM   C5S 9702   1.907   0.517  17.426 -0.5086  0.4171 -0.2303
   7423SM   H5S 9703   1.841   0.524  17.514 -0.4726  0.1278 -0.1799
   7423SM   C6S 9704   1.848   0.557  17.298  0.0650 -0.2201  0.3653
   7423SM   H6S 9705   1.848   0.668  17.298 -1.3727 -0.1980 -0.4291
   7423SM   H6T 9706   1.745   0.516  17.287  0.6898 -1.2884 -2.5515
   7423SM   C7S 9707   1.921   0.511  17.168  0.8787 -0.0441 -0.1795
   7423SM   H7S 9708   1.911   0.401  17.154 -0.7095  0.3125 -2.5131
   7423SM   H7T 9709   2.024   0.551  17.161  0.7186  0.5434  0.7534
   7423SM   C8S 9710   1.847   0.570  17.051  0.7255 -0.7870  0.4462
   7423SM   H8S 9711   1.842   0.681  17.047  2.5464 -0.7068 -2.9613
   7423SM   H8T 9712   1.740   0.540  17.064  0.5913 -1.0881 -1.1613
   7423SM   C9S 9713   1.905   0.512  16.920 -0.5694  0.0363  0.1011
   7423SM   H9S 9714   1.894   0.402  16.923 -0.9616 -0.0477 -2.2921
   7423SM   H9T 9715   2.013   0.540  16.924 -1.1786  3.1293 -1.6871
   7423SM  C10S 9716   1.837   0.564  16.798  0.3100  0.1702  0.0055
   7423SM  H10S 9717   1.859   0.673  16.801  3.0729 -0.2802 -0.4395
   7423SM  H10T 9718   1.729   0.543  16.809  0.5292  0.2021  2.8617
   7423SM  C11S 9719   1.901   0.500  16.676 -0.3946  0.6649 -0.4559
   7423SM  H11S 9720   1.888   0.390  16.674 -0.7773  0.7150 -2.1538
   7423SM  H11T 9721   2.011   0.514  16.678 -0.2279 -0.5933  0.5710
   7423SM  C12S 9722   1.849   0.551  16.542  0.3660 -0.7592  0.1518
   7423SM  H12S 9723   1.870   0.660  16.538 -1.9921 -0.2245  0.8382
   7423SM  H12T 9724   1.738   0.542  16.533  0.4891 -0.5644 -2.5835
   7423SM  C13S 9725   1.923   0.484  16.428  0.2403 -0.1644 -0.2829
   7423SM  H13S 9726   1.875   0.384  16.420 -1.7345  0.7286 -0.2355
   7423SM  H13T 9727   2.032   0.482  16.452  0.5396 -2.0599 -1.5675
   7423SM  C14S 9728   1.904   0.563  16.299  0.3837 -0.6689  1.3867
   7423SM  H14S 9729   1.998   0.622  16.288  0.0714 -0.0743  1.8681
   7423SM  H14T 9730   1.829   0.644  16.306  2.5195  1.6016 -0.1790
   7423SM  C15S 9731   1.873   0.476  16.181 -0.1404  0.9894  0.2597
   7423SM  H15S 9732   1.842   0.542  16.097 -1.8310  0.1234  0.1474
   7423SM  H15T 9733   1.782   0.421  16.214  0.0982  0.7523  0.5175
   7423SM  C16S 9734   1.978   0.370  16.130 -0.1522  0.7037  0.2276
   7423SM  H16S 9735   2.017   0.322  16.222 -1.8686 -1.0791  0.0833
   7423SM  H16T 9736   2.061   0.427  16.083  1.6233 -1.0297  1.1167
   7423SM  C17S 9737   1.918   0.279  16.034  0.8238  1.1149 -0.3674
   7423SM  H17S 9738   1.888   0.326  15.937  1.1070  0.2822 -0.8674
   7423SM  H17T 9739   1.827   0.237  16.082 -0.7535  1.1022 -3.1250
   7423SM  C18S 9740   2.014   0.167  15.998  0.1587 -0.0244 -0.5473
   7423SM  H18S 9741   1.971   0.095  15.925 -0.8280  0.0714 -0.0738
   7423SM  H18T 9742   2.020   0.110  16.094  0.2928  0.9612  0.0407
   7423SM  H18U 9743   2.111   0.211  15.967 -0.0151  1.9039  1.4014
   7423SM   C1F 9744   2.146   0.097  17.599  0.4079  0.4652 -0.5712
   7423SM    OF 9745   2.110   0.059  17.716  0.2715 -0.2845  0.5172
   7423SM   C2F 9746   2.185   0.009  17.487 -0.7441 -0.2460 -0.0896
   7423SM   H2F 9747   2.282   0.053  17.453  0.7305 -1.6469  2.0556
   7423SM   H2G 9748   2.105   0.021  17.412  0.4075 -0.5401 -1.3996
   7423SM   C3F 9749   2.202  -0.140  17.532  0.4864 -0.2789  0.7235
   7423SM   H3F 9750   2.105  -0.173  17.574 -0.1552  0.1728 -0.3648
   7423SM   H3G 9751   2.283  -0.152  17.607  1.9110  0.8395 -0.5849
   7423SM   C4F 9752   2.223  -0.240  17.421 -0.7478 -0.5304  0.7057
   7423SM   H4F 9753   2.263  -0.334  17.463  0.6173  0.1640  1.0105
   7423SM   H4G 9754   2.286  -0.192  17.342 -2.0217 -0.3812 -0.2603
   7423SM   C5F 9755   2.095  -0.288  17.352 -0.4971  0.1778  0.2722
   7423SM   H5F 9756   2.034  -0.205  17.312 -3.0863 -2.3038 -1.2984
   7423SM   H5G 9757   2.032  -0.345  17.424 -0.2488  0.4011  0.6727
   7423SM   C6F 9758   2.125  -0.373  17.223 -0.2145  0.7410 -0.2728
   7423SM   H6F 9759   2.207  -0.443  17.252  1.0752  2.3820  0.1796
   7423SM   H6G 9760   2.171  -0.306  17.147 -1.5353  0.4837 -1.3316
   7423SM   C7F 9761   2.003  -0.442  17.159  0.2394 -0.2476 -0.3218
   7423SM   H7F 9762   1.920  -0.368  17.157  2.0894  1.9463 -0.4786
   7423SM   H7G 9763   1.966  -0.524  17.224  0.9766  0.2861  0.7953
   7423SM   C8F 9764   2.030  -0.488  17.017 -0.0404 -0.6681  0.3694
   7423SM   H8F 9765   2.106  -0.568  17.024  0.0999 -0.4401  1.7211
   7423SM   H8G 9766   2.083  -0.410  16.958  1.4532 -0.3296  2.0562
   7423SM   C9F 9767   1.899  -0.531  16.950  0.1658 -0.1615  0.3626
   7423SM   H9F 9768   1.837  -0.443  16.925  2.0096  1.9609  2.7091
   7423SM   H9G 9769   1.846  -0.605  17.014 -1.2183  0.9945  0.5799
   7423SM  C10F 9770   1.917  -0.593  16.811  0.4415 -0.0187 -0.0845
   7423SM  H10F 9771   1.820  -0.620  16.764 -1.3573  2.5391  1.9039
   7423SM  H10G 9772   1.988  -0.677  16.823  0.3408 -0.1611 -0.4563
   7423SM  C11F 9773   1.982  -0.501  16.709  0.8283  0.2856  0.4861
   7423SM  H11F 9774   2.087  -0.478  16.737  0.3423  2.2948  0.8265
   7423SM  H11G 9775   1.926  -0.405  16.715  0.3907 -0.0796  3.3200
   7423SM  C12F 9776   1.977  -0.555  16.566 -0.3685  0.2701 -0.7070
   7423SM  H12F 9777   1.871  -0.558  16.534  0.0785  0.2855 -2.2694
   7423SM  H12G 9778   2.007  -0.662  16.570 -1.1429  0.0550  2.5125
   7423SM  C13F 9779   2.075  -0.486  16.468  0.4413 -0.2105 -0.0902
   7423SM  H13F 9780   2.171  -0.468  16.522  2.6404 -0.6282 -3.5466
   7423SM  H13G 9781   2.043  -0.388  16.428  0.5870 -0.5271 -1.0081
   7423SM  C14F 9782   2.104  -0.571  16.344 -0.7216  0.2224 -0.8666
   7423SM  H14F 9783   2.012  -0.606  16.292 -0.1568 -2.1214 -0.4461
   7423SM  H14G 9784   2.151  -0.665  16.381 -2.5354  0.0085  1.1065
   7423SM  C15F 9785   2.198  -0.507  16.232 -0.2938 -0.5746  0.0361
   7423SM  H15F 9786   2.288  -0.464  16.282 -0.5176  0.1653 -0.1753
   7423SM  H15G 9787   2.158  -0.422  16.173 -1.1951 -2.6198 -2.4738
   7423SM  C16F 9788   2.228  -0.606  16.116 -0.1865  0.7480 -0.2140
   7423SM  H16F 9789   2.133  -0.656  16.090 -1.4338  1.6906  2.2429
   7423SM  H16G 9790   2.296  -0.689  16.146 -0.0909  0.3529 -1.4530
   7423SM  C17F 9791   2.279  -0.533  15.990  0.6410  0.1151  0.6487
   7423SM  H17F 9792   2.374  -0.480  16.013  0.5340  0.9601 -0.7763
   7423SM  H17G 9793   2.207  -0.451  15.968  2.3354  2.0449  1.9664
   7423SM  C18F 9794   2.304  -0.637  15.880  0.5453 -0.2660  0.0403
   7423SM  H18F 9795   2.215  -0.704  15.878  0.6073 -0.3353 -1.1973
   7423SM  H18G 9796   2.389  -0.702  15.908  0.1600 -0.5804  0.4976
   7423SM  C19F 9797   2.332  -0.574  15.746  0.3632  0.0082 -0.3019
   7423SM  H19F 9798   2.414  -0.500  15.752  2.0901 -1.6439 -1.9485
   7423SM  H19G 9799   2.241  -0.515  15.723  0.2111 -0.0373  0.1869
   7423SM  C20F 9800   2.363  -0.687  15.638  0.2530 -0.4031  0.0167
   7423SM  H20F 9801   2.264  -0.725  15.604 -0.2228 -0.1253  1.0607
   7423SM  H20G 9802   2.432  -0.763  15.680  1.0008 -0.0842 -0.6012
   7423SM  C21F 9803   2.425  -0.627  15.510 -0.0610 -0.4318  0.4471
   7423SM  H21F 9804   2.511  -0.579  15.561 -0.4171  0.5462  0.1433
   7423SM  H21G 9805   2.356  -0.556  15.460  0.9753 -1.5438 -2.7972
   7423SM  C22F 9806   2.471  -0.729  15.406 -0.2236 -0.1129  1.4835
   7423SM  H22F 9807   2.535  -0.811  15.445  1.1274 -0.9954 -2.1655
   7423SM  H22G 9808   2.532  -0.669  15.335  0.7366 -0.9050  1.6285
   7423SM  C23F 9809   2.359  -0.799  15.327  0.4013 -0.4063  0.8047
   7423SM  H23F 9810   2.388  -0.862  15.241 -1.5394 -0.8952  0.4603
   7423SM  H23G 9811   2.288  -0.722  15.290  0.3427 -0.4875  0.7463
   7423SM  H23H 9812   2.287  -0.858  15.388 -1.0829 -0.1035 -0.5850
   7523SM     N 9813   0.031   0.609  18.186 -0.0629 -0.1922 -0.1855
   7523SM   C15 9814  -0.031   0.473  18.179  0.5239  0.1264 -0.2550
   7523SM  H15A 9815  -0.050   0.441  18.281  0.3776 -1.6997 -0.8112
   7523SM  H15B 9816   0.034   0.394  18.143  1.3282  0.3246  0.7133
   7523SM  H15C 9817  -0.120   0.482  18.120  0.0867  1.5799  0.5775
   7523SM   C14 9818  -0.054   0.695  18.274  0.4193  0.3295  0.0793
   7523SM  H14A 9819  -0.007   0.790  18.292 -1.5081  1.3972 -0.2754
   7523SM  H14B 9820  -0.087   0.633  18.356 -0.5585 -0.7290 -1.0764
   7523SM  H14C 9821  -0.134   0.722  18.207  1.6612 -1.4986 -2.3158
   7523SM   C13 9822   0.161   0.589  18.261  0.8959 -0.0566  0.1965
   7523SM  H13A 9823   0.133   0.544  18.354 -1.5466  3.0355  1.1182
   7523SM  H13B 9824   0.194   0.686  18.295  2.4036 -0.8288  1.0393
   7523SM  H13C 9825   0.244   0.539  18.212  2.4724  0.4433  2.2096
   7523SM   C12 9826   0.056   0.677  18.058  0.1076  0.6162  0.1950
   7523SM  H12A 9827   0.128   0.627  17.994  0.8297  2.4630 -0.5170
   7523SM  H12B 9828   0.115   0.766  18.075  1.6630 -0.1047 -1.1083
   7523SM   C11 9829  -0.060   0.719  17.974  0.7655  0.1185 -0.1801
   7523SM  H11A 9830  -0.145   0.648  17.982 -0.5929  1.6283 -0.5201
   7523SM  H11B 9831  -0.024   0.717  17.869 -0.5525  0.5676 -0.6634
   7523SM     P 9832  -0.179   0.952  17.917 -0.0219  0.3771 -0.0017
   7523SM   O13 9833  -0.311   0.887  17.882  0.3042 -1.0245 -0.3955
   7523SM   O14 9834  -0.191   1.086  17.980  0.2389 -0.1440 -0.0112
   7523SM   O11 9835  -0.087   0.958  17.786 -0.2398  0.3739 -0.7366
   7523SM   O12 9836  -0.100   0.853  18.016 -0.5427 -0.7006  0.2772
   7523SM   C1S 9837   0.053   0.971  17.776 -0.4157  0.1859  0.0467
   7523SM   H1S 9838   0.108   0.879  17.805 -0.7136  0.6494  2.3333
   7523SM   H1T 9839   0.099   1.050  17.841  1.9163 -0.3128 -0.8940
   7523SM    NF 9840   0.247   0.989  17.616  0.4537 -0.3553 -0.2432
   7523SM   HNF 9841   0.293   1.077  17.613 -1.5187  0.7500 -0.1991
   7523SM   C2S 9842   0.099   0.993  17.628 -0.3055  0.4293 -0.8740
   7523SM   H2S 9843   0.072   0.899  17.576  1.0588  0.2026 -1.2123
   7523SM   C3S 9844   0.029   1.116  17.564  0.5960  0.0069  0.4755
   7523SM   H3S 9845   0.087   1.206  17.595  2.0738 -0.2438 -1.3997
   7523SM    O3 9846  -0.103   1.142  17.605 -0.8736  0.2939  0.1997
   7523SM   HO3 9847  -0.126   1.060  17.650 -0.5853  0.3361  0.4323
   7523SM   C4S 9848   0.047   1.124  17.415 -0.3449  0.2909  0.0765
   7523SM   H4S 9849   0.154   1.139  17.393  0.0229 -2.9667 -0.7290
   7523SM   C5S 9850  -0.031   1.078  17.320  0.0188  0.1791  0.1011
   7523SM   H5S 9851  -0.134   1.051  17.346 -0.1244  1.5730  1.0687
   7523SM   C6S 9852  -0.011   1.074  17.172 -1.2006  0.1105  0.1803
   7523SM   H6S 9853  -0.055   1.166  17.128  1.6444  1.6122  0.1872
   7523SM   H6T 9854  -0.061   0.987  17.125 -0.4846  0.4203 -1.1982
   7523SM   C7S 9855   0.133   1.077  17.118  0.2960  0.4259  0.1790
   7523SM   H7S 9856   0.187   1.002  17.179  0.2324 -0.3475 -0.7068
   7523SM   H7T 9857   0.188   1.171  17.142 -0.5716  1.4360 -1.6429
   7523SM   C8S 9858   0.134   1.058  16.964 -0.3038 -0.4505 -0.1450
   7523SM   H8S 9859   0.076   0.967  16.935 -2.6073  0.9477 -0.2273
   7523SM   H8T 9860   0.235   1.022  16.936 -0.0550  1.2495 -1.5941
   7523SM   C9S 9861   0.099   1.187  16.891  0.2106 -0.4066 -0.1127
   7523SM   H9S 9862   0.136   1.271  16.954 -3.0150  0.5454  0.7063
   7523SM   H9T 9863  -0.008   1.207  16.869  0.9084 -0.0615 -3.8119
   7523SM  C10S 9864   0.171   1.181  16.754 -0.2737  0.1079  0.1178
   7523SM  H10S 9865   0.277   1.162  16.780 -0.6742  1.2278  2.8440
   7523SM  H10T 9866   0.169   1.285  16.713 -0.2516  0.3945  0.8281
   7523SM  C11S 9867   0.129   1.074  16.653  0.1071  0.0201 -1.1154
   7523SM  H11S 9868   0.022   1.075  16.624  0.0415 -0.0744 -0.8778
   7523SM  H11T 9869   0.137   0.978  16.707  1.0062  0.5613 -0.2446
   7523SM  C12S 9870   0.217   1.075  16.530 -0.3548  0.0402 -0.1345
   7523SM  H12S 9871   0.320   1.050  16.563  0.3855  2.0855 -0.7641
   7523SM  H12T 9872   0.219   1.180  16.496 -0.0044 -0.2558 -1.0529
   7523SM  C13S 9873   0.182   0.976  16.416  0.9905 -0.0173 -0.1516
   7523SM  H13S 9874   0.077   0.942  16.433 -0.1650  3.3701  0.2922
   7523SM  H13T 9875   0.235   0.879  16.425 -2.8445 -2.1833  1.9140
   7523SM  C14S 9876   0.190   1.035  16.271  0.2025 -0.3621 -0.3232
   7523SM  H14S 9877   0.276   1.106  16.267 -1.1962  1.6359  1.8209
   7523SM  H14T 9878   0.100   1.100  16.269 -0.8740 -1.7610  0.9094
   7523SM  C15S 9879   0.209   0.928  16.164 -0.3643  0.4207  0.0297
   7523SM  H15S 9880   0.120   0.864  16.184  0.6261 -0.9775  0.0640
   7523SM  H15T 9881   0.292   0.859  16.190 -1.1587 -0.6816 -0.3056
   7523SM  C16S 9882   0.224   0.979  16.016 -0.4419 -0.9193  0.3782
   7523SM  H16S 9883   0.333   1.002  16.005 -0.8149  1.2112  0.7262
   7523SM  H16T 9884   0.162   1.067  15.987 -1.4807 -1.4047  1.0783
   7523SM  C17S 9885   0.194   0.883  15.904  0.9283 -0.0092  0.1821
   7523SM  H17S 9886   0.089   0.850  15.893  0.9034  0.1375 -0.0034
   7523SM  H17T 9887   0.257   0.794  15.929 -1.7139 -1.6120  1.5500
   7523SM  C18S 9888   0.230   0.926  15.766  0.2167 -0.0168 -0.0053
   7523SM  H18S 9889   0.215   0.841  15.696 -0.9333 -1.0946  1.4878
   7523SM  H18T 9890   0.338   0.951  15.760  0.3984 -0.9365 -0.8911
   7523SM  H18U 9891   0.171   1.010  15.726  0.1894  0.8286  1.7241
   7523SM   C1F 9892   0.319   0.884  17.626  0.2374 -0.0512 -0.5746
   7523SM    OF 9893   0.265   0.772  17.640 -0.0630  0.2727  0.5931
   7523SM   C2F 9894   0.463   0.908  17.621 -0.0163 -0.3761  0.0353
   7523SM   H2F 9895   0.507   0.869  17.715  1.3882 -0.7520 -0.7405
   7523SM   H2G 9896   0.479   1.017  17.609 -0.8764 -0.3392 -0.8108
   7523SM   C3F 9897   0.525   0.839  17.497 -0.1829  0.3989 -0.0768
   7523SM   H3F 9898   0.510   0.730  17.507  0.4694  0.3849  0.8165
   7523SM   H3G 9899   0.631   0.863  17.519  0.1709 -3.3505  3.3592
   7523SM   C4F 9900   0.471   0.891  17.366 -0.5445 -0.5304 -0.5090
   7523SM   H4F 9901   0.502   0.998  17.364  0.3548 -0.7774 -2.5918
   7523SM   H4G 9902   0.360   0.884  17.358 -0.8123  1.9884  0.1958
   7523SM   C5F 9903   0.528   0.815  17.248 -0.2694  0.0708  0.3587
   7523SM   H5F 9904   0.494   0.710  17.259 -0.1279  0.1097  1.2474
   7523SM   H5G 9905   0.638   0.799  17.243 -0.3897 -0.5508 -0.7283
   7523SM   C6F 9906   0.486   0.875  17.115  0.7367 -0.9439 -0.1705
   7523SM   H6F 9907   0.541   0.968  17.091  0.0599 -0.5932 -0.4007
   7523SM   H6G 9908   0.380   0.910  17.115  0.8553 -0.5812 -0.5955
   7523SM   C7F 9909   0.518   0.782  16.999  0.2583  0.0580  0.4156
   7523SM   H7F 9910   0.464   0.687  17.018  0.0872  0.1774  0.5309
   7523SM   H7G 9911   0.627   0.762  16.991  0.0838 -0.1422 -2.3042
   7523SM   C8F 9912   0.459   0.829  16.863 -1.0221  0.4878  1.1196
   7523SM   H8F 9913   0.475   0.936  16.835 -1.1683  0.0398 -0.8149
   7523SM   H8G 9914   0.350   0.816  16.882 -0.5516  0.1158  3.9569
   7523SM   C9F 9915   0.498   0.751  16.735  0.3200  0.0540  0.3284
   7523SM   H9F 9916   0.444   0.812  16.659  1.0096 -1.2945 -1.2849
   7523SM   H9G 9917   0.448   0.653  16.722  0.7831 -0.0554 -0.7206
   7523SM  C10F 9918   0.646   0.748  16.711 -0.0983 -0.8178 -0.3929
   7523SM  H10F 9919   0.702   0.690  16.787  0.1415 -0.5136 -0.3388
   7523SM  H10G 9920   0.676   0.854  16.715  1.5317 -1.1835 -1.8770
   7523SM  C11F 9921   0.680   0.688  16.573  0.2656 -0.3484  0.2008
   7523SM  H11F 9922   0.633   0.588  16.564 -0.3766 -0.1638  1.2737
   7523SM  H11G 9923   0.789   0.676  16.560  0.1670 -0.2711 -0.7475
   7523SM  C12F 9924   0.626   0.773  16.451 -0.7342  0.1475  0.3504
   7523SM  H12F 9925   0.663   0.878  16.459  0.3189 -0.1775 -0.0872
   7523SM  H12G 9926   0.515   0.760  16.453 -0.4930 -2.3494  1.8902
   7523SM  C13F 9927   0.690   0.722  16.319 -0.3265  0.0590 -0.4088
   7523SM  H13F 9928   0.680   0.612  16.309 -2.3083  0.3746 -3.6007
   7523SM  H13G 9929   0.798   0.742  16.334 -0.5008  0.3039  0.5769
   7523SM  C14F 9930   0.642   0.798  16.195 -0.0053 -0.2398 -0.8848
   7523SM  H14F 9931   0.696   0.895  16.194 -0.2786 -0.0872 -1.3105
   7523SM  H14G 9932   0.531   0.805  16.191  0.0067 -0.2042 -1.1967
   7523SM  C15F 9933   0.673   0.721  16.067 -0.5440  0.0483 -0.0625
   7523SM  H15F 9934   0.626   0.620  16.073  2.4517 -1.5294 -1.2378
   7523SM  H15G 9935   0.782   0.703  16.059 -0.9016 -1.3035 -2.8581
   7523SM  C16F 9936   0.624   0.794  15.939  0.0053  0.0503  0.4320
   7523SM  H16F 9937   0.694   0.879  15.924 -1.1097  0.9510  0.2472
   7523SM  H16G 9938   0.522   0.837  15.951 -0.2752 -0.5213  0.1192
   7523SM  C17F 9939   0.637   0.703  15.814 -0.0446  0.0942 -0.3547
   7523SM  H17F 9940   0.566   0.617  15.817  0.7638 -0.5724  0.4953
   7523SM  H17G 9941   0.741   0.669  15.835  0.7229  2.2671 -0.4226
   7523SM  C18F 9942   0.623   0.771  15.677  0.1435  0.2164 -0.4310
   7523SM  H18F 9943   0.719   0.824  15.657  1.1507 -1.4424 -0.1840
   7523SM  H18G 9944   0.534   0.837  15.686 -0.3015 -0.4496  0.1532
   7523SM  C19F 9945   0.600   0.668  15.561  0.0992 -0.2768 -0.1992
   7523SM  H19F 9946   0.529   0.586  15.585  1.6271 -1.7936 -0.6827
   7523SM  H19G 9947   0.700   0.622  15.547  0.5224 -0.2768  2.3637
   7523SM  C20F 9948   0.560   0.737  15.430  0.2188  0.4723  0.0814
   7523SM  H20F 9949   0.585   0.672  15.343  2.8063 -0.1581  1.2073
   7523SM  H20G 9950   0.621   0.829  15.425  1.3918 -0.2968 -0.3340
   7523SM  C21F 9951   0.411   0.786  15.423  0.1873  0.4278  0.1118
   7523SM  H21F 9952   0.391   0.869  15.494  0.8659  0.0903  0.7107
   7523SM  H21G 9953   0.357   0.695  15.455  1.7781 -0.9656 -0.9566
   7523SM  C22F 9954   0.356   0.827  15.284 -0.9615 -0.9010 -0.0059
   7523SM  H22F 9955   0.407   0.763  15.209 -0.3768 -0.6633  0.1834
   7523SM  H22G 9956   0.395   0.931  15.279  1.9917 -1.9226 -0.0007
   7523SM  C23F 9957   0.211   0.819  15.260  0.0894  0.2870  0.5881
   7523SM  H23F 9958   0.167   0.728  15.304 -1.0050  0.7446  0.4577
   7523SM  H23G 9959   0.197   0.818  15.150  1.4913 -1.0732  0.3828
   7523SM  H23H 9960   0.172   0.909  15.313  2.7673  1.7091  0.3700
   7623SM     N 9961   2.542   1.016  18.358  0.5025  0.4483 -0.2472
   7623SM   C15 9962   2.656   1.084  18.287 -0.0276 -0.3775  0.3803
   7623SM  H15A 9963   2.626   1.164  18.221  3.0327 -0.0031 -0.7237
   7623SM  H15B 9964   2.721   1.030  18.220  1.9290  3.5354 -1.1479
   7623SM  H15C 9965   2.719   1.135  18.358  0.8628 -0.0942 -0.5991
   7623SM   C14 9966   2.595   0.911  18.449  0.3643  0.2987  0.7413
   7623SM  H14A 9967   2.520   0.871  18.515 -0.8496 -0.0988 -0.8045
   7623SM  H14B 9968   2.670   0.956  18.512  1.3744  0.1162 -0.2893
   7623SM  H14C 9969   2.640   0.829  18.395  0.7210  0.2554  1.1079
   7623SM   C13 9970   2.469   1.111  18.443 -0.3025 -0.1492  0.0062
   7623SM  H13A 9971   2.421   1.185  18.382  1.0139  2.1347  1.5487
   7623SM  H13B 9972   2.544   1.155  18.508 -0.7245  1.5129 -0.5758
   7623SM  H13C 9973   2.393   1.061  18.501 -0.0129  0.5990  1.0664
   7623SM   C12 9974   2.444   0.963  18.254  0.3059  0.1882 -0.3020
   7623SM  H12A 9975   2.405   1.044  18.194 -1.6545  0.6367  1.4462
   7623SM  H12B 9976   2.358   0.914  18.298 -0.1202  0.2744 -1.0288
   7623SM   C11 9977   2.508   0.855  18.157  0.0880 -0.4178  0.3717
   7623SM  H11A 9978   2.422   0.805  18.107  0.4109 -0.0939 -0.5173
   7623SM  H11B 9979   2.557   0.777  18.219  0.2005  0.3737  1.3085
   7623SM     P 9980   2.559   0.989  17.941 -0.4936 -0.2510  0.0175
   7623SM   O13 9981   2.461   1.098  17.985 -0.6222 -0.3557 -0.2223
   7623SM   O14 9982   2.691   1.039  17.881  0.1791 -0.1996  0.1726
   7623SM   O11 9983   2.501   0.884  17.852  0.4586 -0.1582  0.1743
   7623SM   O12 9984   2.602   0.911  18.068 -0.0746 -0.0078  0.2381
   7623SM   C1S 9985   2.358   0.875  17.820 -0.2226 -0.2224 -0.9174
   7623SM   H1S 9986   2.307   0.970  17.846 -0.3437 -0.6845  0.5934
   7623SM   H1T 9987   2.313   0.793  17.880 -0.4474  1.0832  0.7818
   7623SM    NF 9988   2.207   0.883  17.624 -0.1999  0.0386 -0.0942
   7623SM   HNF 9989   2.156   0.806  17.586 -1.1501  0.3806  0.4312
   7623SM   C2S 9990   2.348   0.867  17.668 -0.3780  0.2033  0.2713
   7623SM   H2S 9991   2.410   0.949  17.625 -1.7287  0.7898 -0.6598
   7623SM   C3S 9992   2.416   0.728  17.619 -0.0313  0.9149 -0.2531
   7623SM   H3S 9993   2.352   0.648  17.662  0.7287  0.4476  0.0217
   7623SM    O3 9994   2.544   0.695  17.682  0.4323 -0.2912 -0.3683
   7623SM   HO3 9995   2.561   0.770  17.739 -2.2904 -0.3201  0.6627
   7623SM   C4S 9996   2.438   0.723  17.470  0.6649 -0.2574  0.4276
   7623SM   H4S 9997   2.471   0.819  17.427  0.6894 -0.3545  0.2277
   7623SM   C5S 9998   2.398   0.625  17.385  0.0549  0.4724 -0.2113
   7623SM   H5S 9999   2.362   0.528  17.422 -1.5001  1.0962 -0.0050
   7623SM   C6S10000   2.408   0.657  17.234 -0.0057 -0.3010  0.1503
   7623SM   H6S10001   2.438   0.567  17.176  3.7924  0.5747  0.5037
   7623SM   H6T10002   2.492   0.726  17.214  0.1336 -1.1536 -2.6810
   7623SM   C7S10003   2.288   0.727  17.175  0.1577  0.3910  0.7817
   7623SM   H7S10004   2.259   0.809  17.243  0.2661  0.0030  1.3003
   7623SM   H7T10005   2.206   0.652  17.171  0.5641 -0.1189  1.8092
   7623SM   C8S10006   2.310   0.773  17.028 -0.1526  0.0277 -0.0185
   7623SM   H8S10007   2.400   0.834  17.005 -0.6685  0.5907 -0.5762
   7623SM   H8T10008   2.218   0.830  17.007 -0.0824  0.8144  1.6182
   7623SM   C9S10009   2.307   0.668  16.917  0.2561  0.3247 -0.3264
   7623SM   H9S10010   2.222   0.598  16.932 -0.5807  1.1524 -1.0395
   7623SM   H9T10011   2.402   0.614  16.901 -0.4881 -1.2764  0.4636
   7623SM  C10S10012   2.287   0.736  16.779  0.1551  0.9054 -0.1976
   7623SM  H10S10013   2.355   0.823  16.789  1.4265 -0.1386  0.5986
   7623SM  H10T10014   2.182   0.769  16.766 -0.4207 -0.5675  0.3684
   7623SM  C11S10015   2.328   0.643  16.668 -0.1595  0.0613  0.9904
   7623SM  H11S10016   2.241   0.579  16.639 -0.2502  1.1723 -1.3865
   7623SM  H11T10017   2.417   0.586  16.703 -0.2249 -1.1544 -0.7221
   7623SM  C12S10018   2.374   0.728  16.546 -0.4414 -0.2918  0.0997
   7623SM  H12S10019   2.472   0.772  16.573 -0.5552  0.8004 -1.1788
   7623SM  H12T10020   2.284   0.787  16.517 -0.2422 -1.3475 -3.0888
   7623SM  C13S10021   2.420   0.647  16.419  0.9331  0.2249 -0.2191
   7623SM  H13S10022   2.497   0.571  16.444 -1.1821 -1.8879  0.1730
   7623SM  H13T10023   2.448   0.730  16.351 -0.4606  1.2352  0.3893
   7623SM  C14S10024   2.314   0.570  16.345  0.1122  0.7497  0.4520
   7623SM  H14S10025   2.229   0.634  16.311  0.4975  0.1068 -1.9353
   7623SM  H14T10026   2.273   0.492  16.412  0.6368  0.7462  0.7650
   7623SM  C15S10027   2.377   0.487  16.233 -0.2799 -0.8911 -0.3764
   7623SM  H15S10028   2.297   0.418  16.198 -1.6089  0.0667  0.7148
   7623SM  H15T10029   2.460   0.421  16.267  0.7277 -1.1823 -3.0622
   7623SM  C16S10030   2.432   0.568  16.121  0.3865  0.1431  0.0331
   7623SM  H16S10031   2.485   0.497  16.054 -0.0282 -0.7759  0.6574
   7623SM  H16T10032   2.519   0.631  16.148 -0.6918  1.8046 -0.1975
   7623SM  C17S10033   2.329   0.653  16.045 -0.8452 -0.1207  0.0718
   7623SM  H17S10034   2.295   0.737  16.109 -1.4515 -1.4718  1.6003
   7623SM  H17T10035   2.236   0.599  16.016 -0.2019 -1.1236 -0.1961
   7623SM  C18S10036   2.380   0.728  15.917 -0.4614  0.2347  1.3552
   7623SM  H18S10037   2.480   0.773  15.934  0.0858 -0.8260  1.0211
   7623SM  H18T10038   2.300   0.795  15.879 -0.8036 -0.5432  0.6667
   7623SM  H18U10039   2.392   0.651  15.838 -0.0659  0.2102  1.4360
   7623SM   C1F10040   2.124   0.987  17.643  0.4392  0.1890  0.0985
   7623SM    OF10041   2.164   1.092  17.677  0.7912  0.3294  0.0340
   7623SM   C2F10042   1.981   0.961  17.619  0.1578 -0.2321  0.2319
   7623SM   H2F10043   1.904   1.039  17.636 -0.4633 -0.0228 -2.9611
   7623SM   H2G10044   1.961   0.887  17.699 -0.4549  1.7353  1.9772
   7623SM   C3F10045   1.956   0.891  17.478  0.1446  1.0160  0.3083
   7623SM   H3F10046   1.858   0.839  17.477  0.0861  1.1229  0.4738
   7623SM   H3G10047   2.032   0.811  17.470  1.7801  2.4244  1.1298
   7623SM   C4F10048   1.986   0.986  17.364  0.1257  0.5534  0.4097
   7623SM   H4F10049   2.090   1.025  17.362  0.5759 -0.6319 -0.9862
   7623SM   H4G10050   1.942   1.085  17.389 -1.4404  0.5458 -1.9968
   7623SM   C5F10051   1.942   0.937  17.220  0.8603 -1.0757  0.8882
   7623SM   H5F10052   1.834   0.912  17.224  0.6462 -0.1804  0.9145
   7623SM   H5G10053   2.003   0.844  17.213  2.0342 -0.2483 -0.5241
   7623SM   C6F10054   1.973   1.028  17.099  0.1374 -0.1750  0.1670
   7623SM   H6F10055   2.083   1.032  17.083  0.1872 -3.5246 -0.9866
   7623SM   H6G10056   1.939   1.133  17.116 -0.4844 -0.0586 -1.6596
   7623SM   C7F10057   1.913   0.972  16.970 -0.6374 -0.4722  0.5187
   7623SM   H7F10058   1.802   0.966  16.972 -0.5429 -2.9493  0.6515
   7623SM   H7G10059   1.954   0.870  16.953  0.8245 -0.2327  2.3053
   7623SM   C8F10060   1.955   1.058  16.850  0.5035 -0.1734 -0.3928
   7623SM   H8F10061   2.065   1.044  16.844  0.3661 -0.6984 -2.5601
   7623SM   H8G10062   1.926   1.165  16.852  1.2496  0.0969 -2.0829
   7623SM   C9F10063   1.895   1.008  16.715 -0.0553  0.5355 -0.0692
   7623SM   H9F10064   1.785   1.025  16.707 -0.1846 -0.6130 -0.9106
   7623SM   H9G10065   1.899   0.898  16.729 -0.4686  0.4566 -0.5237
   7623SM  C10F10066   1.973   1.038  16.586  0.5488 -0.7427  0.4315
   7623SM  H10F10067   2.080   1.011  16.597  1.0380  1.0271  0.2571
   7623SM  H10G10068   1.985   1.145  16.558  1.4979 -0.7344  0.8287
   7623SM  C11F10069   1.904   0.967  16.472 -0.7963 -0.3452  0.2579
   7623SM  H11F10070   1.800   1.008  16.466 -0.2264  1.6330  2.3593
   7623SM  H11G10071   1.911   0.859  16.498 -0.3883  0.0430  1.9036
   7623SM  C12F10072   1.993   0.975  16.339 -0.4270 -0.4384 -0.0178
   7623SM  H12F10073   2.085   0.917  16.360  1.1632  1.5458 -1.1453
   7623SM  H12G10074   2.020   1.082  16.335  2.7393 -1.0972  1.0318
   7623SM  C13F10075   1.930   0.937  16.214  0.1234 -0.1132  0.2804
   7623SM  H13F10076   1.830   0.984  16.213  0.3981  0.4863  0.6284
   7623SM  H13G10077   1.915   0.827  16.209  1.5535 -0.4468  2.3052
   7623SM  C14F10078   2.000   0.976  16.081  0.0574 -0.3337  0.2903
   7623SM  H14F10079   2.106   0.942  16.077 -0.2470 -1.1896 -1.1377
   7623SM  H14G10080   2.009   1.085  16.102 -0.9858 -0.3477  0.8495
   7623SM  C15F10081   1.918   0.935  15.951  0.2280  0.1262 -0.2980
   7623SM  H15F10082   1.968   0.987  15.867  1.5837  0.5031  0.6986
   7623SM  H15G10083   1.821   0.981  15.982  0.3664 -0.3441  0.9161
   7623SM  C16F10084   1.916   0.788  15.924 -0.9478 -0.0103 -0.1658
   7623SM  H16F10085   1.862   0.731  16.003 -1.0538 -0.9047 -0.8682
   7623SM  H16G10086   2.019   0.751  15.947 -1.3167 -1.1454 -0.2812
   7623SM  C17F10087   1.878   0.756  15.781 -0.3997 -0.1536  0.0552
   7623SM  H17F10088   1.944   0.817  15.716 -1.3616  2.8277  1.6838
   7623SM  H17G10089   1.778   0.800  15.764  0.9943  2.2753 -2.5403
   7623SM  C18F10090   1.883   0.616  15.745  0.3240  0.1728 -0.1124
   7623SM  H18F10091   1.814   0.599  15.659 -0.2673 -0.3812  0.4575
   7623SM  H18G10092   1.840   0.556  15.828  1.3390 -0.6558 -0.1600
   7623SM  C19F10093   2.026   0.568  15.710  0.4126  0.0734  0.6166
   7623SM  H19F10094   2.092   0.576  15.798 -0.5204 -2.5153  1.6273
   7623SM  H19G10095   2.063   0.633  15.627 -0.1244  0.9864  1.0692
   7623SM  C20F10096   2.027   0.422  15.670 -0.2154  0.0554 -0.0912
   7623SM  H20F10097   1.971   0.401  15.576 -1.2299  0.5711  0.3759
   7623SM  H20G10098   1.984   0.364  15.754  1.2956 -0.7287  0.1631
   7623SM  C21F10099   2.169   0.376  15.636  0.7476  0.3639  0.3411
   7623SM  H21F10100   2.228   0.398  15.728  0.5195  2.8594 -0.0187
   7623SM  H21G10101   2.214   0.434  15.552 -1.5911 -1.1682 -2.0906
   7623SM  C22F10102   2.181   0.224  15.594 -0.0283  0.1141  0.4238
   7623SM  H22F10103   2.107   0.216  15.511  0.2808  0.4811  0.1097
   7623SM  H22G10104   2.164   0.176  15.693  0.1391  0.0245  0.4091
   7623SM  C23F10105   2.323   0.192  15.555  0.0419  0.3746 -0.5654
   7623SM  H23F10106   2.340   0.083  15.543  1.8093  0.2339  2.2568
   7623SM  H23G10107   2.390   0.225  15.637  0.4550 -0.6330 -0.4823
   7623SM  H23H10108   2.356   0.232  15.456 -2.0613  0.0849 -1.4272
   7723SM     N10109   1.755   5.402  17.861  0.4655 -0.5758 -0.0493
   7723SM   C1510110   1.631   5.324  17.856 -0.2635  0.1239 -0.3073
   7723SM  H15A10111   1.625   5.243  17.927 -1.4594  0.3456 -0.1206
   7723SM  H15B10112   1.618   5.270  17.763 -1.7959 -1.7023  0.8860
   7723SM  H15C10113   1.543   5.385  17.873  0.6423  2.0206 -2.0515
   7723SM   C1410114   1.753   5.512  17.756  0.1034  0.5480  0.2507
   7723SM  H14A10115   1.742   5.468  17.658  2.6705 -1.3773  0.7327
   7723SM  H14B10116   1.836   5.581  17.755 -1.1996  2.1826 -0.9066
   7723SM  H14C10117   1.661   5.567  17.768  0.4338  1.5157 -1.2994
   7723SM   C1310118   1.765   5.465  17.999  0.7781  0.5778  0.7735
   7723SM  H13A10119   1.837   5.546  17.991  0.4892  0.9181  1.5092
   7723SM  H13B10120   1.786   5.393  18.076 -0.0924  0.7820  1.2051
   7723SM  H13C10121   1.672   5.517  18.019 -0.2352  0.0576 -2.0656
   7723SM   C1210122   1.874   5.312  17.868 -0.0603  0.1144  0.2208
   7723SM  H12A10123   1.863   5.240  17.947 -1.6851  2.2092  2.0304
   7723SM  H12B10124   1.957   5.377  17.892  0.0662  0.0041  0.0839
   7723SM   C1110125   1.900   5.222  17.736 -0.4182 -0.6608 -0.1685
   7723SM  H11A10126   2.001   5.178  17.752 -0.4811 -0.6009  0.4344
   7723SM  H11B10127   1.897   5.281  17.642 -0.6093  1.4978  1.1393
   7723SM     P10128   1.809   4.990  17.824 -0.0805 -0.2000 -0.6811
   7723SM   O1310129   1.864   5.035  17.954 -0.8517  0.0957  0.3379
   7723SM   O1410130   1.678   4.916  17.832 -0.4220  0.5248  0.1880
   7723SM   O1110131   1.919   4.895  17.753 -0.0920 -0.3018  0.3665
   7723SM   O1210132   1.800   5.116  17.728  0.1544 -0.2427  0.0621
   7723SM   C1S10133   1.885   4.805  17.646  0.4042  0.2364 -0.4254
   7723SM   H1S10134   1.775   4.792  17.638  0.4705 -0.1104 -0.8178
   7723SM   H1T10135   1.929   4.705  17.663  0.0844  0.3591  1.3362
   7723SM    NF10136   1.884   4.791  17.412 -0.7974 -0.4307 -0.4273
   7723SM   HNF10137   1.941   4.711  17.394  1.0548  0.7486 -0.1396
   7723SM   C2S10138   1.942   4.865  17.521 -0.1291  0.1238  0.1144
   7723SM   H2S10139   1.918   4.973  17.510  0.8351  0.1723 -1.9740
   7723SM   C3S10140   2.097   4.843  17.540 -0.1180 -0.5342  0.1902
   7723SM   H3S10141   2.111   4.734  17.556  0.0957 -0.2095  2.6145
   7723SM    O310142   2.156   4.916  17.648  0.8203 -0.0046  0.6640
   7723SM   HO310143   2.086   4.936  17.710  1.5073  1.4906  0.9918
   7723SM   C4S10144   2.159   4.895  17.410  0.7874  0.0180  0.0956
   7723SM   H4S10145   2.193   4.999  17.421  0.4781 -0.0339  1.8572
   7723SM   C5S10146   2.195   4.812  17.310 -0.0063 -0.4620 -0.3083
   7723SM   H5S10147   2.189   4.703  17.322 -1.2270 -0.6679 -2.2665
   7723SM   C6S10148   2.268   4.848  17.181  0.1959  0.0575  0.5780
   7723SM   H6S10149   2.362   4.789  17.169  0.5832  0.8920 -0.7739
   7723SM   H6T10150   2.284   4.958  17.176  1.7718 -0.0905  1.6009
   7723SM   C7S10151   2.178   4.822  17.055  0.0838  1.1716 -0.1680
   7723SM   H7S10152   2.224   4.852  16.958 -2.9894 -0.8318 -2.4340
   7723SM   H7T10153   2.087   4.885  17.063  1.4532  3.2330  0.0304
   7723SM   C8S10154   2.143   4.673  17.035  0.0456  0.2966  0.3406
   7723SM   H8S10155   2.102   4.644  17.134 -0.6417  1.5609  0.4438
   7723SM   H8T10156   2.232   4.609  17.016 -0.9333 -0.9855 -0.1169
   7723SM   C9S10157   2.037   4.648  16.925  0.5894 -0.8220 -0.1229
   7723SM   H9S10158   2.062   4.708  16.835 -0.5345  0.3988  0.3380
   7723SM   H9T10159   1.939   4.689  16.958  0.3608 -0.0878 -1.6665
   7723SM  C10S10160   2.014   4.502  16.886 -0.1090 -0.9853  0.2934
   7723SM  H10S10161   1.925   4.502  16.819  0.3592 -0.7582 -0.3347
   7723SM  H10T10162   1.983   4.449  16.978  1.8599 -0.0717  1.5340
   7723SM  C11S10163   2.121   4.430  16.809  0.4610 -0.1549  0.1800
   7723SM  H11S10164   2.219   4.447  16.858  0.3544 -0.4846  0.5014
   7723SM  H11T10165   2.124   4.468  16.704  1.5173  0.3041  0.3602
   7723SM  C12S10166   2.108   4.277  16.807  0.0460 -0.1674  0.2588
   7723SM  H12S10167   2.011   4.248  16.762 -0.3892  0.3149  0.8757
   7723SM  H12T10168   2.096   4.244  16.912 -0.1192 -2.0324 -0.3103
   7723SM  C13S10169   2.220   4.202  16.733  0.7622  0.1298  0.6159
   7723SM  H13S10170   2.219   4.091  16.740 -1.5656 -0.3315 -3.7949
   7723SM  H13T10171   2.318   4.234  16.775  1.9705  0.1801 -2.0658
   7723SM  C14S10172   2.236   4.246  16.583  0.1125  0.2057 -0.5676
   7723SM  H14S10173   2.268   4.352  16.586  0.8391 -0.0210  1.5995
   7723SM  H14T10174   2.141   4.251  16.526 -2.1248  3.1103  3.0229
   7723SM  C15S10175   2.353   4.175  16.516 -0.1705 -0.6626  0.1581
   7723SM  H15S10176   2.391   4.097  16.585  1.0192 -0.6147 -0.4033
   7723SM  H15T10177   2.447   4.235  16.513 -0.7084  0.2435  1.0903
   7723SM  C16S10178   2.312   4.116  16.378  0.0153  0.2712 -0.9558
   7723SM  H16S10179   2.282   4.199  16.311  1.7125  1.7593  0.0372
   7723SM  H16T10180   2.223   4.050  16.389  1.2299 -1.3033 -0.0141
   7723SM  C17S10181   2.416   4.027  16.315 -0.3560  0.1522  0.3216
   7723SM  H17S10182   2.434   3.924  16.353  2.4941  0.7122  0.6956
   7723SM  H17T10183   2.505   4.091  16.329 -1.2695  1.2521  1.3567
   7723SM  C18S10184   2.377   4.016  16.169 -0.2165 -0.4686  0.4117
   7723SM  H18S10185   2.361   4.120  16.135 -5.0271 -0.5062  1.8202
   7723SM  H18T10186   2.287   3.951  16.164 -0.6899  0.0725  1.6482
   7723SM  H18U10187   2.459   3.961  16.117 -0.6460 -0.7557  0.0355
   7723SM   C1F10188   1.769   4.820  17.349 -0.2871 -0.1386 -0.8188
   7723SM    OF10189   1.703   4.920  17.377 -0.0669  0.3075  0.8687
   7723SM   C2F10190   1.736   4.729  17.239 -0.1684 -0.0077 -0.7084
   7723SM   H2F10191   1.640   4.680  17.268  1.3156 -2.2889  0.6496
   7723SM   H2G10192   1.810   4.646  17.232  0.9972  1.0468 -1.2895
   7723SM   C3F10193   1.723   4.797  17.110  0.1517  0.5773  1.0313
   7723SM   H3F10194   1.821   4.838  17.075  0.0912 -0.3390 -0.3291
   7723SM   H3G10195   1.662   4.890  17.111 -0.6430  0.0719  0.4930
   7723SM   C4F10196   1.659   4.699  17.008 -0.4948  0.2148  0.2430
   7723SM   H4F10197   1.554   4.673  17.034 -0.4639 -1.0760 -0.7846
   7723SM   H4G10198   1.703   4.598  17.021 -0.1639  0.3908  0.4965
   7723SM   C5F10199   1.671   4.748  16.860  0.0471  0.2700 -0.1136
   7723SM   H5F10200   1.780   4.762  16.842  0.1106 -0.3981 -0.2571
   7723SM   H5G10201   1.629   4.850  16.843 -1.1832 -0.3748 -1.0572
   7723SM   C6F10202   1.611   4.662  16.748 -0.6219 -0.2229 -0.5829
   7723SM   H6F10203   1.508   4.701  16.732  0.5584  3.9496  0.7889
   7723SM   H6G10204   1.612   4.555  16.777 -1.0525 -0.5367 -1.6465
   7723SM   C7F10205   1.685   4.674  16.607  0.2206  0.5971  0.2777
   7723SM   H7F10206   1.777   4.612  16.608  0.5007  0.8984 -1.9505
   7723SM   H7G10207   1.712   4.782  16.597  0.3246  0.8669  2.8290
   7723SM   C8F10208   1.596   4.630  16.484 -0.1766 -0.5547 -0.2110
   7723SM   H8F10209   1.506   4.694  16.494 -1.7565 -2.6707 -0.1433
   7723SM   H8G10210   1.566   4.524  16.498 -1.8692 -0.0094  0.5562
   7723SM   C9F10211   1.662   4.665  16.355 -0.4366  0.9681 -0.3047
   7723SM   H9F10212   1.755   4.604  16.348  0.1665  1.7153  0.8156
   7723SM   H9G10213   1.683   4.773  16.344  0.6800  1.2990  3.5635
   7723SM  C10F10214   1.568   4.608  16.246 -0.2847 -0.2295 -0.5824
   7723SM  H10F10215   1.466   4.645  16.268  0.1570 -1.0496  3.8541
   7723SM  H10G10216   1.549   4.500  16.258 -0.6217 -0.1862 -0.7122
   7723SM  C11F10217   1.607   4.631  16.101 -0.0540  0.4116  0.6154
   7723SM  H11F10218   1.698   4.574  16.073 -0.2871 -0.6036  1.8836
   7723SM  H11G10219   1.629   4.738  16.080  2.3131  0.2270  1.8386
   7723SM  C12F10220   1.490   4.601  16.008  0.1998 -0.3509  0.8128
   7723SM  H12F10221   1.391   4.631  16.048 -0.1079  2.2455 -1.6139
   7723SM  H12G10222   1.484   4.492  15.988 -0.8747  0.1160 -1.7084
   7723SM  C13F10223   1.514   4.662  15.871 -0.2806  0.1040  0.6014
   7723SM  H13F10224   1.606   4.621  15.824 -1.1563 -1.5128  0.2514
   7723SM  H13G10225   1.513   4.773  15.874 -0.8983  0.2404 -2.2382
   7723SM  C14F10226   1.406   4.631  15.768 -0.0306 -0.0019  0.5656
   7723SM  H14F10227   1.315   4.691  15.791  0.6670  1.1313  0.4732
   7723SM  H14G10228   1.375   4.525  15.771 -1.8083  0.3944 -1.0987
   7723SM  C15F10229   1.440   4.654  15.621  0.7377 -0.4897  0.3480
   7723SM  H15F10230   1.530   4.601  15.582  0.1817 -0.7685 -0.5907
   7723SM  H15G10231   1.448   4.762  15.594 -1.7320 -0.2154  0.5018
   7723SM  C16F10232   1.336   4.610  15.525  0.4030  0.3785 -0.1189
   7723SM  H16F10233   1.327   4.501  15.541  1.2659  0.3628  0.3301
   7723SM  H16G10234   1.368   4.620  15.419 -2.6295  3.7532 -0.9167
   7723SM  C17F10235   1.195   4.674  15.543 -0.1980  0.3216 -0.1508
   7723SM  H17F10236   1.196   4.784  15.553  0.5998  0.2627  0.6383
   7723SM  H17G10237   1.143   4.639  15.635  1.2975  2.9235  1.8096
   7723SM  C18F10238   1.101   4.649  15.425 -0.3344  0.8783 -0.6036
   7723SM  H18F10239   1.098   4.538  15.423 -0.3390  0.8784 -0.5849
   7723SM  H18G10240   1.145   4.689  15.331 -1.4833 -1.9228 -2.4338
   7723SM  C19F10241   0.957   4.694  15.450  0.1378  0.3874 -0.4082
   7723SM  H19F10242   0.956   4.805  15.460 -1.0970  0.3642 -0.0574
   7723SM  H19G10243   0.935   4.675  15.557  0.3654  0.7317 -0.2992
   7723SM  C20F10244   0.856   4.626  15.364 -0.3623 -0.1478  0.0028
   7723SM  H20F10245   0.856   4.518  15.392  0.2456  0.1396  1.1332
   7723SM  H20G10246   0.876   4.636  15.255  0.7850 -1.9967 -0.0057
   7723SM  C21F10247   0.714   4.685  15.390 -0.0557 -1.5077 -0.4182
   7723SM  H21F10248   0.715   4.709  15.498  3.1068 -0.1843 -0.6310
   7723SM  H21G10249   0.624   4.622  15.373 -1.0759 -0.6565  1.5009
   7723SM  C22F10250   0.692   4.821  15.318 -0.3550 -0.5702 -0.0821
   7723SM  H22F10251   0.730   4.814  15.214 -3.1860  2.3640 -1.5085
   7723SM  H22G10252   0.749   4.906  15.359  0.7654 -0.6328 -1.4368
   7723SM  C23F10253   0.543   4.855  15.315  0.1592 -0.0052 -0.4616
   7723SM  H23F10254   0.506   4.856  15.419  2.4491 -2.5582  0.4911
   7723SM  H23G10255   0.482   4.795  15.244 -0.3932  0.3392 -0.2832
   7723SM  H23H10256   0.518   4.956  15.276 -1.6175 -0.9805 -2.0937
   7823SM     N10257   2.385   4.108  18.058 -0.2046  0.1531 -0.6191
   7823SM   C1510258   2.517   4.094  18.127 -0.5365  0.7213 -0.0632
   7823SM  H15A10259   2.578   4.015  18.086 -0.4686 -0.5381  2.2927
   7823SM  H15B10260   2.509   4.059  18.229  0.3252  0.1466 -0.1838
   7823SM  H15C10261   2.573   4.186  18.130  1.0904 -0.1540 -2.0403
   7823SM   C1410262   2.326   3.973  18.035  0.9891  0.2942 -0.3186
   7823SM  H14A10263   2.276   3.932  18.121  3.7401 -1.7424  0.4519
   7823SM  H14B10264   2.401   3.908  17.994  1.9550 -0.5018  2.5268
   7823SM  H14C10265   2.242   3.987  17.967 -0.8030 -1.8625  1.3122
   7823SM   C1310266   2.300   4.192  18.151  0.3581 -0.1322 -0.5333
   7823SM  H13A10267   2.351   4.277  18.193  0.0587 -0.0871 -0.2620
   7823SM  H13B10268   2.273   4.138  18.240  0.3624  1.4192  0.4445
   7823SM  H13C10269   2.210   4.232  18.105 -0.1466  1.3364  1.6124
   7823SM   C1210270   2.398   4.184  17.925 -0.1284  0.4795 -0.4375
   7823SM  H12A10271   2.442   4.283  17.929 -0.0191  0.4504 -0.8563
   7823SM  H12B10272   2.304   4.206  17.877 -0.2405  1.9240  0.3791
   7823SM   C1110273   2.483   4.107  17.819 -0.1246 -0.0097 -0.1257
   7823SM  H11A10274   2.491   4.176  17.732  1.1670  3.2699  2.4034
   7823SM  H11B10275   2.434   4.017  17.776  2.5280 -0.5773 -2.2271
   7823SM     P10276   2.728   4.198  17.827 -0.1804 -0.4129  0.2528
   7823SM   O1310277   2.668   4.331  17.847  0.1875  0.0238  0.4973
   7823SM   O1410278   2.857   4.178  17.891 -0.2005  0.7421 -0.5265
   7823SM   O1110279   2.750   4.181  17.672 -0.5995 -0.1181  0.4621
   7823SM   O1210280   2.620   4.085  17.862 -0.1143  0.0672  0.1242
   7823SM   C1S10281   2.798   4.062  17.614 -0.1618  0.0002 -0.9976
   7823SM   H1S10282   2.721   3.987  17.641  0.8603 -0.6259  0.3277
   7823SM   H1T10283   2.895   4.024  17.653 -0.7614 -2.4063 -1.6631
   7823SM    NF10284   2.798   3.958  17.381 -0.7837 -0.1239  0.0832
   7823SM   HNF10285   2.878   3.928  17.330 -1.4796 -1.8638 -0.0524
   7823SM   C2S10286   2.791   4.083  17.459  0.2325 -0.2401  0.1255
   7823SM   H2S10287   2.690   4.125  17.440  0.5108  0.4857  0.1873
   7823SM   C3S10288   2.897   4.189  17.420  0.0843 -0.0293 -0.2361
   7823SM   H3S10289   2.994   4.143  17.450 -0.4411 -0.9053  0.1350
   7823SM    O310290   2.882   4.319  17.485 -0.3203 -0.5800  0.1771
   7823SM   HO310291   2.830   4.300  17.563 -0.6039 -1.0357 -0.1161
   7823SM   C4S10292   2.906   4.211  17.269 -0.7743 -0.0102 -0.1096
   7823SM   H4S10293   2.814   4.201  17.210 -0.3572  1.7664 -1.1386
   7823SM   C5S10294   3.020   4.233  17.201 -0.3905  0.2551  0.1463
   7823SM   H5S10295   3.115   4.234  17.256  0.5716  0.3628 -1.4481
   7823SM   C6S10296   3.024   4.260  17.053  0.3872 -0.4943 -0.4639
   7823SM   H6S10297   3.094   4.182  17.015 -0.3963 -0.3641 -2.2850
   7823SM   H6T10298   3.064   4.361  17.030 -2.5722  0.5941 -1.3226
   7823SM   C7S10299   2.899   4.247  16.963  0.6463 -0.2485  0.3214
   7823SM   H7S10300   2.831   4.335  16.961 -1.5372 -1.8158 -1.9179
   7823SM   H7T10301   2.841   4.161  17.003  1.3915 -1.7248 -1.6128
   7823SM   C8S10302   2.941   4.215  16.815  0.1273  0.3530  0.2375
   7823SM   H8S10303   3.003   4.123  16.810  0.8587  0.6264  2.9528
   7823SM   H8T10304   2.991   4.304  16.771 -0.2326  0.8111  0.7435
   7823SM   C9S10305   2.823   4.194  16.713 -0.0666  0.4565 -0.5355
   7823SM   H9S10306   2.748   4.274  16.733 -1.0813 -0.3092 -1.2207
   7823SM   H9T10307   2.788   4.089  16.720 -0.0656  0.5437  1.1667
   7823SM  C10S10308   2.871   4.226  16.574 -0.3996 -0.3182  0.4615
   7823SM  H10S10309   2.969   4.175  16.566 -0.0897  0.3221  0.1434
   7823SM  H10T10310   2.860   4.336  16.566  0.1312 -0.3078 -0.1513
   7823SM  C11S10311   2.781   4.171  16.463 -0.8195 -0.9186 -0.2257
   7823SM  H11S10312   2.674   4.193  16.482 -1.1660 -2.0730 -0.7319
   7823SM  H11T10313   2.785   4.062  16.444 -1.4355 -0.6936 -1.7863
   7823SM  C12S10314   2.831   4.237  16.330 -0.6011 -0.0843 -0.3569
   7823SM  H12S10315   2.937   4.212  16.307 -0.5467 -0.8620  0.6738
   7823SM  H12T10316   2.828   4.347  16.338 -0.4226  0.2054 -3.1747
   7823SM  C13S10317   2.736   4.211  16.213  0.5037  0.0348 -0.3372
   7823SM  H13S10318   2.635   4.243  16.246  0.7594 -1.2305  1.8378
   7823SM  H13T10319   2.745   4.105  16.184 -1.5887 -0.1775 -0.3656
   7823SM  C14S10320   2.782   4.282  16.082 -0.7391 -0.3038 -0.1455
   7823SM  H14S10321   2.883   4.246  16.053 -0.0869 -0.3974  2.0822
   7823SM  H14T10322   2.803   4.390  16.098 -0.1956 -0.2859 -0.9413
   7823SM  C15S10323   2.682   4.272  15.965  0.1945  0.7793  0.5131
   7823SM  H15S10324   2.737   4.319  15.881  0.7774 -0.3334  0.2684
   7823SM  H15T10325   2.588   4.325  15.990 -0.1579 -0.6637  2.5068
   7823SM  C16S10326   2.661   4.131  15.916 -0.7811 -0.1730  0.5312
   7823SM  H16S10327   2.605   4.067  15.987 -0.2026  0.1506  1.2929
   7823SM  H16T10328   2.765   4.090  15.909 -0.3066  1.1990 -1.0487
   7823SM  C17S10329   2.602   4.114  15.769  0.0482  0.2366 -0.0543
   7823SM  H17S10330   2.597   4.007  15.739  1.3311 -0.3537  1.6816
   7823SM  H17T10331   2.682   4.148  15.699 -1.0890  1.9962 -0.5840
   7823SM  C18S10332   2.471   4.180  15.738  0.0183 -0.0457 -0.7905
   7823SM  H18S10333   2.388   4.149  15.804  0.4602 -0.0084 -0.2135
   7823SM  H18T10334   2.430   4.153  15.638 -0.2863  0.6098 -0.8482
   7823SM  H18U10335   2.472   4.291  15.745 -1.5224 -0.0918  0.7068
   7823SM   C1F10336   2.694   3.875  17.376  0.3950  0.0318  0.3911
   7823SM    OF10337   2.595   3.887  17.449 -0.6366 -0.5483 -0.0558
   7823SM   C2F10338   2.720   3.765  17.278  0.5584  0.0434  0.0055
   7823SM   H2F10339   2.679   3.683  17.341  0.3615  0.7751  0.8549
   7823SM   H2G10340   2.827   3.740  17.269  0.3814 -0.7295 -0.0339
   7823SM   C3F10341   2.651   3.787  17.142  0.4221 -0.6198  0.4211
   7823SM   H3F10342   2.541   3.800  17.154  0.3169 -1.6011  0.6488
   7823SM   H3G10343   2.669   3.695  17.083  4.1492  0.7777 -0.8518
   7823SM   C4F10344   2.715   3.889  17.057 -0.5317 -0.2774 -0.3262
   7823SM   H4F10345   2.823   3.888  17.085 -0.3426  0.6333 -0.9428
   7823SM   H4G10346   2.680   3.993  17.073 -0.3006 -0.2537  0.0255
   7823SM   C5F10347   2.712   3.844  16.907  0.5615 -0.2846 -0.1496
   7823SM   H5F10348   2.735   3.736  16.895  1.4095 -0.0142 -1.1228
   7823SM   H5G10349   2.778   3.913  16.849  1.3250 -0.2713  0.7271
   7823SM   C6F10350   2.565   3.854  16.846 -0.2577 -0.1623 -0.0357
   7823SM   H6F10351   2.532   3.960  16.838  1.0467  0.1855 -1.2043
   7823SM   H6G10352   2.498   3.813  16.925 -1.8881  2.4108  0.0013
   7823SM   C7F10353   2.552   3.779  16.715  0.0662 -0.2827 -0.1725
   7823SM   H7F10354   2.449   3.796  16.678  0.1256  0.7467  0.1099
   7823SM   H7G10355   2.559   3.671  16.738 -0.5518 -0.7317 -1.9005
   7823SM   C8F10356   2.658   3.804  16.610  0.5634 -0.0346  0.0573
   7823SM   H8F10357   2.760   3.788  16.651  0.9796 -0.2655 -1.0367
   7823SM   H8G10358   2.660   3.906  16.568  1.4298 -0.8115 -1.9135
   7823SM   C9F10359   2.632   3.732  16.472 -0.0728 -0.5107  0.1950
   7823SM   H9F10360   2.532   3.760  16.435  0.1992 -1.2364 -1.1679
   7823SM   H9G10361   2.617   3.625  16.498  1.7418 -1.0841 -0.8664
   7823SM  C10F10362   2.738   3.743  16.364 -0.2481  0.2528  0.2834
   7823SM  H10F10363   2.821   3.673  16.386 -1.0423 -1.2779 -1.3773
   7823SM  H10G10364   2.770   3.850  16.361  0.9491 -0.0991  0.0882
   7823SM  C11F10365   2.677   3.726  16.219 -0.2849 -0.4528 -0.2716
   7823SM  H11F10366   2.631   3.823  16.189 -1.1396 -0.6972  0.2020
   7823SM  H11G10367   2.596   3.650  16.207 -1.4514  0.8379 -0.8350
   7823SM  C12F10368   2.780   3.695  16.106  0.3664 -0.2684  0.1518
   7823SM  H12F10369   2.729   3.702  16.007 -0.9137  1.5300  0.8850
   7823SM  H12G10370   2.819   3.591  16.105  4.7820  1.1914 -1.2057
   7823SM  C13F10371   2.901   3.783  16.109 -0.2978  0.5094 -0.3817
   7823SM  H13F10372   2.961   3.737  16.190  0.4495 -1.0133 -1.7203
   7823SM  H13G10373   2.862   3.884  16.132 -1.8995  0.1928 -1.5397
   7823SM  C14F10374   2.991   3.774  15.982  0.2384  0.1927  0.0037
   7823SM  H14F10375   3.004   3.669  15.949 -0.2557 -0.8750  2.9175
   7823SM  H14G10376   3.086   3.829  16.000 -1.1152  1.9811  2.4039
   7823SM  C15F10377   2.927   3.854  15.868  0.5022  0.0790  0.2181
   7823SM  H15F10378   2.935   3.962  15.895 -0.6385  0.3653 -0.5382
   7823SM  H15G10379   2.817   3.842  15.864  0.2722  0.9794  2.3677
   7823SM  C16F10380   2.998   3.832  15.732 -0.2447  0.0070  0.6411
   7823SM  H16F10381   3.016   3.722  15.723  1.5277  0.3171  0.0071
   7823SM  H16G10382   3.097   3.883  15.735  0.2477 -0.9629  1.5037
   7823SM  C17F10383   2.911   3.875  15.612 -0.8824  0.0678 -0.5387
   7823SM  H17F10384   2.972   3.930  15.537 -0.6671 -0.3103 -0.6486
   7823SM  H17G10385   2.840   3.950  15.652 -1.4094 -0.0704 -1.1999
   7823SM  C18F10386   2.824   3.772  15.538 -0.0567 -0.1014  0.5175
   7823SM  H18F10387   2.879   3.699  15.475  0.1574 -1.0673  1.7934
   7823SM  H18G10388   2.747   3.820  15.474 -1.0305 -1.0094  0.9585
   7823SM  C19F10389   2.730   3.690  15.634 -0.6725 -0.4102 -0.1255
   7823SM  H19F10390   2.665   3.760  15.691 -1.2588 -2.7597  2.3374
   7823SM  H19G10391   2.791   3.632  15.708  0.8757 -1.7479 -2.3149
   7823SM  C20F10392   2.626   3.596  15.559  0.2538  0.3467 -1.0619
   7823SM  H20F10393   2.568   3.665  15.495  0.1916  1.0946 -0.2238
   7823SM  H20G10394   2.567   3.559  15.646  0.3475 -0.8853 -1.4999
   7823SM  C21F10395   2.688   3.469  15.495 -0.9250 -0.3650  0.0935
   7823SM  H21F10396   2.750   3.409  15.566  2.5931 -0.7836 -3.0175
   7823SM  H21G10397   2.754   3.497  15.410  0.1774 -0.7471  0.7995
   7823SM  C22F10398   2.584   3.376  15.430  0.1409  0.1946  0.9028
   7823SM  H22F10399   2.538   3.433  15.347 -0.5420  1.2515  1.9822
   7823SM  H22G10400   2.511   3.351  15.509 -0.7880  2.2247  0.7398
   7823SM  C23F10401   2.629   3.237  15.373 -0.5011  0.0993 -0.0023
   7823SM  H23F10402   2.705   3.190  15.439  1.0423  2.5538  0.0779
   7823SM  H23G10403   2.682   3.251  15.276 -0.6391  1.0231  0.0476
   7823SM  H23H10404   2.538   3.175  15.354 -0.4220 -0.4018  1.1980
   7923SM     N10405   6.097   3.884  18.136 -0.2260  0.0278 -0.3272
   7923SM   C1510406   6.015   4.002  18.097  0.5715  0.4032 -0.5324
   7923SM  H15A10407   6.066   4.092  18.126 -1.9405  1.6838  0.2597
   7923SM  H15B10408   5.919   3.994  18.146  1.7080 -0.6342  1.6309
   7923SM  H15C10409   6.000   4.015  17.990 -2.0471  0.0838 -0.2770
   7923SM   C1410410   6.221   3.874  18.064  0.1449  0.5052 -0.7356
   7923SM  H14A10411   6.197   3.872  17.959  1.1601  0.5768 -0.9768
   7923SM  H14B10412   6.283   3.793  18.097  1.3189  1.2371 -1.0689
   7923SM  H14C10413   6.285   3.958  18.090 -0.4432  1.3968 -2.0430
   7923SM   C1310414   6.129   3.900  18.283 -0.7503 -0.1651  0.2938
   7923SM  H13A10415   6.041   3.901  18.346 -0.0233 -0.2061  1.3478
   7923SM  H13B10416   6.163   4.001  18.304 -0.7238 -0.3960  1.4752
   7923SM  H13C10417   6.200   3.829  18.325  0.0191  0.8068  0.6828
   7923SM   C1210418   6.014   3.753  18.110  0.4188  0.1069  0.2502
   7923SM  H12A10419   5.936   3.749  18.185  0.4674  0.7818  0.3422
   7923SM  H12B10420   6.078   3.670  18.134 -0.8228 -0.9039  0.1865
   7923SM   C1110421   5.949   3.717  17.972  0.9341 -0.1455 -0.5522
   7923SM  H11A10422   5.904   3.616  17.983 -0.6021  0.6437  0.8964
   7923SM  H11B10423   6.029   3.708  17.895  1.4139  0.2611 -0.1064
   7923SM     P10424   5.719   3.831  18.005 -0.3504  0.0170  0.2245
   7923SM   O1310425   5.676   3.698  18.057 -0.8506  0.4049 -0.6776
   7923SM   O1410426   5.726   3.936  18.105 -0.1858 -0.4564 -0.0981
   7923SM   O1110427   5.630   3.872  17.887 -0.3341  0.0788 -0.3368
   7923SM   O1210428   5.858   3.820  17.929  0.0614 -0.2069 -0.0389
   7923SM   C1S10429   5.633   4.002  17.834  0.0157 -0.2147  0.1474
   7923SM   H1S10430   5.737   4.041  17.827  0.8845 -2.1085  1.6556
   7923SM   H1T10431   5.568   4.071  17.893 -0.4534 -0.1679 -0.4144
   7923SM    NF10432   5.603   4.099  17.613  0.1138  0.7481  0.5790
   7923SM   HNF10433   5.552   4.185  17.621  1.6420  1.5956  2.0384
   7923SM   C2S10434   5.563   3.992  17.694 -0.1308 -0.1580 -0.9953
   7923SM   H2S10435   5.594   3.904  17.634 -1.4224 -0.3407 -1.4308
   7923SM   C3S10436   5.410   3.973  17.702 -0.9871  0.2508  0.3653
   7923SM   H3S10437   5.372   4.064  17.753 -0.9355  0.4044  0.1298
   7923SM    O310438   5.382   3.866  17.785 -0.5530 -0.2858  0.3015
   7923SM   HO310439   5.462   3.854  17.836 -1.2057 -1.3296  1.1367
   7923SM   C4S10440   5.360   3.949  17.570  0.4817  0.1950  0.5436
   7923SM   H4S10441   5.381   3.847  17.533 -1.7006 -1.0765  2.5885
   7923SM   C5S10442   5.273   4.031  17.508 -0.1393  0.0347 -0.1100
   7923SM   H5S10443   5.232   4.125  17.548 -1.0623 -0.3278 -0.1799
   7923SM   C6S10444   5.206   4.002  17.376 -0.4578 -0.2282  0.0736
   7923SM   H6S10445   5.096   4.001  17.388 -0.3615 -0.0389  1.1500
   7923SM   H6T10446   5.226   3.898  17.344  1.4503  0.4207 -1.0253
   7923SM   C7S10447   5.245   4.104  17.263  0.4746  0.5774 -0.2119
   7923SM   H7S10448   5.356   4.106  17.255  0.6733  1.4409  2.0617
   7923SM   H7T10449   5.207   4.205  17.289 -0.4241  0.0277  0.6726
   7923SM   C8S10450   5.183   4.070  17.130 -0.3426 -0.4921  0.6406
   7923SM   H8S10451   5.074   4.071  17.150 -0.0169  0.2352  2.5599
   7923SM   H8T10452   5.214   3.967  17.101  0.7902  0.0010  0.0333
   7923SM   C9S10453   5.223   4.162  17.006 -0.1729 -0.3824 -0.2800
   7923SM   H9S10454   5.327   4.198  17.020  0.3663 -2.2358  0.9022
   7923SM   H9T10455   5.154   4.249  16.997  1.0395  0.8497  1.6246
   7923SM  C10S10456   5.206   4.088  16.871 -0.3772  0.0116 -0.6684
   7923SM  H10S10457   5.106   4.042  16.854 -0.2092 -0.6992  0.2000
   7923SM  H10T10458   5.275   4.001  16.875  0.7605  0.7890 -2.3581
   7923SM  C11S10459   5.245   4.179  16.749  0.9045 -0.4442 -0.0728
   7923SM  H11S10460   5.354   4.193  16.755  1.1145 -1.1996 -1.4537
   7923SM  H11T10461   5.200   4.279  16.763  0.3323 -0.9758  2.3599
   7923SM  C12S10462   5.200   4.119  16.615 -0.3243 -0.4119 -0.5493
   7923SM  H12S10463   5.089   4.119  16.617 -0.3489 -1.4184 -1.3999
   7923SM  H12T10464   5.232   4.013  16.604 -0.3588 -0.5031  0.1798
   7923SM  C13S10465   5.249   4.204  16.496  0.4743  0.0345 -0.4186
   7923SM  H13S10466   5.341   4.165  16.448  0.8059  1.5601 -1.0844
   7923SM  H13T10467   5.274   4.307  16.531  1.4450 -0.4182  0.2965
   7923SM  C14S10468   5.135   4.217  16.399 -0.6969 -0.2342 -0.7596
   7923SM  H14S10469   5.049   4.262  16.453  1.4486  0.0223  2.7041
   7923SM  H14T10470   5.095   4.116  16.372 -0.3228 -1.5465  3.0102
   7923SM  C15S10471   5.175   4.282  16.266  0.0102  0.1658  0.2366
   7923SM  H15S10472   5.256   4.220  16.223  2.0111  1.1149  2.4288
   7923SM  H15T10473   5.218   4.383  16.280 -2.8128  1.6666 -0.9660
   7923SM  C16S10474   5.047   4.292  16.175  0.1074 -0.4401 -0.3083
   7923SM  H16S10475   4.978   4.372  16.210 -1.4804 -1.3665 -1.2262
   7923SM  H16T10476   4.990   4.197  16.181 -5.4587  2.4821 -0.3385
   7923SM  C17S10477   5.072   4.336  16.033  0.1362  0.4174  0.1700
   7923SM  H17S10478   4.975   4.364  15.985 -0.3558  1.8996  1.9040
   7923SM  H17T10479   5.121   4.252  15.979  0.7214  1.2516 -0.6233
   7923SM  C18S10480   5.169   4.461  16.025  0.7792  0.5470 -0.6731
   7923SM  H18S10481   5.124   4.551  16.072  0.3166  0.0917 -0.2290
   7923SM  H18T10482   5.195   4.490  15.921  0.6674  0.0824 -0.8301
   7923SM  H18U10483   5.265   4.439  16.076  0.3957  1.4601  0.4843
   7923SM   C1F10484   5.729   4.122  17.576 -0.0497 -0.2279 -0.2315
   7923SM    OF10485   5.821   4.046  17.609  0.3434  0.0492 -0.6074
   7923SM   C2F10486   5.740   4.237  17.483 -0.0990 -0.2603 -0.2916
   7923SM   H2F10487   5.764   4.320  17.553  0.0558 -0.2650 -0.3380
   7923SM   H2G10488   5.645   4.262  17.432  1.0309 -0.0060 -2.3740
   7923SM   C3F10489   5.851   4.236  17.375  0.5167  0.0568  0.1846
   7923SM   H3F10490   5.831   4.152  17.305 -0.2798  0.4644 -0.0887
   7923SM   H3G10491   5.947   4.201  17.418  0.1793  0.9043  1.6883
   7923SM   C4F10492   5.883   4.364  17.304 -0.2413 -0.5287 -0.0523
   7923SM   H4F10493   5.937   4.435  17.370  0.8455 -0.3290 -1.1169
   7923SM   H4G10494   5.791   4.410  17.262 -0.1718  0.1361  0.4998
   7923SM   C5F10495   5.981   4.345  17.185 -0.6741  0.7073 -0.3616
   7923SM   H5F10496   5.936   4.287  17.101 -0.9320 -0.2707  0.4329
   7923SM   H5G10497   6.050   4.281  17.245 -2.3381  0.1643  1.0592
   7923SM   C6F10498   6.044   4.479  17.149 -0.0418  0.5439  0.9860
   7923SM   H6F10499   6.110   4.503  17.236  0.0082  0.2380  1.0311
   7923SM   H6G10500   5.956   4.546  17.139 -0.0358  0.2577 -1.9062
   7923SM   C7F10501   6.121   4.475  17.018 -0.2295  0.3766  0.2842
   7923SM   H7F10502   6.189   4.387  17.016 -1.0099 -0.2477  0.4052
   7923SM   H7G10503   6.187   4.563  17.010  2.2638 -1.1716  2.3991
   7923SM   C8F10504   6.034   4.465  16.889  0.1939 -0.0773  0.3214
   7923SM   H8F10505   5.964   4.551  16.880 -0.5038 -0.3710  2.3359
   7923SM   H8G10506   5.969   4.375  16.886  0.5652 -0.3298 -0.3393
   7923SM   C9F10507   6.121   4.451  16.761  0.2002  0.2047 -0.1452
   7923SM   H9F10508   6.201   4.376  16.778  0.5679  0.8586  1.1202
   7923SM   H9G10509   6.190   4.535  16.736  0.1136  0.3818  0.2040
   7923SM  C10F10510   6.041   4.423  16.635 -0.8216  0.6435  0.5484
   7923SM  H10F10511   5.957   4.495  16.630 -0.9055  0.4348 -1.7430
   7923SM  H10G10512   5.982   4.330  16.625 -1.6743  1.3578 -1.6117
   7923SM  C11F10513   6.130   4.429  16.501  0.4537 -0.0979 -0.7140
   7923SM  H11F10514   6.207   4.350  16.492  2.1960  1.1613  1.8835
   7923SM  H11G10515   6.174   4.529  16.486  0.9984 -0.5820 -2.5821
   7923SM  C12F10516   6.044   4.405  16.373 -0.5487 -0.6443  0.2580
   7923SM  H12F10517   5.957   4.474  16.366 -0.1348 -0.1811 -0.5364
   7923SM  H12G10518   5.996   4.305  16.375  0.4969 -1.1502  0.2646
   7923SM  C13F10519   6.132   4.405  16.241  0.0838 -0.1651  0.0532
   7923SM  H13F10520   6.209   4.326  16.254 -1.7046 -1.7938  1.1303
   7923SM  H13G10521   6.173   4.507  16.223 -1.1781 -0.2070 -4.3430
   7923SM  C14F10522   6.058   4.374  16.110  0.0935  0.0613 -0.3384
   7923SM  H14F10523   5.995   4.460  16.080 -1.0662 -1.0041 -1.0323
   7923SM  H14G10524   5.996   4.283  16.122 -1.0456  0.9819  1.0261
   7923SM  C15F10525   6.163   4.352  16.002  0.2881  0.4264  0.5764
   7923SM  H15F10526   6.200   4.251  16.027  4.1064  1.5524  0.1907
   7923SM  H15G10527   6.246   4.422  16.026 -0.9747  1.4629  2.0967
   7923SM  C16F10528   6.100   4.361  15.862 -0.8458 -0.0932 -0.3160
   7923SM  H16F10529   6.069   4.465  15.841  1.5718  0.3664 -2.2061
   7923SM  H16G10530   6.021   4.286  15.838 -0.7797 -0.1446 -0.3742
   7923SM  C17F10531   6.203   4.326  15.758 -0.5462  0.2456  0.4260
   7923SM  H17F10532   6.153   4.316  15.659  0.9106 -0.1073 -0.2949
   7923SM  H17G10533   6.257   4.233  15.784 -1.3876  0.3082  2.6113
   7923SM  C18F10534   6.300   4.444  15.742 -0.4339 -0.2347  0.4680
   7923SM  H18F10535   6.355   4.454  15.838 -0.5205  0.4206  0.4552
   7923SM  H18G10536   6.260   4.547  15.730 -0.1709  0.3055  3.4044
   7923SM  C19F10537   6.412   4.403  15.646  0.3660  1.0772  0.3352
   7923SM  H19F10538   6.362   4.344  15.566 -1.8289 -0.4341  2.6510
   7923SM  H19G10539   6.480   4.335  15.703  1.1282  1.5580  0.0237
   7923SM  C20F10540   6.493   4.522  15.599  0.1693 -0.3697  0.0111
   7923SM  H20F10541   6.542   4.564  15.690 -0.1489 -0.6036  0.2923
   7923SM  H20G10542   6.421   4.600  15.567 -0.6288 -0.2252  2.0134
   7923SM  C21F10543   6.595   4.486  15.494  0.7947  0.4095 -0.4189
   7923SM  H21F10544   6.545   4.443  15.405 -1.9157 -1.1522  1.6942
   7923SM  H21G10545   6.667   4.407  15.525 -1.0920 -1.3032 -0.2086
   7923SM  C22F10546   6.690   4.594  15.439  0.2412 -0.3891 -0.4059
   7923SM  H22F10547   6.739   4.637  15.529 -2.5300  1.7583  0.2402
   7923SM  H22G10548   6.633   4.681  15.400 -1.1109 -0.7523  0.6960
   7923SM  C23F10549   6.789   4.536  15.343 -0.1688  0.4062 -0.2049
   7923SM  H23F10550   6.739   4.477  15.263  0.7795  0.5028 -0.8880
   7923SM  H23G10551   6.847   4.463  15.404 -1.5331 -0.5578 -0.0056
   7923SM  H23H10552   6.860   4.614  15.310  2.0366 -0.5630  1.9318
   8023SM     N10553   1.592   4.780  18.233 -0.3642 -0.5083 -0.0318
   8023SM   C1510554   1.469   4.856  18.259  0.4795 -0.2695 -0.3023
   8023SM  H15A10555   1.378   4.812  18.220 -1.0787  2.4850 -0.0647
   8023SM  H15B10556   1.462   4.950  18.206  1.4294  0.8246  1.4193
   8023SM  H15C10557   1.456   4.881  18.363 -1.2728  2.1372 -1.0078
   8023SM   C1410558   1.701   4.881  18.270 -0.5578 -0.4051 -0.2265
   8023SM  H14A10559   1.799   4.841  18.248 -0.7601 -1.4210  0.6449
   8023SM  H14B10560   1.688   4.920  18.370  1.9356  2.2130 -0.8019
   8023SM  H14C10561   1.693   4.972  18.212  0.6589 -0.1336  0.0045
   8023SM   C1310562   1.603   4.656  18.319  0.8541  0.0754 -0.1492
   8023SM  H13A10563   1.576   4.690  18.418 -0.2682 -2.2835  0.4029
   8023SM  H13B10564   1.706   4.624  18.314  1.0423 -0.0838  2.8155
   8023SM  H13C10565   1.526   4.584  18.297  0.0761  0.1990  1.8967
   8023SM   C1210566   1.611   4.756  18.084 -0.4336 -0.3558  0.5555
   8023SM  H12A10567   1.633   4.840  18.021  0.5832 -0.4734  0.7243
   8023SM  H12B10568   1.523   4.702  18.052  0.0718 -1.3177  0.7317
   8023SM   C1110569   1.726   4.659  18.049 -0.3401 -0.1841  0.4721
   8023SM  H11A10570   1.816   4.705  18.094  0.3982  0.5551 -1.6317
   8023SM  H11B10571   1.742   4.659  17.939 -0.2851 -0.3458  0.4791
   8023SM     P10572   1.595   4.435  18.038  0.3319  0.7679  0.1188
   8023SM   O1310573   1.616   4.295  18.079 -0.5106 -0.0847 -0.3556
   8023SM   O1410574   1.463   4.496  18.074 -0.2434 -0.0201  0.0420
   8023SM   O1110575   1.614   4.447  17.883  0.7227 -0.1162  0.6048
   8023SM   O1210576   1.709   4.525  18.096 -0.0677  0.6059  0.2584
   8023SM   C1S10577   1.718   4.374  17.820  0.2823  0.1209  0.5226
   8023SM   H1S10578   1.733   4.272  17.859  1.2680  0.2651  0.5566
   8023SM   H1T10579   1.815   4.427  17.830  1.1235 -1.3574  0.5020
   8023SM    NF10580   1.787   4.230  17.617  0.0592 -0.1675 -0.3762
   8023SM   HNF10581   1.879   4.266  17.600  1.2415 -1.6703  2.2373
   8023SM   C2S10582   1.698   4.330  17.667  0.2307  0.3149  0.5790
   8023SM   H2S10583   1.598   4.283  17.659  1.0560 -1.3340 -0.6307
   8023SM   C3S10584   1.698   4.467  17.584  0.5585  0.3810 -0.2804
   8023SM   H3S10585   1.805   4.498  17.589  1.1212 -0.8330 -2.9282
   8023SM    O310586   1.619   4.576  17.633  0.0245  0.1340  0.4002
   8023SM   HO310587   1.591   4.543  17.718 -1.5565 -1.1226 -0.5458
   8023SM   C4S10588   1.658   4.433  17.439  0.4787  0.3594  0.3637
   8023SM   H4S10589   1.747   4.418  17.376  0.3681 -2.0960  0.6890
   8023SM   C5S10590   1.535   4.416  17.375  0.1313  0.7369 -0.5709
   8023SM   H5S10591   1.443   4.426  17.435  1.9288  1.4222  2.3068
   8023SM   C6S10592   1.503   4.380  17.229  0.2805 -0.2055 -0.0945
   8023SM   H6S10593   1.469   4.479  17.191  1.1244  0.0060 -0.3183
   8023SM   H6T10594   1.413   4.315  17.227 -0.7885  1.2302 -2.4471
   8023SM   C7S10595   1.621   4.317  17.145 -0.4276 -0.6150  0.0382
   8023SM   H7S10596   1.659   4.215  17.164  0.7981 -0.6062 -2.1391
   8023SM   H7T10597   1.713   4.377  17.158 -0.5784 -0.6578  1.4979
   8023SM   C8S10598   1.587   4.312  16.995 -0.1092 -0.2225 -0.2485
   8023SM   H8S10599   1.547   4.410  16.963  0.1882  0.2511  0.8056
   8023SM   H8T10600   1.499   4.247  16.972 -0.5039  0.4775 -0.7664
   8023SM   C9S10601   1.706   4.287  16.902 -0.4889  0.4678 -0.0159
   8023SM   H9S10602   1.759   4.196  16.938 -0.2687  0.7394  0.3565
   8023SM   H9T10603   1.789   4.361  16.901 -1.2830  1.4885  2.0828
   8023SM  C10S10604   1.661   4.273  16.758 -0.1890  0.3272 -0.2121
   8023SM  H10S10605   1.602   4.364  16.733  1.1291  0.8546 -1.6064
   8023SM  H10T10606   1.593   4.186  16.745  0.9019 -0.5565 -0.1246
   8023SM  C11S10607   1.772   4.253  16.662 -0.3194 -0.8671  0.9642
   8023SM  H11S10608   1.827   4.160  16.690  1.4669 -0.2273 -0.2503
   8023SM  H11T10609   1.841   4.340  16.662 -0.6483 -0.2853 -4.2550
   8023SM  C12S10610   1.732   4.236  16.511  0.0276  0.0951  0.1066
   8023SM  H12S10611   1.648   4.305  16.487  1.9705  2.5862  0.0005
   8023SM  H12T10612   1.682   4.138  16.493 -1.0234  0.6331 -0.0132
   8023SM  C13S10613   1.849   4.259  16.418  0.4250  0.2332  0.8371
   8023SM  H13S10614   1.934   4.192  16.445  0.7252 -1.0667 -2.8135
   8023SM  H13T10615   1.889   4.363  16.429 -0.0966  0.6067 -0.5891
   8023SM  C14S10616   1.813   4.235  16.270 -0.5084  0.2223  0.0489
   8023SM  H14S10617   1.752   4.318  16.228 -0.7190  0.0645  0.0409
   8023SM  H14T10618   1.747   4.145  16.263 -1.1547  0.5680  1.4340
   8023SM  C15S10619   1.934   4.219  16.173 -0.2331 -0.0654  0.0348
   8023SM  H15S10620   1.892   4.200  16.072 -1.6052  1.2318  0.3255
   8023SM  H15T10621   1.990   4.129  16.205  0.1471  0.4814  0.9466
   8023SM  C16S10622   2.032   4.339  16.165  0.6331  0.7298  0.0174
   8023SM  H16S10623   2.065   4.348  16.271  2.1217 -1.9570 -0.1364
   8023SM  H16T10624   1.965   4.426  16.145  0.0860  0.5859  1.0971
   8023SM  C17S10625   2.147   4.321  16.078  0.7218 -0.3610 -0.2181
   8023SM  H17S10626   2.103   4.287  15.982 -1.2059  0.6464  0.2637
   8023SM  H17T10627   2.206   4.238  16.122  3.5100  0.6171 -1.7872
   8023SM  C18S10628   2.242   4.446  16.069  0.1235 -0.3864  0.2185
   8023SM  H18S10629   2.183   4.525  16.019 -2.1926 -1.1015  1.6668
   8023SM  H18T10630   2.319   4.412  15.995 -0.3045  2.0600 -1.4600
   8023SM  H18U10631   2.288   4.472  16.167 -0.7621 -2.0132  1.1175
   8023SM   C1F10632   1.763   4.100  17.626 -0.2997 -0.0967  0.7816
   8023SM    OF10633   1.664   4.059  17.683 -0.5749 -0.2275 -0.1307
   8023SM   C2F10634   1.864   4.009  17.570  0.1136 -0.3197 -0.4270
   8023SM   H2F10635   1.914   3.948  17.648  0.9795  0.1863 -0.5648
   8023SM   H2G10636   1.942   4.070  17.520  0.3570  0.3493  0.7362
   8023SM   C3F10637   1.794   3.919  17.461 -0.7329  0.4792 -0.0889
   8023SM   H3F10638   1.713   3.863  17.512  0.2581 -0.2660  0.7038
   8023SM   H3G10639   1.875   3.847  17.438 -0.3331  0.7703  0.3873
   8023SM   C4F10640   1.757   3.999  17.335  0.1091  0.2487  0.2996
   8023SM   H4F10641   1.835   4.072  17.304 -0.2293  0.5191  0.0876
   8023SM   H4G10642   1.659   4.049  17.351 -0.0926 -0.7967  2.8685
   8023SM   C5F10643   1.724   3.907  17.211 -0.6133  0.2967  0.6107
   8023SM   H5F10644   1.692   3.979  17.132 -0.5176 -0.6143 -0.2885
   8023SM   H5G10645   1.653   3.824  17.228  0.4014 -0.7974 -0.3337
   8023SM   C6F10646   1.841   3.836  17.146 -0.3043  0.2910  0.0325
   8023SM   H6F10647   1.876   3.758  17.218  1.1799  0.6534 -0.2759
   8023SM   H6G10648   1.933   3.897  17.144 -0.1382  0.0794  0.7761
   8023SM   C7F10649   1.811   3.754  17.021  0.0020 -0.1432 -0.1839
   8023SM   H7F10650   1.719   3.695  17.040 -0.4471  0.3870 -0.6823
   8023SM   H7G10651   1.890   3.680  16.995  1.6238  1.1141  0.9254
   8023SM   C8F10652   1.811   3.842  16.897 -0.0338 -0.4500  0.0252
   8023SM   H8F10653   1.898   3.911  16.891 -0.4227 -0.0070 -0.5937
   8023SM   H8G10654   1.721   3.904  16.915  0.5304  0.1248  0.9050
   8023SM   C9F10655   1.801   3.761  16.768  1.3018  0.5617  1.0225
   8023SM   H9F10656   1.708   3.701  16.778  0.5042  1.5804  0.0415
   8023SM   H9G10657   1.879   3.684  16.752 -2.2902 -3.1124 -0.7250
   8023SM  C10F10658   1.797   3.842  16.641 -0.0297 -0.3304 -0.8571
   8023SM  H10F10659   1.879   3.917  16.644 -0.7099  0.4759  2.8307
   8023SM  H10G10660   1.700   3.894  16.649  0.4719  0.6188 -0.8137
   8023SM  C11F10661   1.809   3.757  16.514  0.5050  0.1185 -0.3290
   8023SM  H11F10662   1.720   3.692  16.503  1.1245 -0.6282 -1.1038
   8023SM  H11G10663   1.898   3.693  16.531  2.1158  2.0350 -1.0789
   8023SM  C12F10664   1.832   3.852  16.397 -0.2658  0.2036 -0.1573
   8023SM  H12F10665   1.936   3.889  16.403 -0.7188  1.3298  2.2837
   8023SM  H12G10666   1.784   3.952  16.410  3.1214  1.7988  1.4085
   8023SM  C13F10667   1.792   3.799  16.259  0.4814 -0.8204 -1.2044
   8023SM  H13F10668   1.681   3.802  16.253  0.1062 -3.8605  1.6131
   8023SM  H13G10669   1.814   3.691  16.265  0.4825 -0.9124 -2.5278
   8023SM  C14F10670   1.858   3.873  16.150 -0.7808 -0.2813 -0.1763
   8023SM  H14F10671   1.968   3.872  16.165 -0.8002 -0.7465 -0.0583
   8023SM  H14G10672   1.824   3.978  16.138  0.0952  0.0031 -0.2845
   8023SM  C15F10673   1.811   3.804  16.015 -0.5941 -0.4692 -0.3988
   8023SM  H15F10674   1.702   3.821  16.006 -0.5137  1.2831  1.1423
   8023SM  H15G10675   1.840   3.697  16.012  2.2164  0.2143 -1.0808
   8023SM  C16F10676   1.863   3.878  15.880 -0.0074 -0.3494 -0.2779
   8023SM  H16F10677   1.973   3.890  15.879 -0.0822  0.5834 -2.1022
   8023SM  H16G10678   1.812   3.975  15.898 -3.4359 -1.8829 -0.8887
   8023SM  C17F10679   1.825   3.809  15.751 -0.4894  0.7354  0.7719
   8023SM  H17F10680   1.720   3.781  15.773  0.5206 -2.9774  1.6505
   8023SM  H17G10681   1.895   3.725  15.732  0.5338  1.8729 -0.6936
   8023SM  C18F10682   1.851   3.909  15.640  0.8183 -0.2507  0.5148
   8023SM  H18F10683   1.952   3.954  15.647  0.4113  0.8681 -0.5332
   8023SM  H18G10684   1.786   3.999  15.648  0.2478 -0.5861 -0.2544
   8023SM  C19F10685   1.836   3.855  15.496  0.2650  0.1348  0.7852
   8023SM  H19F10686   1.738   3.803  15.495 -0.8305  2.1375  0.4105
   8023SM  H19G10687   1.914   3.778  15.477  0.2265  0.2529  0.1608
   8023SM  C20F10688   1.854   3.969  15.392 -0.2129 -0.4517  0.3240
   8023SM  H20F10689   1.950   4.021  15.414  0.3010 -1.1297 -0.2650
   8023SM  H20G10690   1.780   4.050  15.406  1.0706  1.0651 -1.3058
   8023SM  C21F10691   1.860   3.929  15.246  0.3969  0.2471  0.1007
   8023SM  H21F10692   1.768   3.899  15.192  0.3543 -0.1494  0.3962
   8023SM  H21G10693   1.924   3.839  15.231 -0.8431 -0.4384 -1.3381
   8023SM  C22F10694   1.926   4.035  15.153 -0.0817  0.2282 -1.0658
   8023SM  H22F10695   2.036   4.025  15.157 -0.1048 -0.3897 -1.6964
   8023SM  H22G10696   1.899   4.141  15.170  0.0467 -0.0715  1.3567
   8023SM  C23F10697   1.897   4.006  15.000  0.3210  0.0722  0.2006
   8023SM  H23F10698   1.908   3.896  14.986 -0.4231  0.0457 -0.2612
   8023SM  H23G10699   1.969   4.059  14.934 -0.1562 -0.7592 -1.0193
   8023SM  H23H10700   1.797   4.048  14.975  0.5855  0.4396 -0.2529
   8123SM     N10701   2.557   1.394  12.393  0.1807  0.3837  0.3416
   8123SM   C1510702   2.427   1.327  12.358  0.6078 -0.3882  0.2062
   8123SM  H15A10703   2.373   1.367  12.274 -2.2779  0.3622  2.2815
   8123SM  H15B10704   2.362   1.331  12.444  4.6867  0.3247  3.6147
   8123SM  H15C10705   2.440   1.221  12.342  2.0720 -0.2309  0.2099
   8123SM   C1410706   2.670   1.322  12.319  0.0702 -0.1771 -0.7048
   8123SM  H14A10707   2.675   1.220  12.355  1.0959  0.0264 -0.2360
   8123SM  H14B10708   2.768   1.364  12.338 -0.2459  0.0626  0.4343
   8123SM  H14C10709   2.664   1.332  12.211  1.0937  0.1413 -0.7486
   8123SM   C1310710   2.559   1.533  12.358 -0.1880  0.5283  0.5746
   8123SM  H13A10711   2.658   1.575  12.369  1.8203 -2.5150 -3.2889
   8123SM  H13B10712   2.479   1.586  12.406 -0.0549  1.4154 -0.1595
   8123SM  H13C10713   2.542   1.539  12.252  0.3696 -1.0282  0.3702
   8123SM   C1210714   2.582   1.377  12.540 -0.0626 -0.2873  0.1217
   8123SM  H12A10715   2.494   1.418  12.588 -1.3248 -1.4050 -1.1340
   8123SM  H12B10716   2.656   1.446  12.576  1.1734 -2.0379  1.1005
   8123SM   C1110717   2.594   1.239  12.599 -0.3130 -0.3189  0.0863
   8123SM  H11A10718   2.635   1.250  12.702 -0.3972 -1.8849  0.3059
   8123SM  H11B10719   2.676   1.184  12.548  2.1174  1.2686  2.0393
   8123SM     P10720   2.361   1.211  12.696  0.1001 -0.6500 -0.3773
   8123SM   O1310721   2.354   1.358  12.707 -0.0936 -0.0309  0.1033
   8123SM   O1410722   2.238   1.143  12.653 -0.2704  0.5345 -0.8786
   8123SM   O1110723   2.404   1.159  12.844  0.0181  0.1836  0.0086
   8123SM   O1210724   2.476   1.161  12.601  0.1904  0.3154 -0.2760
   8123SM   C1S10725   2.474   1.037  12.888  0.8016 -0.3800  0.5377
   8123SM   H1S10726   2.544   1.010  12.807 -0.5758  1.0728 -1.2260
   8123SM   H1T10727   2.394   0.963  12.911 -0.1465  0.8281  1.2528
   8123SM    NF10728   2.632   0.948  13.053 -0.5607  0.4778  0.5459
   8123SM   HNF10729   2.607   0.880  13.122 -2.0944  0.0714 -0.3392
   8123SM   C2S10730   2.559   1.066  13.018 -0.2543 -0.8965  0.4433
   8123SM   H2S10731   2.625   1.143  12.974 -1.6847 -0.4721 -1.0777
   8123SM   C3S10732   2.465   1.125  13.130  0.1969  0.9315  0.4276
   8123SM   H3S10733   2.415   1.034  13.170  0.4954  1.0725  1.1312
   8123SM    O310734   2.367   1.229  13.100 -0.6023  0.3532  0.1737
   8123SM   HO310735   2.386   1.235  13.006  0.6328  0.5277  0.4169
   8123SM   C4S10736   2.555   1.166  13.246  0.7564 -0.6423  0.0288
   8123SM   H4S10737   2.591   1.087  13.314  0.7742 -1.5003 -0.9540
   8123SM   C5S10738   2.591   1.290  13.284  0.5535  0.9301 -0.1268
   8123SM   H5S10739   2.552   1.368  13.218 -0.1353  2.6021  2.1389
   8123SM   C6S10740   2.677   1.326  13.401 -0.4913  0.6595  0.1415
   8123SM   H6S10741   2.733   1.418  13.375 -0.2172  0.0105 -1.7277
   8123SM   H6T10742   2.754   1.248  13.423 -0.6518  0.1935 -0.9117
   8123SM   C7S10743   2.599   1.345  13.535  0.6093  0.2895 -0.3285
   8123SM   H7S10744   2.543   1.251  13.553 -0.7395  0.8982 -1.1974
   8123SM   H7T10745   2.532   1.433  13.536  0.6032  0.2779  0.5561
   8123SM   C8S10746   2.691   1.354  13.659 -0.5083 -0.1839  0.0151
   8123SM   H8S10747   2.682   1.454  13.706 -0.2511  0.0554 -0.4347
   8123SM   H8T10748   2.793   1.357  13.615 -1.0239  1.4795 -1.1820
   8123SM   C9S10749   2.654   1.253  13.770  0.2530  0.4585  0.3860
   8123SM   H9S10750   2.650   1.148  13.735 -1.1398  0.8101 -0.6100
   8123SM   H9T10751   2.547   1.269  13.798 -0.1255  1.0133 -1.2735
   8123SM  C10S10752   2.743   1.270  13.900 -0.2757 -0.2616  0.1312
   8123SM  H10S10753   2.747   1.375  13.938 -0.2492 -0.8341  1.8054
   8123SM  H10T10754   2.848   1.239  13.878  0.2718  1.5112  0.0547
   8123SM  C11S10755   2.693   1.183  14.018  0.6547  0.1197 -0.0137
   8123SM  H11S10756   2.714   1.075  14.002 -0.2410 -0.2656  1.1875
   8123SM  H11T10757   2.584   1.198  14.034  1.0495  2.0084  1.2704
   8123SM  C12S10758   2.768   1.228  14.143  0.4027 -0.0144 -0.9310
   8123SM  H12S10759   2.725   1.327  14.169  1.4420 -0.3144  2.4090
   8123SM  H12T10760   2.875   1.247  14.122  0.8197 -2.1175 -0.9641
   8123SM  C13S10761   2.729   1.145  14.264 -0.7576 -0.4148 -0.5099
   8123SM  H13S10762   2.762   1.041  14.244  1.3732 -0.2568  1.7087
   8123SM  H13T10763   2.621   1.140  14.291 -0.4436  0.3319  0.9832
   8123SM  C14S10764   2.793   1.197  14.395 -0.4032  0.1068  0.3120
   8123SM  H14S10765   2.792   1.308  14.403  1.6114  0.0688  2.0776
   8123SM  H14T10766   2.896   1.155  14.392  0.1645  1.5207 -1.3642
   8123SM  C15S10767   2.730   1.133  14.518  0.1173 -0.6813  0.6219
   8123SM  H15S10768   2.755   1.025  14.526  0.1089 -0.7610 -0.3237
   8123SM  H15T10769   2.620   1.151  14.524 -0.1745 -0.6353 -2.6101
   8123SM  C16S10770   2.795   1.201  14.638  0.4799  0.1811  0.4194
   8123SM  H16S10771   2.778   1.310  14.634 -1.1185 -0.0574  0.3672
   8123SM  H16T10772   2.906   1.200  14.633  0.6179  0.2418  2.6223
   8123SM  C17S10773   2.745   1.154  14.773  0.4265 -0.0172  0.5340
   8123SM  H17S10774   2.790   1.055  14.794 -0.3559 -0.7692 -1.0898
   8123SM  H17T10775   2.637   1.130  14.775  0.4705 -0.1811  1.9703
   8123SM  C18S10776   2.789   1.242  14.885  0.0963  0.4966  0.0768
   8123SM  H18S10777   2.714   1.323  14.892  0.0950  0.9885 -3.6724
   8123SM  H18T10778   2.890   1.287  14.877  0.5094 -0.2691  0.7778
   8123SM  H18U10779   2.791   1.194  14.985  0.6932  2.2072  0.9193
   8123SM   C1F10780   2.747   0.921  12.989 -0.0794  0.8709 -0.2221
   8123SM    OF10781   2.772   0.978  12.883 -0.4046 -0.0894  0.0074
   8123SM   C2F10782   2.849   0.828  13.041  0.5152  0.0616 -0.5591
   8123SM   H2F10783   2.896   0.779  12.953  1.2257  1.9569 -1.2920
   8123SM   H2G10784   2.799   0.761  13.115 -0.3398  0.2332 -0.9775
   8123SM   C3F10785   2.962   0.907  13.113 -1.0526 -0.3734 -0.6359
   8123SM   H3F10786   3.002   0.979  13.038 -0.8162  1.0988  0.8609
   8123SM   H3G10787   3.042   0.837  13.146  0.7262  1.7704 -0.1836
   8123SM   C4F10788   2.927   0.992  13.233 -0.4261  0.0966  0.4629
   8123SM   H4F10789   2.841   1.058  13.210 -0.7372  0.3190  2.1186
   8123SM   H4G10790   3.011   1.059  13.261 -0.5570  0.8715 -0.9212
   8123SM   C5F10791   2.895   0.910  13.359 -0.1124  0.8615 -0.0744
   8123SM   H5F10792   2.961   0.822  13.375  0.2913  1.1976  0.1226
   8123SM   H5G10793   2.788   0.879  13.356 -0.5053  2.0482  1.0708
   8123SM   C6F10794   2.908   0.995  13.482  0.1861  0.5911 -0.2418
   8123SM   H6F10795   2.849   1.088  13.465  1.3668  1.3662 -0.2330
   8123SM   H6G10796   3.009   1.031  13.509  0.6398 -0.2959 -0.7209
   8123SM   C7F10797   2.856   0.921  13.603  0.3795  0.6802 -0.4528
   8123SM   H7F10798   2.776   0.852  13.566  2.7228 -2.7351  0.3310
   8123SM   H7G10799   2.814   0.996  13.673  0.3853  0.7018 -0.4725
   8123SM   C8F10800   2.957   0.826  13.681 -0.1458 -1.0908 -0.2443
   8123SM   H8F10801   3.038   0.893  13.719 -0.4404 -0.1188 -1.2925
   8123SM   H8G10802   3.016   0.759  13.614  1.4102  0.9650 -1.0452
   8123SM   C9F10803   2.900   0.749  13.805  0.1260  0.0641  0.2123
   8123SM   H9F10804   2.951   0.650  13.799 -0.2091 -0.0489 -1.1060
   8123SM   H9G10805   2.792   0.740  13.780  0.6508 -1.5277 -1.7940
   8123SM  C10F10806   2.914   0.819  13.943 -0.0807 -0.1976 -0.3561
   8123SM  H10F10807   2.858   0.915  13.940 -1.1648 -0.7826  0.2909
   8123SM  H10G10808   3.019   0.849  13.961 -0.1906 -0.0640  0.1045
   8123SM  C11F10809   2.857   0.729  14.053 -0.0024  0.1489  0.0702
   8123SM  H11F10810   2.881   0.621  14.043  1.1403  0.2931  0.9578
   8123SM  H11G10811   2.747   0.731  14.039 -0.1410 -1.8576  0.5373
   8123SM  C12F10812   2.894   0.773  14.198  0.3118 -1.0632  1.0180
   8123SM  H12F10813   2.908   0.884  14.195 -3.0710 -0.5264 -2.1438
   8123SM  H12G10814   3.000   0.739  14.205 -0.3413 -3.6507 -0.6784
   8123SM  C13F10815   2.799   0.736  14.315  0.0651 -0.2775 -0.1417
   8123SM  H13F10816   2.787   0.627  14.300  3.2224 -0.8769  0.8353
   8123SM  H13G10817   2.699   0.783  14.306  1.7212  3.3060 -1.9755
   8123SM  C14F10818   2.862   0.775  14.451 -0.0261  0.2828 -0.0147
   8123SM  H14F10819   2.876   0.885  14.464  0.7541  0.2627 -0.5901
   8123SM  H14G10820   2.969   0.746  14.449 -1.1860 -5.1965  0.9649
   8123SM  C15F10821   2.793   0.700  14.572  0.0425 -0.2365  0.4184
   8123SM  H15F10822   2.824   0.593  14.563  2.3225  0.4638 -1.1566
   8123SM  H15G10823   2.686   0.710  14.545 -0.2149 -1.5736  0.8653
   8123SM  C16F10824   2.819   0.759  14.704 -0.5115  0.0411 -0.1243
   8123SM  H16F10825   2.779   0.863  14.699 -0.3033  0.1108 -0.3690
   8123SM  H16G10826   2.929   0.768  14.716 -0.7008  0.9185  1.2403
   8123SM  C17F10827   2.744   0.703  14.825  0.0691  0.6925  0.2805
   8123SM  H17F10828   2.772   0.595  14.820  0.0165  0.7291 -2.2500
   8123SM  H17G10829   2.633   0.705  14.820  0.1303  2.3220 -1.2777
   8123SM  C18F10830   2.778   0.762  14.957 -0.1254  0.6919 -0.0630
   8123SM  H18F10831   2.768   0.873  14.962  2.0809  1.0667 -2.1427
   8123SM  H18G10832   2.887   0.754  14.976  0.0139 -0.7034 -1.2843
   8123SM  C19F10833   2.706   0.701  15.079 -0.4885 -0.2773 -0.3402
   8123SM  H19F10834   2.597   0.710  15.064 -0.4754 -1.4223 -1.3265
   8123SM  H19G10835   2.720   0.761  15.172  0.4811 -1.2052  0.1398
   8123SM  C20F10836   2.740   0.557  15.126 -0.5525  0.6556 -0.2596
   8123SM  H20F10837   2.754   0.483  15.044 -2.3076 -1.1636  0.9643
   8123SM  H20G10838   2.660   0.513  15.191  1.1562  0.8631  2.1303
   8123SM  C21F10839   2.868   0.557  15.203 -0.0041  0.8192 -0.4473
   8123SM  H21F10840   2.876   0.641  15.276 -2.2530  2.1649 -1.6368
   8123SM  H21G10841   2.946   0.546  15.125  0.7177 -2.0910  0.5695
   8123SM  C22F10842   2.890   0.429  15.281  0.3159 -0.7867  0.3668
   8123SM  H22F10843   2.880   0.337  15.220 -1.1870 -1.1151  1.0397
   8123SM  H22G10844   2.812   0.417  15.360  0.3503  1.0638  0.7489
   8123SM  C23F10845   3.026   0.426  15.347  0.7562 -0.4459 -0.0283
   8123SM  H23F10846   3.024   0.496  15.433 -1.3585  0.2653 -0.6085
   8123SM  H23G10847   3.110   0.451  15.280  0.6350 -0.0286 -0.0241
   8123SM  H23H10848   3.060   0.326  15.383 -0.1219 -0.5241  0.6420
   8223SM     N10849   1.332   1.072  12.984 -0.7190  0.2411  0.0564
   8223SM   C1510850   1.305   1.164  13.097 -0.1845 -0.0320 -0.0324
   8223SM  H15A10851   1.275   1.110  13.185  0.4589 -0.6651 -0.1910
   8223SM  H15B10852   1.227   1.229  13.061 -1.5843 -1.6502 -0.0708
   8223SM  H15C10853   1.396   1.217  13.120  0.7416 -1.5334 -0.0767
   8223SM   C1410854   1.215   0.969  12.985 -0.2676  0.0637 -0.1816
   8223SM  H14A10855   1.235   0.898  12.906 -1.0339  0.3489 -0.6477
   8223SM  H14B10856   1.118   1.013  12.967  0.8378  2.5477 -0.4763
   8223SM  H14C10857   1.209   0.922  13.081 -0.0523  0.1246 -0.1371
   8223SM   C1310858   1.327   1.145  12.853  0.3045 -0.0398 -0.9423
   8223SM  H13A10859   1.225   1.177  12.834  0.4107  2.4714  1.9310
   8223SM  H13B10860   1.364   1.073  12.782  0.9952 -0.7916  0.1414
   8223SM  H13C10861   1.396   1.227  12.867 -1.6703  1.3385  1.5490
   8223SM   C1210862   1.461   0.994  12.999 -0.5360 -0.1692 -0.0040
   8223SM  H12A10863   1.493   0.955  12.903  2.1339  0.3583  0.5795
   8223SM  H12B10864   1.447   0.903  13.055 -0.8501  0.4628  0.9746
   8223SM   C1110865   1.592   1.063  13.054  0.1543  0.0669 -0.3086
   8223SM  H11A10866   1.657   0.976  13.081  0.0853  0.1064 -0.0100
   8223SM  H11B10867   1.580   1.114  13.152 -0.5555 -0.2649 -0.2245
   8223SM     P10868   1.716   1.121  12.842 -0.0841  0.1698  0.0362
   8223SM   O1310869   1.657   1.008  12.769  0.0875  0.2122 -0.6704
   8223SM   O1410870   1.736   1.237  12.756  0.5173 -0.1299 -0.4578
   8223SM   O1110871   1.868   1.078  12.889  0.1934  0.5088 -0.2196
   8223SM   O1210872   1.642   1.168  12.970 -0.1047 -0.6859  0.1790
   8223SM   C1S10873   1.945   1.184  12.956  0.0965  0.1012 -0.6183
   8223SM   H1S10874   1.906   1.288  12.947 -0.2053 -0.1520 -2.7299
   8223SM   H1T10875   2.045   1.185  12.908 -0.1111 -0.7832 -1.0768
   8223SM    NF10876   2.062   1.264  13.149 -0.1701  0.2381 -0.1419
   8223SM   HNF10877   2.161   1.249  13.143 -0.1642  0.5350 -0.8562
   8223SM   C2S10878   1.983   1.155  13.106 -0.4848 -0.0862 -0.9783
   8223SM   H2S10879   1.881   1.152  13.149 -0.3012  0.9266 -0.4357
   8223SM   C3S10880   2.058   1.021  13.122  0.2075  0.4372  0.2272
   8223SM   H3S10881   2.160   1.028  13.077  0.3510 -2.2918  0.0020
   8223SM    O310882   1.985   0.910  13.057  0.1532  0.1725 -0.3816
   8223SM   HO310883   1.915   0.954  13.009  0.8762  2.1196  0.2677
   8223SM   C4S10884   2.074   0.978  13.265  0.7438 -0.6676  0.2452
   8223SM   H4S10885   2.176   0.952  13.295  1.0736 -0.5929 -0.7672
   8223SM   C5S10886   1.984   0.947  13.362  0.7379  0.1684 -0.1718
   8223SM   H5S10887   1.881   0.930  13.327  0.9113 -0.7318 -0.2497
   8223SM   C6S10888   2.017   0.895  13.498  1.0451  0.1191  0.4963
   8223SM   H6S10889   1.996   0.786  13.502 -0.1468  0.3562  1.5486
   8223SM   H6T10890   1.939   0.944  13.561  0.3454  0.4234 -0.5830
   8223SM   C7S10891   2.149   0.943  13.564  0.1244  0.5671 -0.2476
   8223SM   H7S10892   2.149   1.053  13.547 -2.6703  0.4970 -1.2923
   8223SM   H7T10893   2.232   0.887  13.517  0.7927  0.9604  0.4291
   8223SM   C8S10894   2.149   0.917  13.719 -0.6936 -0.0927 -0.4334
   8223SM   H8S10895   2.124   0.812  13.747 -0.9003  0.4311  1.4858
   8223SM   H8T10896   2.074   0.982  13.767 -0.1218  0.5470 -0.3931
   8223SM   C9S10897   2.285   0.947  13.784 -0.3145 -0.1080 -0.5253
   8223SM   H9S10898   2.316   1.052  13.764 -0.0499 -0.0865 -0.0431
   8223SM   H9T10899   2.369   0.888  13.741  0.0720  0.1160 -0.0970
   8223SM  C10S10900   2.297   0.914  13.936  0.7189 -0.1463 -0.0612
   8223SM  H10S10901   2.275   0.806  13.944 -1.6084  0.3079  0.6657
   8223SM  H10T10902   2.226   0.986  13.982  1.6726  1.2746 -0.7430
   8223SM  C11S10903   2.435   0.943  13.998 -0.6336 -0.5280  0.4676
   8223SM  H11S10904   2.457   1.052  14.005  0.7815 -0.7300 -0.3963
   8223SM  H11T10905   2.509   0.913  13.920  1.2815  0.8630  1.6478
   8223SM  C12S10906   2.472   0.885  14.141  0.2413 -0.0682  1.0213
   8223SM  H12S10907   2.576   0.917  14.164  0.2470 -0.3765  1.4417
   8223SM  H12T10908   2.484   0.776  14.123 -0.5340  0.1734 -1.1906
   8223SM  C13S10909   2.400   0.951  14.260  0.0753  0.3404  0.1729
   8223SM  H13S10910   2.296   0.918  14.240  0.5474 -0.1451 -1.7061
   8223SM  H13T10911   2.405   1.062  14.253  2.3769  0.3053  0.5956
   8223SM  C14S10912   2.443   0.904  14.397 -0.8726  0.2438  0.4572
   8223SM  H14S10913   2.547   0.943  14.404 -0.2465 -1.3849  0.7369
   8223SM  H14T10914   2.451   0.793  14.394  1.3569  0.3449  0.8814
   8223SM  C15S10915   2.348   0.947  14.504  0.2476  0.6631  0.0315
   8223SM  H15S10916   2.240   0.929  14.482  0.8062 -0.5810 -1.9016
   8223SM  H15T10917   2.354   1.057  14.519 -0.4819  0.3715  3.5329
   8223SM  C16S10918   2.382   0.880  14.640 -0.0690  0.3614 -0.6079
   8223SM  H16S10919   2.489   0.905  14.655  0.9038 -2.1794 -2.4345
   8223SM  H16T10920   2.389   0.769  14.647  1.5460  0.4085 -1.1136
   8223SM  C17S10921   2.303   0.922  14.763 -0.5460 -0.6442 -0.9902
   8223SM  H17S10922   2.196   0.895  14.747 -0.8235 -0.1997  0.0360
   8223SM  H17T10923   2.309   1.031  14.783  1.3171 -1.2588  2.5105
   8223SM  C18S10924   2.344   0.852  14.893 -0.1910 -0.0497 -0.1133
   8223SM  H18S10925   2.270   0.871  14.974 -1.7638 -2.8528 -0.7406
   8223SM  H18T10926   2.450   0.879  14.914  0.5739 -1.2568 -2.1967
   8223SM  H18U10927   2.341   0.743  14.873  1.1530 -0.2575  0.7180
   8223SM   C1F10928   2.011   1.389  13.192 -1.1000  0.0195 -0.5315
   8223SM    OF10929   1.891   1.421  13.206 -0.0065  0.8019 -0.4605
   8223SM   C2F10930   2.112   1.497  13.214 -0.0200  0.8903  0.1132
   8223SM   H2F10931   2.103   1.567  13.128 -0.6882  2.6985  1.5933
   8223SM   H2G10932   2.219   1.470  13.230 -0.6325 -1.3225  0.7926
   8223SM   C3F10933   2.063   1.581  13.340 -1.1231 -0.7089  0.3340
   8223SM   H3F10934   1.962   1.624  13.323 -1.2930 -0.8906  0.8581
   8223SM   H3G10935   2.123   1.673  13.357  1.6463 -2.5440  1.2367
   8223SM   C4F10936   2.061   1.502  13.473  0.2345  0.4109  0.1735
   8223SM   H4F10937   1.989   1.418  13.462  1.1260 -0.4312  0.6095
   8223SM   H4G10938   2.026   1.577  13.547 -0.4836  3.0350 -2.6202
   8223SM   C5F10939   2.196   1.450  13.518  0.3586  0.0283 -0.0350
   8223SM   H5F10940   2.276   1.520  13.485  1.0451 -0.5059  0.4665
   8223SM   H5G10941   2.209   1.349  13.474 -0.3636  1.1069 -3.0390
   8223SM   C6F10942   2.206   1.446  13.670  0.4212 -0.0172  0.0490
   8223SM   H6F10943   2.167   1.543  13.707  0.0631  0.7200 -2.0892
   8223SM   H6G10944   2.308   1.435  13.713 -0.6989 -1.1170  2.5981
   8223SM   C7F10945   2.136   1.320  13.730 -0.3288  0.5150  0.8013
   8223SM   H7F10946   2.161   1.237  13.660  0.9555 -0.3975  2.2747
   8223SM   H7G10947   2.025   1.323  13.719 -0.6531 -2.5131  2.2513
   8223SM   C8F10948   2.175   1.314  13.877 -0.0508  0.6579  0.0908
   8223SM   H8F10949   2.167   1.417  13.918 -0.2500  0.1123  1.4984
   8223SM   H8G10950   2.282   1.290  13.893 -0.0685  1.3911  1.4967
   8223SM   C9F10951   2.080   1.233  13.957 -0.0292 -0.5865 -0.2660
   8223SM   H9F10952   2.075   1.129  13.918 -1.8316 -1.5031  2.1612
   8223SM   H9G10953   1.976   1.272  13.957 -0.4448 -1.5995  1.0398
   8223SM  C10F10954   2.121   1.231  14.110  0.3227 -0.0386  0.6068
   8223SM  H10F10955   2.136   1.338  14.138 -1.3647  0.3095  0.2749
   8223SM  H10G10956   2.220   1.181  14.110  0.7197  0.5300 -2.6614
   8223SM  C11F10957   2.012   1.171  14.198 -0.3909 -0.5236  0.0169
   8223SM  H11F10958   1.989   1.064  14.182  0.7959 -0.6541 -0.9574
   8223SM  H11G10959   1.917   1.223  14.172 -0.8995 -2.5133 -2.6062
   8223SM  C12F10960   2.039   1.188  14.351 -0.1141  0.2593 -0.1616
   8223SM  H12F10961   2.056   1.297  14.361  0.7681  0.2170 -1.0083
   8223SM  H12G10962   2.136   1.138  14.374 -0.2459  0.4465  0.8464
   8223SM  C13F10963   1.923   1.150  14.448 -0.0237 -0.5871  0.0993
   8223SM  H13F10964   1.866   1.064  14.407  0.0673  0.4471 -2.3514
   8223SM  H13G10965   1.858   1.238  14.461  1.9295  0.7925  1.0072
   8223SM  C14F10966   1.963   1.105  14.585  0.3798  0.3970  0.4542
   8223SM  H14F10967   2.013   1.185  14.644 -1.6573  3.2465 -1.4444
   8223SM  H14G10968   2.037   1.022  14.578 -0.1280 -0.1493  1.3092
   8223SM  C15F10969   1.841   1.056  14.664 -0.3225 -0.0729  0.1523
   8223SM  H15F10970   1.797   0.986  14.590  0.9133 -0.4801 -0.2380
   8223SM  H15G10971   1.766   1.135  14.680 -0.8079 -0.4312 -0.3402
   8223SM  C16F10972   1.880   0.987  14.794 -0.7402  0.5931 -0.5131
   8223SM  H16F10973   1.961   0.914  14.776 -1.0923  0.1495 -0.3034
   8223SM  H16G10974   1.801   0.927  14.842  1.1888 -1.0961  0.7038
   8223SM  C17F10975   1.939   1.102  14.893  0.5160  0.7797  0.9767
   8223SM  H17F10976   1.870   1.188  14.904  2.1444  2.5488 -1.5185
   8223SM  H17G10977   2.021   1.149  14.835 -1.4445  0.5367 -2.2454
   8223SM  C18F10978   1.976   1.045  15.030 -0.0304  0.8932 -0.0137
   8223SM  H18F10979   2.005   0.938  15.024 -1.3149  0.5865 -1.1560
   8223SM  H18G10980   1.894   1.048  15.105  1.8130  1.0408  2.1210
   8223SM  C19F10981   2.099   1.118  15.083 -0.6862 -0.2653  0.0837
   8223SM  H19F10982   2.067   1.225  15.088  0.9249  0.2220  0.8573
   8223SM  H19G10983   2.180   1.119  15.007 -1.1012  1.7927 -0.4064
   8223SM  C20F10984   2.152   1.070  15.220  0.0157  0.1964  0.1189
   8223SM  H20F10985   2.180   0.963  15.209  3.0656  0.7289  1.6106
   8223SM  H20G10986   2.063   1.081  15.286  2.5321  0.4513  3.7339
   8223SM  C21F10987   2.278   1.140  15.276  0.5780 -0.0305 -0.7040
   8223SM  H21F10988   2.302   1.112  15.381  3.9385  3.1144 -0.3830
   8223SM  H21G10989   2.237   1.242  15.296  0.6663 -0.5260  2.5514
   8223SM  C22F10990   2.407   1.146  15.190  0.3700  0.2492  0.3318
   8223SM  H22F10991   2.381   1.162  15.083 -0.7806  1.7698  0.8020
   8223SM  H22G10992   2.454   1.046  15.196  0.0085  0.0702  0.2419
   8223SM  C23F10993   2.511   1.246  15.229  0.2158 -0.7334 -0.0259
   8223SM  H23F10994   2.586   1.236  15.147 -1.0920  0.5688 -1.4594
   8223SM  H23G10995   2.554   1.218  15.327  0.2524  0.0225  0.1735
   8223SM  H23H10996   2.469   1.348  15.226  0.4329 -0.6355  0.2685
   8323SM     N10997   4.186   1.282  12.424  0.2457 -0.4514 -0.3562
   8323SM   C1510998   4.259   1.339  12.305 -0.1649 -0.3310 -0.6884
   8323SM  H15A10999   4.350   1.282  12.292  0.5304  0.9347 -1.5166
   8323SM  H15B11000   4.270   1.446  12.312 -0.3789 -0.1044 -3.0667
   8323SM  H15C11001   4.202   1.321  12.215 -1.6162 -0.6428  0.2472
   8323SM   C1411002   4.170   1.134  12.407  0.1700  0.1415  0.1676
   8323SM  H14A11003   4.131   1.109  12.309 -2.6041 -1.8999  1.6496
   8323SM  H14B11004   4.097   1.085  12.469  0.4259 -1.1901 -0.5358
   8323SM  H14C11005   4.266   1.090  12.430  0.6613  1.1152  0.0187
   8323SM   C1311006   4.285   1.294  12.537  0.3197 -0.4937  0.1294
   8323SM  H13A11007   4.297   1.400  12.554 -1.4718 -0.1525 -0.4860
   8323SM  H13B11008   4.379   1.246  12.515  1.4495  2.1017 -1.1787
   8323SM  H13C11009   4.247   1.248  12.628 -2.5393  0.5764 -0.4086
   8323SM   C1211010   4.058   1.366  12.455 -0.2135  0.3906  0.3937
   8323SM  H12A11011   3.993   1.370  12.369  1.1665  0.3756 -0.6896
   8323SM  H12B11012   4.080   1.469  12.481 -1.5485  0.6753  0.4546
   8323SM   C1111013   3.974   1.312  12.571 -0.5143  0.1717  0.0872
   8323SM  H11A11014   3.897   1.386  12.601 -1.6066 -0.6939 -0.5170
   8323SM  H11B11015   4.044   1.293  12.655 -0.1172 -2.3721 -0.7314
   8323SM     P11016   3.798   1.159  12.449 -0.0534 -0.2084 -0.2321
   8323SM   O1311017   3.795   1.264  12.343 -0.6128  0.6586 -0.1750
   8323SM   O1411018   3.789   1.016  12.408  0.5022 -0.1355  0.2487
   8323SM   O1111019   3.690   1.195  12.555 -0.3984 -0.3409  0.2565
   8323SM   O1211020   3.923   1.184  12.543 -0.1344 -0.5632  0.8465
   8323SM   C1S11021   3.678   1.126  12.680 -0.3436  0.2870 -0.9532
   8323SM   H1S11022   3.756   1.050  12.701  0.0315  1.4644  2.4572
   8323SM   H1T11023   3.578   1.078  12.684 -0.0409 -0.2689  0.7841
   8323SM    NF11024   3.664   1.140  12.926  0.5330  0.0688  0.4186
   8323SM   HNF11025   3.569   1.118  12.948  0.7338  0.1410  1.4198
   8323SM   C2S11026   3.685   1.221  12.810  0.6316  0.7488 -0.3171
   8323SM   H2S11027   3.783   1.272  12.816  1.3390 -0.5303 -0.6702
   8323SM   C3S11028   3.576   1.328  12.787 -0.2054  0.0218  0.5144
   8323SM   H3S11029   3.477   1.278  12.783 -0.5669  0.7239  0.6078
   8323SM    O311030   3.589   1.409  12.664 -0.7996  0.1750  0.4828
   8323SM   HO311031   3.635   1.346  12.609 -1.2474  0.3492 -0.1113
   8323SM   C4S11032   3.567   1.411  12.911 -0.1881 -0.0730  0.0797
   8323SM   H4S11033   3.497   1.373  12.987 -0.4216  3.5152  1.8283
   8323SM   C5S11034   3.653   1.509  12.942  0.2939  0.5142 -0.0522
   8323SM   H5S11035   3.724   1.549  12.868 -0.6363  1.7885 -0.2944
   8323SM   C6S11036   3.644   1.595  13.064 -0.2612 -0.2029 -0.2429
   8323SM   H6S11037   3.587   1.687  13.038 -0.3874 -0.1167  0.3327
   8323SM   H6T11038   3.746   1.608  13.106  0.4830 -0.4673 -1.9011
   8323SM   C7S11039   3.575   1.532  13.190  0.4724  0.5404 -1.0527
   8323SM   H7S11040   3.625   1.435  13.208 -0.5899  0.2505  0.4706
   8323SM   H7T11041   3.467   1.520  13.169 -0.1863  0.9682  1.7237
   8323SM   C8S11042   3.597   1.608  13.322  0.5747  0.5925 -1.0205
   8323SM   H8S11043   3.555   1.710  13.315 -1.6851 -0.2122 -0.3755
   8323SM   H8T11044   3.706   1.615  13.340  0.4842  4.4302 -1.1442
   8323SM   C9S11045   3.534   1.537  13.444 -0.1817  0.0221  0.2330
   8323SM   H9S11046   3.595   1.445  13.457  1.3910  0.9717 -0.1781
   8323SM   H9T11047   3.424   1.518  13.441 -0.3902  0.8444  1.6887
   8323SM  C10S11048   3.545   1.630  13.569 -0.2708 -0.8227  0.2188
   8323SM  H10S11049   3.486   1.722  13.546  2.8096  0.6301 -2.7758
   8323SM  H10T11050   3.648   1.668  13.585 -0.6041  0.8827 -1.3070
   8323SM  C11S11051   3.501   1.558  13.697  0.0120  0.3528  0.4198
   8323SM  H11S11052   3.562   1.469  13.721  1.2796  0.3417 -2.3731
   8323SM  H11T11053   3.399   1.522  13.675  0.6517 -2.1288  1.2601
   8323SM  C12S11054   3.499   1.665  13.816 -0.2312 -0.6996  0.2456
   8323SM  H12S11055   3.429   1.750  13.799  2.3160  1.6722  0.8282
   8323SM  H12T11056   3.600   1.711  13.820 -0.6498  0.2330  0.2958
   8323SM  C13S11057   3.481   1.596  13.948  0.3728 -0.0092  0.1822
   8323SM  H13S11058   3.573   1.538  13.968  1.0836  1.4960  1.5344
   8323SM  H13T11059   3.397   1.524  13.956 -2.7920  3.3233 -0.2419
   8323SM  C14S11060   3.469   1.695  14.063 -0.4169 -0.7724  0.2671
   8323SM  H14S11061   3.416   1.786  14.028 -1.5496 -0.6462  2.1262
   8323SM  H14T11062   3.570   1.732  14.089 -1.9734  2.5597  2.2600
   8323SM  C15S11063   3.400   1.631  14.184  0.6598  0.4134 -0.3490
   8323SM  H15S11064   3.308   1.589  14.138 -0.2631  0.0027  1.7464
   8323SM  H15T11065   3.359   1.706  14.255 -1.6801 -0.7456 -0.3739
   8323SM  C16S11066   3.480   1.517  14.260  1.4782 -0.3791 -0.7689
   8323SM  H16S11067   3.569   1.561  14.312  0.4724 -1.0228  1.6450
   8323SM  H16T11068   3.520   1.439  14.192 -1.2695 -2.6249  0.0180
   8323SM  C17S11069   3.406   1.444  14.375  0.6988  0.3938 -0.5458
   8323SM  H17S11070   3.446   1.343  14.400  2.0981  1.1489  0.4018
   8323SM  H17T11071   3.300   1.441  14.343 -0.0735  1.5216  1.7406
   8323SM  C18S11072   3.416   1.529  14.505  0.0613  0.1156  0.0414
   8323SM  H18S11073   3.518   1.570  14.517 -0.2101  1.2573 -1.3011
   8323SM  H18T11074   3.398   1.465  14.595 -0.1183 -1.0648 -0.8004
   8323SM  H18U11075   3.340   1.609  14.497  1.1925  1.1772 -0.4543
   8323SM   C1F11076   3.763   1.062  12.969  0.9305  0.0477 -0.1585
   8323SM    OF11077   3.872   1.050  12.909  0.5093 -0.3737 -0.4243
   8323SM   C2F11078   3.724   0.982  13.094  0.2386 -0.3516  0.1628
   8323SM   H2F11079   3.665   0.899  13.049 -0.2547  1.1268 -2.0622
   8323SM   H2G11080   3.662   1.047  13.158  1.1370 -0.6770  1.3947
   8323SM   C3F11081   3.849   0.953  13.183  0.1697 -0.1003  0.1721
   8323SM   H3F11082   3.900   1.048  13.207  0.8818 -0.3754 -0.2025
   8323SM   H3G11083   3.925   0.897  13.124 -0.6764 -0.9026 -0.1754
   8323SM   C4F11084   3.819   0.867  13.306  0.6333  0.3334 -1.2154
   8323SM   H4F11085   3.781   0.767  13.276  1.7454 -0.3515 -0.4417
   8323SM   H4G11086   3.746   0.919  13.372 -0.1375 -2.7665  0.5822
   8323SM   C5F11087   3.943   0.826  13.378 -0.4387  0.1322 -0.0287
   8323SM   H5F11088   4.015   0.911  13.382 -0.7915  0.5278 -1.6402
   8323SM   H5G11089   3.991   0.746  13.319  0.0810 -0.3169  0.9733
   8323SM   C6F11090   3.931   0.774  13.523  0.1532  0.5465  1.1505
   8323SM   H6F11091   4.036   0.760  13.556  0.2061 -2.1468  0.1151
   8323SM   H6G11092   3.875   0.679  13.509 -0.6275  0.7341  2.8218
   8323SM   C7F11093   3.853   0.865  13.618  0.1033 -0.0625  0.0981
   8323SM   H7F11094   3.744   0.869  13.596  0.1022 -0.8901 -0.0747
   8323SM   H7G11095   3.892   0.969  13.609 -0.4525  0.3026  1.6345
   8323SM   C8F11096   3.879   0.816  13.763 -0.5540 -0.2820 -0.5175
   8323SM   H8F11097   3.990   0.814  13.771 -0.6161 -1.0455  0.2957
   8323SM   H8G11098   3.834   0.717  13.785  0.8068 -1.0972 -1.2042
   8323SM   C9F11099   3.814   0.905  13.872 -0.0712  0.1833  0.0688
   8323SM   H9F11100   3.705   0.884  13.880 -0.5643  2.4732  0.2124
   8323SM   H9G11101   3.840   1.009  13.842  0.0647 -0.0144 -0.5218
   8323SM  C10F11102   3.880   0.882  14.008  0.4267 -0.0081 -0.0064
   8323SM  H10F11103   3.833   0.956  14.077  0.5028  0.3233 -0.3037
   8323SM  H10G11104   3.987   0.909  14.002  0.7796 -0.8989  1.6139
   8323SM  C11F11105   3.880   0.735  14.063  0.1177 -0.0142 -0.1077
   8323SM  H11F11106   3.925   0.663  13.991  1.7549  0.0160  0.8396
   8323SM  H11G11107   3.776   0.698  14.076 -0.5709  2.4795  2.6383
   8323SM  C12F11108   3.952   0.722  14.196  0.1218 -0.6236  0.0445
   8323SM  H12F11109   4.052   0.768  14.185  0.2239 -1.0551 -0.9140
   8323SM  H12G11110   3.965   0.618  14.233  2.4130 -0.1513  0.6899
   8323SM  C13F11111   3.895   0.803  14.310 -0.2298 -1.3397 -0.4098
   8323SM  H13F11112   3.906   0.911  14.289 -1.4810 -1.2651 -0.7814
   8323SM  H13G11113   3.952   0.783  14.403  0.1744 -1.2818 -0.6457
   8323SM  C14F11114   3.740   0.775  14.330 -0.5974  0.4140  0.7516
   8323SM  H14F11115   3.719   0.667  14.348  0.3826  0.3997  1.9600
   8323SM  H14G11116   3.700   0.818  14.236  2.7883  1.4137 -0.3707
   8323SM  C15F11117   3.684   0.848  14.449 -0.3314  0.7712 -0.1137
   8323SM  H15F11118   3.576   0.819  14.454 -0.4174  0.3845 -2.8462
   8323SM  H15G11119   3.693   0.958  14.445  1.8207  0.6971  1.2260
   8323SM  C16F11120   3.747   0.799  14.585  0.7954  0.8992 -0.2668
   8323SM  H16F11121   3.840   0.858  14.594  1.9626 -0.7363 -0.9645
   8323SM  H16G11122   3.778   0.692  14.579  0.9801  1.0455 -3.1673
   8323SM  C17F11123   3.644   0.818  14.697  0.1908  0.2639 -0.1642
   8323SM  H17F11124   3.554   0.761  14.666 -1.0902  2.2403 -0.2518
   8323SM  H17G11125   3.611   0.924  14.702 -1.4721 -0.1135 -1.9916
   8323SM  C18F11126   3.695   0.788  14.842 -0.1659 -0.3498 -0.1420
   8323SM  H18F11127   3.781   0.855  14.863 -0.0005 -0.4863 -0.3742
   8323SM  H18G11128   3.739   0.687  14.825  0.5583 -0.0432 -0.1090
   8323SM  C19F11129   3.583   0.776  14.946 -0.8710 -0.6764  0.0544
   8323SM  H19F11130   3.527   0.689  14.906 -0.2442 -0.3025 -1.7049
   8323SM  H19G11131   3.529   0.872  14.927  1.6436  0.4871 -1.6967
   8323SM  C20F11132   3.630   0.757  15.088 -0.1070 -0.1721  0.5752
   8323SM  H20F11133   3.688   0.662  15.085 -0.3107 -0.3151  1.1599
   8323SM  H20G11134   3.549   0.744  15.163  1.1283 -1.3513  1.7677
   8323SM  C21F11135   3.728   0.864  15.136 -0.4422  0.2932  0.0001
   8323SM  H21F11136   3.691   0.961  15.096 -0.0160 -0.1340 -1.4925
   8323SM  H21G11137   3.825   0.861  15.083 -0.7576  0.2554 -0.5850
   8323SM  C22F11138   3.753   0.867  15.287  0.1938 -0.0862  0.3361
   8323SM  H22F11139   3.658   0.867  15.344 -0.2160 -0.0403 -0.3368
   8323SM  H22G11140   3.798   0.967  15.309 -0.5688  0.0623  1.2668
   8323SM  C23F11141   3.847   0.754  15.337  0.3029  0.1823  0.2499
   8323SM  H23F11142   3.950   0.784  15.307  0.2846  0.1213  0.1263
   8323SM  H23G11143   3.820   0.663  15.281 -0.0946 -1.2042  2.5624
   8323SM  H23H11144   3.850   0.747  15.448  1.4455  2.4406  0.4281
   8423SM     N11145   3.184   5.864  12.266  0.8932 -0.4918  1.0845
   8423SM   C1511146   3.224   5.793  12.393  0.0668  0.2798  0.7970
   8423SM  H15A11147   3.332   5.796  12.397  0.0603  3.1128  0.6838
   8423SM  H15B11148   3.190   5.691  12.383 -0.7810  0.6749 -0.7644
   8423SM  H15C11149   3.182   5.838  12.482 -0.0861 -1.5863  1.7091
   8423SM   C1411150   3.255   5.802  12.151 -0.4947 -0.0355 -0.2605
   8423SM  H14A11151   3.238   5.854  12.058 -1.6690 -2.6925 -1.6332
   8423SM  H14B11152   3.211   5.706  12.130 -0.1638 -0.2799  0.1305
   8423SM  H14C11153   3.360   5.790  12.175 -0.8760  0.1735  1.7000
   8423SM   C1311154   3.033   5.841  12.247 -0.9637 -0.3761 -1.2212
   8423SM  H13A11155   3.004   5.874  12.149 -0.8756  0.0463 -1.1049
   8423SM  H13B11156   2.976   5.885  12.328  1.8230  2.8505 -0.8251
   8423SM  H13C11157   3.018   5.734  12.245 -0.7360 -0.5534  1.6367
   8423SM   C1211158   3.215   6.007  12.273  0.6319  0.2944  0.2194
   8423SM  H12A11159   3.173   6.065  12.191  1.0531  0.7298  0.3048
   8423SM  H12B11160   3.323   6.012  12.270  0.6850 -0.3756  0.8544
   8423SM   C1111161   3.175   6.079  12.405 -0.0747 -0.4355  0.0896
   8423SM  H11A11162   3.223   6.179  12.401  2.3340 -1.5410 -0.4126
   8423SM  H11B11163   3.210   6.018  12.492  0.8442 -1.3336 -0.8840
   8423SM     P11164   2.955   6.148  12.529  0.1635  0.0613 -0.1115
   8423SM   O1311165   2.848   6.219  12.462  0.1235 -0.0727 -0.1008
   8423SM   O1411166   2.923   6.045  12.627  0.0908 -0.4401 -1.2810
   8423SM   O1111167   3.054   6.245  12.596 -0.0829 -0.2900  0.6295
   8423SM   O1211168   3.038   6.085  12.413  0.4578 -0.3371  0.5232
   8423SM   C1S11169   3.022   6.325  12.710  0.1088  0.4978 -0.1661
   8423SM   H1S11170   2.919   6.367  12.709 -0.2620 -0.3762 -1.6849
   8423SM   H1T11171   3.084   6.417  12.705  2.1913 -0.8094  0.5227
   8423SM    NF11172   3.012   6.318  12.949 -0.5830  0.0891  0.0383
   8423SM   HNF11173   3.069   6.396  12.975 -0.8307  0.3382 -0.1647
   8423SM   C2S11174   3.065   6.249  12.835  0.2083  0.1900 -0.5993
   8423SM   H2S11175   3.022   6.147  12.846 -1.4187  0.7950 -0.9841
   8423SM   C3S11176   3.223   6.229  12.826 -0.6220  0.1352  0.6148
   8423SM   H3S11177   3.274   6.327  12.829  0.2641 -0.3335  1.3948
   8423SM    O311178   3.276   6.171  12.703  0.2433  0.0673 -0.0185
   8423SM   HO311179   3.201   6.165  12.644 -1.2799 -3.2182  1.9546
   8423SM   C4S11180   3.269   6.133  12.939 -0.0853 -0.0835  0.2006
   8423SM   H4S11181   3.224   6.033  12.937 -0.5691  0.1292  0.3686
   8423SM   C5S11182   3.354   6.168  13.042 -0.2475  0.0875  0.0235
   8423SM   H5S11183   3.393   6.271  13.049  2.3428 -0.8045 -0.2358
   8423SM   C6S11184   3.400   6.077  13.151  0.1486 -0.0848  0.0365
   8423SM   H6S11185   3.507   6.096  13.173  0.0026  1.3617 -0.4098
   8423SM   H6T11186   3.395   5.971  13.119 -0.9328  0.6716 -2.6087
   8423SM   C7S11187   3.317   6.099  13.274 -0.0644  0.1687  0.0964
   8423SM   H7S11188   3.214   6.058  13.275  0.0270 -0.0702  1.7052
   8423SM   H7T11189   3.306   6.208  13.291  2.0087  0.3836  0.3330
   8423SM   C8S11190   3.392   6.052  13.407  0.4635  0.8401 -0.1478
   8423SM   H8S11191   3.471   6.125  13.431 -0.9810  3.0031 -1.6133
   8423SM   H8T11192   3.430   5.948  13.402 -0.6546  0.4944 -2.6743
   8423SM   C9S11193   3.305   6.049  13.537 -0.9702  0.2038  0.1258
   8423SM   H9S11194   3.233   5.965  13.532 -1.8763  0.8867  1.2607
   8423SM   H9T11195   3.244   6.142  13.541 -0.4804  0.4964  1.3677
   8423SM  C10S11196   3.374   6.051  13.671 -0.7410  0.6266  0.1265
   8423SM  H10S11197   3.443   6.137  13.683 -0.7863  0.4748  1.6814
   8423SM  H10T11198   3.445   5.965  13.670 -1.6070 -0.1318 -2.1292
   8423SM  C11S11199   3.282   6.027  13.788 -1.1385  0.3207  0.4149
   8423SM  H11S11200   3.255   5.919  13.791  0.0643  0.0240  1.5845
   8423SM  H11T11201   3.197   6.098  13.785 -0.6591  0.9252  0.9360
   8423SM  C12S11202   3.356   6.066  13.917  0.1825 -0.4887  0.1608
   8423SM  H12S11203   3.415   6.158  13.893  0.8709 -1.1659 -0.8629
   8423SM  H12T11204   3.439   5.994  13.933 -1.2584 -2.9268 -2.4505
   8423SM  C13S11205   3.255   6.073  14.034 -0.8413 -0.0867  0.1330
   8423SM  H13S11206   3.213   5.971  14.045 -0.0491 -0.1250  4.6497
   8423SM  H13T11207   3.169   6.139  14.010  0.1572  1.3327  0.2476
   8423SM  C14S11208   3.326   6.113  14.163  0.2541 -0.0527  0.2741
   8423SM  H14S11209   3.384   6.207  14.155  1.9145 -0.9545  1.2514
   8423SM  H14T11210   3.407   6.042  14.187  1.0276  1.4963  2.5799
   8423SM  C15S11211   3.240   6.110  14.290  0.4572  0.5434 -0.2162
   8423SM  H15S11212   3.134   6.120  14.259 -0.6918 -1.3991  2.6622
   8423SM  H15T11213   3.265   6.202  14.346  0.7703  0.6480 -0.5176
   8423SM  C16S11214   3.253   5.981  14.368  0.5418 -0.6797  0.1111
   8423SM  H16S11215   3.358   5.954  14.392  0.4210 -0.8718  0.4318
   8423SM  H16T11216   3.212   5.898  14.306 -1.9520  2.2510 -2.5066
   8423SM  C17S11217   3.173   5.982  14.501  0.0336  0.0447  0.1840
   8423SM  H17S11218   3.149   5.879  14.536  0.9808 -0.2054  0.1318
   8423SM  H17T11219   3.072   6.020  14.477 -0.0552 -1.1263 -1.4790
   8423SM  C18S11220   3.229   6.057  14.625  0.2393 -0.2318  0.5902
   8423SM  H18S11221   3.240   6.166  14.604  1.7444 -0.0810  1.9690
   8423SM  H18T11222   3.330   6.020  14.654  0.2420  0.3998  1.4341
   8423SM  H18U11223   3.155   6.046  14.707 -0.3422  0.1969  0.1287
   8423SM   C1F11224   2.890   6.326  12.988 -0.1087  0.4675  0.2783
   8423SM    OF11225   2.814   6.234  12.956  0.0728 -0.2206  0.1359
   8423SM   C2F11226   2.847   6.432  13.083  0.6304 -0.1984  0.2469
   8423SM   H2F11227   2.749   6.475  13.052  0.3734 -0.4281  0.7335
   8423SM   H2G11228   2.921   6.515  13.078 -0.2242  0.5546 -0.2868
   8423SM   C3F11229   2.843   6.369  13.228  0.2798  0.5893  0.1346
   8423SM   H3F11230   2.760   6.294  13.228  2.8025 -2.3977  1.0819
   8423SM   H3G11231   2.813   6.454  13.292 -0.4352 -0.0196  0.6308
   8423SM   C4F11232   2.968   6.303  13.283  0.3529 -0.4368 -0.1480
   8423SM   H4F11233   3.042   6.381  13.308  1.0251 -1.4902  1.2712
   8423SM   H4G11234   3.000   6.226  13.209  1.0110 -1.8675  1.5566
   8423SM   C5F11235   2.953   6.235  13.424  1.0666  0.1247  0.4596
   8423SM   H5F11236   3.045   6.175  13.442 -0.9381 -3.9834 -1.7017
   8423SM   H5G11237   2.870   6.161  13.421  1.9571 -0.9207 -3.2607
   8423SM   C6F11238   2.937   6.330  13.543 -0.2864  0.0910 -0.5019
   8423SM   H6F11239   2.862   6.411  13.526 -0.4678 -0.1308 -0.7760
   8423SM   H6G11240   3.033   6.384  13.550 -0.6690  0.6720  0.5530
   8423SM   C7F11241   2.909   6.254  13.673  0.3934  0.2429 -0.1775
   8423SM   H7F11242   2.994   6.184  13.686  0.6229  0.3685 -0.9509
   8423SM   H7G11243   2.816   6.195  13.661 -0.7770  1.8180  0.7260
   8423SM   C8F11244   2.878   6.345  13.795 -0.4384 -0.4808 -0.0063
   8423SM   H8F11245   2.786   6.406  13.781  0.1322  0.6139  0.8422
   8423SM   H8G11246   2.962   6.416  13.810  1.2375 -2.5031  0.5578
   8423SM   C9F11247   2.854   6.263  13.924  0.1026 -0.6639  0.3102
   8423SM   H9F11248   2.943   6.198  13.941  0.3534 -0.4875 -0.3271
   8423SM   H9G11249   2.768   6.194  13.906  1.7243 -2.1258 -2.6059
   8423SM  C10F11250   2.835   6.352  14.041 -0.6978  0.3102  0.4331
   8423SM  H10F11251   2.744   6.411  14.019 -0.0694  1.9478  2.0118
   8423SM  H10G11252   2.922   6.421  14.042 -0.3833 -0.0659 -0.4053
   8423SM  C11F11253   2.814   6.275  14.169 -0.2032  0.1778 -0.5390
   8423SM  H11F11254   2.891   6.195  14.176  0.4760  0.2886 -4.4927
   8423SM  H11G11255   2.716   6.223  14.172  0.5029 -1.1578  1.3109
   8423SM  C12F11256   2.824   6.365  14.296 -0.4603  0.1596 -0.4518
   8423SM  H12F11257   2.729   6.420  14.316 -0.1725  0.7766 -0.7418
   8423SM  H12G11258   2.900   6.444  14.277 -2.3767  3.0237  2.6912
   8423SM  C13F11259   2.872   6.286  14.426  0.1103  0.6816  0.1640
   8423SM  H13F11260   2.975   6.245  14.412 -0.8169 -1.5283 -0.5757
   8423SM  H13G11261   2.794   6.207  14.431  1.9841 -1.2860 -0.1630
   8423SM  C14F11262   2.872   6.368  14.557  0.2594  1.0332 -0.3991
   8423SM  H14F11263   2.777   6.425  14.560 -1.1704 -1.2157 -0.3157
   8423SM  H14G11264   2.953   6.440  14.535 -1.0921  2.4948 -0.8210
   8423SM  C15F11265   2.909   6.287  14.686  0.2079  0.0479  0.2965
   8423SM  H15F11266   3.014   6.256  14.669 -0.0900  0.8148 -4.2125
   8423SM  H15G11267   2.849   6.193  14.690 -0.2373  0.3084 -0.1584
   8423SM  C16F11268   2.895   6.352  14.822  0.6372  0.5006  0.0914
   8423SM  H16F11269   2.902   6.269  14.895  1.1687 -1.1032 -1.7066
   8423SM  H16G11270   2.794   6.398  14.828 -0.5637 -2.0100  0.4195
   8423SM  C17F11271   3.013   6.453  14.849 -0.1942 -0.0192  0.3648
   8423SM  H17F11272   2.990   6.547  14.794  1.7492 -0.0122 -0.5057
   8423SM  H17G11273   3.099   6.419  14.788  0.1322 -0.2661  0.9614
   8423SM  C18F11274   3.060   6.438  14.990  0.6046 -0.1441 -0.3322
   8423SM  H18F11275   2.970   6.424  15.054  0.0736 -1.4685 -1.3203
   8423SM  H18G11276   3.107   6.528  15.035  0.5394 -2.2666  4.6850
   8423SM  C19F11277   3.178   6.334  15.005 -0.2216 -0.0668  0.3454
   8423SM  H19F11278   3.253   6.345  14.924 -0.5480 -0.6669 -0.0448
   8423SM  H19G11279   3.122   6.239  14.997 -0.8032  0.3485 -0.6188
   8423SM  C20F11280   3.258   6.339  15.135 -0.9083 -0.5522  0.0947
   8423SM  H20F11281   3.194   6.326  15.224 -0.0094 -1.0498  0.6926
   8423SM  H20G11282   3.316   6.434  15.142 -0.9419 -0.6738  3.2624
   8423SM  C21F11283   3.345   6.212  15.155  1.0534  0.4374 -0.6017
   8423SM  H21F11284   3.269   6.132  15.166 -0.8428  2.1392 -0.7325
   8423SM  H21G11285   3.400   6.218  15.251 -0.5243  2.3515  0.2550
   8423SM  C22F11286   3.445   6.189  15.043  0.3335  0.6023 -0.2374
   8423SM  H22F11287   3.520   6.270  15.029 -0.4200  1.1509 -1.1533
   8423SM  H22G11288   3.390   6.178  14.948  3.6932 -0.4435 -2.2503
   8423SM  C23F11289   3.538   6.065  15.066 -0.3712  0.1933 -0.5855
   8423SM  H23F11290   3.606   6.045  14.980  3.4905 -0.0951  2.2813
   8423SM  H23G11291   3.476   5.976  15.091 -0.0295  0.2855  0.6326
   8423SM  H23H11292   3.599   6.094  15.154 -2.2581 -1.9796  1.5960
   8523SM     N11293   5.760   1.095  12.505 -0.0499 -0.5379  0.5985
   8523SM   C1511294   5.903   1.085  12.537 -0.5544 -0.7124 -0.5954
   8523SM  H15A11295   5.961   1.176  12.525  1.4144 -1.3786  2.6143
   8523SM  H15B11296   5.949   1.008  12.477 -1.4531 -2.7017  1.1593
   8523SM  H15C11297   5.925   1.058  12.640  3.8517  0.9106 -0.8572
   8523SM   C1411298   5.706   0.954  12.488  0.5245  0.2148  0.1291
   8523SM  H14A11299   5.743   0.906  12.399  0.8248  1.6770 -0.5703
   8523SM  H14B11300   5.598   0.959  12.479  0.6532  1.2254 -1.1218
   8523SM  H14C11301   5.745   0.899  12.572  3.4748 -0.0980 -1.3150
   8523SM   C1311302   5.674   1.168  12.613 -0.5563  0.8523 -0.0685
   8523SM  H13A11303   5.571   1.141  12.595 -0.0671  0.7291 -3.2620
   8523SM  H13B11304   5.692   1.273  12.592 -0.0680  1.7426  4.0377
   8523SM  H13C11305   5.714   1.139  12.708 -0.4480 -0.4826 -0.5019
   8523SM   C1211306   5.730   1.166  12.381  0.4579 -0.4109 -0.4745
   8523SM  H12A11307   5.778   1.111  12.301  1.5929  1.0096 -0.8114
   8523SM  H12B11308   5.781   1.261  12.382  1.8289 -1.1208 -0.1734
   8523SM   C1111309   5.585   1.190  12.332  0.3059  0.3541 -0.7799
   8523SM  H11A11310   5.575   1.264  12.250 -1.5999 -0.2870 -1.1757
   8523SM  H11B11311   5.533   1.242  12.415  1.3624 -0.7429  0.6112
   8523SM     P11312   5.368   1.061  12.320 -0.0224  0.1604  0.4199
   8523SM   O1311313   5.302   1.161  12.239  0.2176 -0.3399 -0.1763
   8523SM   O1411314   5.332   0.922  12.293  0.2422  0.3948 -0.5397
   8523SM   O1111315   5.353   1.107  12.471  0.6131 -0.3291 -0.2671
   8523SM   O1211316   5.521   1.066  12.300  0.2982 -0.9364 -0.6203
   8523SM   C1S11317   5.335   1.009  12.574  0.2609  0.5826 -0.6035
   8523SM   H1S11318   5.423   0.943  12.590  1.8795  2.9419  0.8542
   8523SM   H1T11319   5.245   0.946  12.560 -0.3569  1.5040 -0.8848
   8523SM    NF11320   5.340   0.981  12.819  0.7287 -0.1508  0.3281
   8523SM   HNF11321   5.259   0.937  12.858  0.5840 -1.0087 -0.8796
   8523SM   C2S11322   5.317   1.074  12.712 -0.6412 -0.4700  0.5896
   8523SM   H2S11323   5.389   1.158  12.717  0.1126 -0.9462 -1.4469
   8523SM   C3S11324   5.172   1.141  12.721 -0.2785 -0.5156 -0.7457
   8523SM   H3S11325   5.100   1.056  12.720 -0.0180 -0.7398 -1.7439
   8523SM    O311326   5.140   1.226  12.609  0.2761  0.3292 -0.0031
   8523SM   HO311327   5.222   1.226  12.558  0.9343  4.1762  0.7098
   8523SM   C4S11328   5.155   1.224  12.843  0.4282  0.4641 -0.6894
   8523SM   H4S11329   5.125   1.169  12.934 -1.3458  0.6526 -1.1406
   8523SM   C5S11330   5.189   1.355  12.862 -1.1505  0.2668  0.4191
   8523SM   H5S11331   5.225   1.413  12.777 -2.2216 -2.8837 -2.4473
   8523SM   C6S11332   5.176   1.434  12.991  1.2392 -0.2447 -0.1849
   8523SM   H6S11333   5.095   1.509  12.985 -0.1329 -1.7133 -0.9778
   8523SM   H6T11334   5.278   1.475  13.008  0.9171  1.1451 -1.4185
   8523SM   C7S11335   5.148   1.357  13.121  0.3885  0.0354 -0.0606
   8523SM   H7S11336   5.217   1.270  13.121 -0.8547 -1.0102 -1.1715
   8523SM   H7T11337   5.050   1.306  13.133  0.2418 -0.3912 -2.5807
   8523SM   C8S11338   5.163   1.435  13.252 -0.2024  0.1788  0.4973
   8523SM   H8S11339   5.089   1.518  13.265  0.1535  0.5786  0.0282
   8523SM   H8T11340   5.258   1.492  13.255 -0.4850  0.7829 -1.0307
   8523SM   C9S11341   5.126   1.340  13.372 -0.1221  0.4722 -0.3729
   8523SM   H9S11342   5.194   1.253  13.368 -0.3503  0.3084 -0.7516
   8523SM   H9T11343   5.020   1.307  13.369  0.2860 -0.9091 -0.2413
   8523SM  C10S11344   5.140   1.416  13.509 -0.2063  0.6624 -0.2382
   8523SM  H10S11345   5.073   1.505  13.503 -0.1463  0.7903  0.8348
   8523SM  H10T11346   5.246   1.448  13.517 -0.7678  2.2238  2.0528
   8523SM  C11S11347   5.104   1.326  13.632  0.2027 -0.3565 -0.0060
   8523SM  H11S11348   5.183   1.253  13.658  0.9392  1.3601  3.0836
   8523SM  H11T11349   5.008   1.275  13.611  0.8247 -1.1529 -1.0016
   8523SM  C12S11350   5.087   1.415  13.759  0.0837 -0.5439  0.0976
   8523SM  H12S11351   5.020   1.500  13.734 -0.4750 -0.3251  2.1630
   8523SM  H12T11352   5.186   1.465  13.771 -0.0825 -0.6676  2.3197
   8523SM  C13S11353   5.045   1.350  13.890 -0.2582  0.3091 -0.0826
   8523SM  H13S11354   5.080   1.246  13.909 -3.6680 -1.3645 -2.0073
   8523SM  H13T11355   4.935   1.348  13.877 -0.1352 -1.9343 -1.2780
   8523SM  C14S11356   5.084   1.434  14.017 -0.0468  0.4192 -0.7732
   8523SM  H14S11357   5.063   1.542  14.001 -0.4577  0.4300 -0.1711
   8523SM  H14T11358   5.194   1.420  14.014 -0.0835  0.2497 -1.7302
   8523SM  C15S11359   5.023   1.391  14.152  0.3958 -0.1969 -0.3325
   8523SM  H15S11360   5.058   1.287  14.171 -1.4196 -0.5354  1.5759
   8523SM  H15T11361   4.913   1.385  14.142  0.3652  0.6057 -0.4883
   8523SM  C16S11362   5.058   1.480  14.275  0.1383 -0.1431  0.2484
   8523SM  H16S11363   5.000   1.575  14.272  0.2214 -0.0763  0.7061
   8523SM  H16T11364   5.164   1.511  14.273 -0.5832  2.7702 -2.5485
   8523SM  C17S11365   5.026   1.417  14.413  0.7466 -0.1773  0.2921
   8523SM  H17S11366   5.106   1.343  14.436  0.5538 -0.3404  0.4342
   8523SM  H17T11367   4.932   1.358  14.405  1.7243 -1.8546  0.5846
   8523SM  C18S11368   5.006   1.510  14.533 -0.3722  0.3357  0.6740
   8523SM  H18S11369   4.918   1.577  14.524  0.3447  1.7090  2.8986
   8523SM  H18T11370   5.095   1.575  14.551  1.0408 -0.4690 -2.7053
   8523SM  H18U11371   4.975   1.442  14.615 -1.2537 -1.0232 -0.7415
   8523SM   C1F11372   5.459   0.917  12.837  0.5412  0.0916 -0.3342
   8523SM    OF11373   5.559   0.963  12.786 -0.3271  0.3734 -0.0564
   8523SM   C2F11374   5.462   0.791  12.917  0.5677  0.3108 -0.0473
   8523SM   H2F11375   5.522   0.714  12.866  0.5782  0.3333 -0.0689
   8523SM   H2G11376   5.357   0.759  12.936  1.6882 -2.7807  1.5560
   8523SM   C3F11377   5.519   0.835  13.059  0.4868 -0.2921 -0.6090
   8523SM   H3F11378   5.622   0.876  13.058  1.2655 -1.8751  2.5029
   8523SM   H3G11379   5.524   0.734  13.106 -1.5593 -0.4727 -0.6962
   8523SM   C4F11380   5.422   0.917  13.147 -0.3501  0.7500 -0.1085
   8523SM   H4F11381   5.318   0.903  13.111  0.0698 -1.0631 -0.7119
   8523SM   H4G11382   5.448   1.025  13.157 -0.0185  0.5744  1.1406
   8523SM   C5F11383   5.430   0.866  13.298  0.4681  0.3218 -0.2901
   8523SM   H5F11384   5.531   0.871  13.345 -0.2206  0.2874  1.2485
   8523SM   H5G11385   5.395   0.762  13.306  0.2504  0.3636 -0.6821
   8523SM   C6F11386   5.343   0.941  13.394  0.6467 -0.4644 -0.3529
   8523SM   H6F11387   5.237   0.946  13.362 -0.5535 -0.9855  3.1587
   8523SM   H6G11388   5.389   1.042  13.406 -0.3292 -0.3453  3.2969
   8523SM   C7F11389   5.352   0.878  13.528  0.6098  1.2772 -0.0499
   8523SM   H7F11390   5.452   0.834  13.549  1.0786  1.9632 -0.8181
   8523SM   H7G11391   5.291   0.785  13.539  1.6705  0.5798  0.1111
   8523SM   C8F11392   5.310   0.975  13.642 -0.8073  0.1478 -0.0379
   8523SM   H8F11393   5.203   1.005  13.628 -0.7054  0.9645  0.8080
   8523SM   H8G11394   5.373   1.065  13.659  2.9497 -2.5215  1.5534
   8523SM   C9F11395   5.311   0.898  13.773 -0.1592  0.1589 -0.2927
   8523SM   H9F11396   5.409   0.850  13.796 -1.0573 -0.9723  1.3469
   8523SM   H9G11397   5.238   0.815  13.768 -0.8050  0.7707 -1.3059
   8523SM  C10F11398   5.269   0.986  13.893 -0.8148 -0.1197  0.1919
   8523SM  H10F11399   5.164   1.022  13.885 -0.4159  0.7744 -1.4874
   8523SM  H10G11400   5.320   1.084  13.888  0.2334 -0.5314  2.1389
   8523SM  C11F11401   5.297   0.932  14.034 -0.5226 -0.1583 -0.0153
   8523SM  H11F11402   5.406   0.938  14.058 -0.8750  1.5563  1.3101
   8523SM  H11G11403   5.278   0.823  14.042  2.0125 -0.5615  1.7288
   8523SM  C12F11404   5.188   0.997  14.123 -0.1675 -0.0688  0.3289
   8523SM  H12F11405   5.084   0.970  14.095  0.5714 -1.9348 -0.8107
   8523SM  H12G11406   5.193   1.108  14.130  1.0754 -0.1567  1.1130
   8523SM  C13F11407   5.211   0.945  14.269 -0.2427  0.0030 -0.1451
   8523SM  H13F11408   5.317   0.922  14.290  0.0141  0.0612 -1.3278
   8523SM  H13G11409   5.161   0.846  14.280 -1.0399  0.4608  0.5144
   8523SM  C14F11410   5.145   1.032  14.378 -0.1512 -0.2326  0.3081
   8523SM  H14F11411   5.034   1.027  14.373 -0.2038  1.4316 -1.0443
   8523SM  H14G11412   5.188   1.135  14.371  1.3026 -0.5316  3.2457
   8523SM  C15F11413   5.192   0.992  14.516  0.1691 -0.7715  0.2909
   8523SM  H15F11414   5.296   1.027  14.536  1.2904 -3.5286 -0.3093
   8523SM  H15G11415   5.202   0.882  14.517  4.0517 -0.5637  0.4953
   8523SM  C16F11416   5.087   1.014  14.618 -0.3805  1.0549 -0.2013
   8523SM  H16F11417   4.985   1.014  14.574 -0.1592  2.4000 -0.7629
   8523SM  H16G11418   5.104   1.115  14.661 -0.8181  0.5674  1.1650
   8523SM  C17F11419   5.082   0.917  14.736 -0.2032  0.4172  0.0268
   8523SM  H17F11420   5.173   0.940  14.796  1.0811 -2.1469 -0.7872
   8523SM  H17G11421   5.083   0.815  14.692  0.1601  0.1663  0.6040
   8523SM  C18F11422   4.960   0.938  14.823  0.5308  0.2199  0.3651
   8523SM  H18F11423   4.872   0.907  14.763  2.5140 -1.9208 -1.6687
   8523SM  H18G11424   4.944   1.037  14.870 -1.1170 -0.6372  1.7350
   8523SM  C19F11425   4.969   0.842  14.937  0.0623  0.4634  0.0812
   8523SM  H19F11426   5.053   0.875  15.003 -2.0149  1.5725  2.3344
   8523SM  H19G11427   4.981   0.737  14.905 -2.2533  0.4517 -0.8925
   8523SM  C20F11428   4.834   0.834  15.019  0.1987 -0.8239  0.4496
   8523SM  H20F11429   4.763   0.770  14.962  0.9310 -0.9151 -0.3778
   8523SM  H20G11430   4.790   0.936  15.026  0.8624 -0.5510  0.7403
   8523SM  C21F11431   4.844   0.786  15.162  0.4254  0.3683 -0.0843
   8523SM  H21F11432   4.921   0.845  15.216 -1.3155  3.0804 -0.3939
   8523SM  H21G11433   4.873   0.678  15.158 -2.8725 -0.6336  0.4065
   8523SM  C22F11434   4.711   0.794  15.230  0.3163  0.1537 -0.4489
   8523SM  H22F11435   4.637   0.732  15.175 -0.3283  0.4704  0.0482
   8523SM  H22G11436   4.673   0.899  15.232  1.9056  0.7419  0.1174
   8523SM  C23F11437   4.712   0.747  15.374 -0.0401  0.0075 -0.1794
   8523SM  H23F11438   4.773   0.816  15.436 -0.8010 -0.7791  1.5319
   8523SM  H23G11439   4.742   0.640  15.382 -0.3425 -0.1232 -0.7677
   8523SM  H23H11440   4.609   0.751  15.415 -0.1878 -1.0918 -0.4071
   8623SM     N11441   4.236   5.739  12.135  0.0089 -0.5704  0.4001
   8623SM   C1511442   4.300   5.631  12.057 -0.2240  0.3751 -0.2609
   8623SM  H15A11443   4.395   5.598  12.097  0.6763  1.0116 -1.7987
   8623SM  H15B11444   4.300   5.646  11.950  0.2369  1.2635 -0.1449
   8623SM  H15C11445   4.222   5.559  12.077 -1.5840  1.6583 -0.7316
   8623SM   C1411446   4.302   5.871  12.124  0.4063  0.1653 -0.2732
   8623SM  H14A11447   4.296   5.908  12.023 -0.3646 -0.2265 -0.3790
   8623SM  H14B11448   4.406   5.864  12.154  0.2426 -2.0574 -0.0099
   8623SM  H14C11449   4.253   5.946  12.184  0.4208  1.1889 -1.5087
   8623SM   C1311450   4.092   5.753  12.085  0.4247 -0.7269 -0.1632
   8623SM  H13A11451   4.039   5.823  12.148  4.7635  0.6840  2.3655
   8623SM  H13B11452   4.037   5.661  12.088  0.4366 -0.7650  3.3455
   8623SM  H13C11453   4.090   5.784  11.981 -0.7780 -1.8105 -0.4823
   8623SM   C1211454   4.224   5.693  12.280 -0.0329  0.5323 -0.5911
   8623SM  H12A11455   4.312   5.641  12.314 -1.6715 -0.9616  1.6784
   8623SM  H12B11456   4.156   5.608  12.279 -1.5211  1.6539 -2.1731
   8623SM   C1111457   4.180   5.798  12.385  0.0553 -0.4853 -0.1772
   8623SM  H11A11458   4.247   5.885  12.370 -1.0572  0.3828 -0.2250
   8623SM  H11B11459   4.196   5.759  12.487  1.7135  1.0652  0.2040
   8623SM     P11460   3.997   5.982  12.377  0.5126  0.3816 -0.2178
   8623SM   O1311461   4.085   6.064  12.291  0.0570  0.3592  0.2785
   8623SM   O1411462   3.852   5.989  12.349 -0.5457 -0.4439  0.0173
   8623SM   O1111463   4.033   6.002  12.527 -0.1539  1.0945  0.2671
   8623SM   O1211464   4.048   5.832  12.362  0.4408 -0.3614  0.7230
   8623SM   C1S11465   3.947   5.949  12.632 -0.5288  0.0214  0.0192
   8623SM   H1S11466   3.975   5.844  12.652 -1.1336  0.3161  2.8111
   8623SM   H1T11467   3.841   5.955  12.599 -0.1363  2.1812 -1.0687
   8623SM    NF11468   3.858   5.948  12.842  0.4818 -0.9004  0.2263
   8623SM   HNF11469   3.765   5.984  12.838  0.7720 -0.2002 -0.5571
   8623SM   C2S11470   3.955   6.024  12.766  0.1414 -0.4210 -0.2548
   8623SM   H2S11471   4.057   6.021  12.811 -0.3211  0.3980  0.8880
   8623SM   C3S11472   3.920   6.169  12.749 -0.4398  0.1610  0.4010
   8623SM   H3S11473   3.826   6.185  12.692  0.8738  0.1837 -1.8901
   8623SM    O311474   4.017   6.231  12.668 -0.4382 -0.2279  0.3916
   8623SM   HO311475   4.057   6.166  12.609 -0.7986  1.6560 -2.1163
   8623SM   C4S11476   3.918   6.239  12.881  0.0258  0.6659 -0.5706
   8623SM   H4S11477   3.999   6.203  12.944  0.1318  1.8433 -0.0069
   8623SM   C5S11478   3.821   6.314  12.937  0.2212  0.4900  0.5402
   8623SM   H5S11479   3.739   6.337  12.868  1.1105  0.6905 -0.4878
   8623SM   C6S11480   3.811   6.366  13.072 -0.6613 -0.7756 -0.0394
   8623SM   H6S11481   3.713   6.339  13.118 -0.4091  1.2239  1.8372
   8623SM   H6T11482   3.814   6.477  13.075  2.4248 -0.7208 -1.2934
   8623SM   C7S11483   3.919   6.311  13.173  0.9462  0.0892  0.2602
   8623SM   H7S11484   4.021   6.350  13.156  1.5022 -0.5606  1.8989
   8623SM   H7T11485   3.927   6.200  13.166 -3.1450 -0.3561  0.2162
   8623SM   C8S11486   3.874   6.344  13.314  0.0964  0.1584  0.5601
   8623SM   H8S11487   3.816   6.438  13.301 -3.0143 -1.9250 -2.2628
   8623SM   H8T11488   3.968   6.371  13.367  0.2918 -1.9219  1.3437
   8623SM   C9S11489   3.793   6.235  13.374  0.0671  0.3042 -0.6885
   8623SM   H9S11490   3.857   6.147  13.398  0.3031  1.1881  2.3350
   8623SM   H9T11491   3.721   6.200  13.297  0.2779 -1.8046  0.0061
   8623SM  C10S11492   3.724   6.274  13.508 -0.2535  0.0083 -0.2582
   8623SM  H10S11493   3.659   6.194  13.550 -0.1554  0.0305 -0.0621
   8623SM  H10T11494   3.656   6.359  13.488  0.5789  1.7187  3.4644
   8623SM  C11S11495   3.828   6.330  13.621  0.0061 -0.7826  0.0958
   8623SM  H11S11496   3.886   6.417  13.583 -2.5218  1.0843  0.2234
   8623SM  H11T11497   3.899   6.250  13.650  0.0820 -0.9070 -0.4316
   8623SM  C12S11498   3.764   6.353  13.754  0.7683  0.0793  0.3494
   8623SM  H12S11499   3.665   6.304  13.764  1.0095 -0.9439 -1.8205
   8623SM  H12T11500   3.744   6.463  13.759 -0.5504 -0.2035  2.0312
   8623SM  C13S11501   3.852   6.311  13.868 -0.0636 -0.7775  0.6738
   8623SM  H13S11502   3.959   6.329  13.842  0.1642 -1.2588  1.2580
   8623SM  H13T11503   3.854   6.201  13.886 -3.1572 -0.9218  0.5606
   8623SM  C14S11504   3.815   6.375  13.996 -0.1805  0.5763  0.8406
   8623SM  H14S11505   3.836   6.484  13.996  3.3279  0.0397 -0.0259
   8623SM  H14T11506   3.878   6.338  14.079  1.1981  0.4388 -0.2258
   8623SM  C15S11507   3.664   6.345  14.036  0.4029 -0.0212  0.3308
   8623SM  H15S11508   3.637   6.238  14.020 -0.5964  0.0170  1.6456
   8623SM  H15T11509   3.590   6.409  13.983 -1.9205 -1.7848  1.2916
   8623SM  C16S11510   3.635   6.368  14.186 -0.2041  0.1062  0.0107
   8623SM  H16S11511   3.696   6.298  14.246  0.3179 -1.3910 -2.1475
   8623SM  H16T11512   3.528   6.343  14.205 -0.9965  1.7929 -1.8450
   8623SM  C17S11513   3.659   6.508  14.233 -1.0867  0.3110  0.0700
   8623SM  H17S11514   3.608   6.578  14.162  1.8281  1.1023 -1.4110
   8623SM  H17T11515   3.769   6.496  14.220 -1.3242 -1.3589 -0.6941
   8623SM  C18S11516   3.619   6.536  14.381  0.2383  0.5156  0.5695
   8623SM  H18S11517   3.508   6.532  14.393  0.1859 -2.8645 -0.0751
   8623SM  H18T11518   3.661   6.631  14.419  2.6068 -0.4834  0.5918
   8623SM  H18U11519   3.662   6.454  14.442  0.4875  0.4471  0.3049
   8623SM   C1F11520   3.888   5.832  12.897  0.1103 -0.9837  0.3347
   8623SM    OF11521   4.006   5.799  12.909  0.0703  0.3178  0.0073
   8623SM   C2F11522   3.779   5.739  12.938 -0.8906  0.4979 -0.5156
   8623SM   H2F11523   3.821   5.637  12.944 -0.0804  0.8798  0.5833
   8623SM   H2G11524   3.695   5.729  12.865 -1.7369  0.2349  0.4758
   8623SM   C3F11525   3.711   5.770  13.070 -0.2978 -0.5995 -0.3834
   8623SM   H3F11526   3.632   5.692  13.069 -0.9586  0.0573 -0.1018
   8623SM   H3G11527   3.656   5.867  13.073 -1.4373 -1.2547  0.6010
   8623SM   C4F11528   3.809   5.766  13.191 -0.0900 -0.0160  0.2850
   8623SM   H4F11529   3.902   5.826  13.187 -0.9425  1.3557  0.2038
   8623SM   H4G11530   3.851   5.665  13.209  1.3686 -0.3658 -3.9192
   8623SM   C5F11531   3.746   5.829  13.317  0.6809  0.4811  0.8108
   8623SM   H5F11532   3.663   5.765  13.355  1.6539 -1.4537 -0.1518
   8623SM   H5G11533   3.697   5.928  13.303 -1.2898 -0.4071  1.1077
   8623SM   C6F11534   3.842   5.859  13.432  0.0436  0.6014  0.0463
   8623SM   H6F11535   3.911   5.941  13.403  0.5881  0.0669 -0.1824
   8623SM   H6G11536   3.911   5.776  13.454  0.7570  0.6758 -1.7045
   8623SM   C7F11537   3.758   5.894  13.559  0.2736 -0.2548 -0.6413
   8623SM   H7F11538   3.682   5.813  13.569 -0.8403  0.7087 -0.9399
   8623SM   H7G11539   3.699   5.988  13.547  1.0865  0.4233  0.5612
   8623SM   C8F11540   3.836   5.902  13.690 -0.8836  0.5403  0.6617
   8623SM   H8F11541   3.885   6.001  13.678 -1.0874  0.4776 -0.9439
   8623SM   H8G11542   3.905   5.816  13.693 -0.2439  1.0123  0.0562
   8623SM   C9F11543   3.735   5.904  13.806 -0.1296  0.0670  0.1523
   8623SM   H9F11544   3.661   5.821  13.798 -0.9088  0.7745 -0.0897
   8623SM   H9G11545   3.674   5.996  13.799  1.2986  1.0993  0.9499
   8623SM  C10F11546   3.801   5.899  13.938  0.8490 -0.2956 -0.2787
   8623SM  H10F11547   3.836   6.002  13.961 -1.0126 -0.1642  2.5847
   8623SM  H10G11548   3.887   5.831  13.950  0.8542 -0.0290  1.6645
   8623SM  C11F11549   3.700   5.867  14.051 -0.0264  0.3498  0.5133
   8623SM  H11F11550   3.672   5.761  14.040  0.2617  0.4324 -1.5506
   8623SM  H11G11551   3.613   5.934  14.033 -0.2185  0.0373  0.2720
   8623SM  C12F11552   3.748   5.902  14.194 -0.0304  0.5065  0.3617
   8623SM  H12F11553   3.749   6.012  14.210  1.3680  0.3193  1.7753
   8623SM  H12G11554   3.855   5.872  14.198  0.2934  1.6032  0.2477
   8623SM  C13F11555   3.663   5.832  14.300  0.8558  0.7945  0.0636
   8623SM  H13F11556   3.664   5.723  14.279  1.8166  0.8772 -0.3668
   8623SM  H13G11557   3.560   5.872  14.291  0.1175 -0.9701  0.2675
   8623SM  C14F11558   3.725   5.847  14.434 -0.0050 -0.3911 -0.5803
   8623SM  H14F11559   3.830   5.810  14.428  0.7012  1.3854  0.2805
   8623SM  H14G11560   3.672   5.787  14.511 -0.4474 -1.7168 -1.8629
   8623SM  C15F11561   3.730   5.986  14.485  0.2019  0.3991  0.6295
   8623SM  H15F11562   3.627   6.027  14.497 -1.1813 -2.2194 -1.3924
   8623SM  H15G11563   3.770   6.061  14.414 -2.4656  0.4425 -0.9853
   8623SM  C16F11564   3.787   5.994  14.630 -0.8412  0.0190  0.3424
   8623SM  H16F11565   3.894   5.962  14.630 -0.7431  0.2252 -1.3876
   8623SM  H16G11566   3.720   5.927  14.688 -1.7098  0.1456 -0.4937
   8623SM  C17F11567   3.773   6.137  14.686  0.1066  0.5266  0.4562
   8623SM  H17F11568   3.674   6.185  14.680  0.6516  1.6043 -0.2676
   8623SM  H17G11569   3.843   6.202  14.629 -0.3481 -1.0774 -2.0827
   8623SM  C18F11570   3.832   6.137  14.832 -0.2164  0.3885 -0.6738
   8623SM  H18F11571   3.938   6.109  14.813  0.9563  4.1139 -0.3891
   8623SM  H18G11572   3.785   6.056  14.892 -0.3506 -0.6281 -2.0896
   8623SM  C19F11573   3.841   6.280  14.895  0.3568  0.5016  0.0929
   8623SM  H19F11574   3.740   6.325  14.908 -0.5070 -0.7076 -1.9599
   8623SM  H19G11575   3.893   6.338  14.817 -0.8182 -0.5083 -1.5100
   8623SM  C20F11576   3.925   6.288  15.027 -0.6986  1.1027  0.0253
   8623SM  H20F11577   4.006   6.218  14.996 -0.0756  0.7298  2.3598
   8623SM  H20G11578   3.865   6.240  15.107  1.8664 -1.0887  0.7785
   8623SM  C21F11579   3.980   6.427  15.048 -0.5502  0.0104 -0.3056
   8623SM  H21F11580   3.908   6.497  15.095  0.6089  0.5329  0.7446
   8623SM  H21G11581   4.016   6.461  14.948 -2.0007  0.7503 -0.5977
   8623SM  C22F11582   4.108   6.428  15.137  0.0797  0.4674  0.1285
   8623SM  H22F11583   4.187   6.364  15.091  2.1135  0.7067  3.0369
   8623SM  H22G11584   4.084   6.379  15.234  1.6483  0.4918  0.5533
   8623SM  C23F11585   4.171   6.571  15.157  0.3146  0.0469 -0.5771
   8623SM  H23F11586   4.191   6.622  15.060  0.8663 -0.3008 -0.6494
   8623SM  H23G11587   4.265   6.576  15.216 -0.5665  1.1733  0.8108
   8623SM  H23H11588   4.094   6.629  15.213  0.4516  0.2349 -0.5837
   8723SM     N11589   4.791   5.264  12.459  0.1109 -0.4429  0.2309
   8723SM   C1511590   4.804   5.391  12.377  0.0572 -0.0364 -0.1845
   8723SM  H15A11591   4.717   5.392  12.313  0.7800  2.2067 -1.2217
   8723SM  H15B11592   4.887   5.388  12.308  1.8352 -0.4558  1.8773
   8723SM  H15C11593   4.809   5.483  12.433 -3.7993  0.7360 -0.8347
   8723SM   C1411594   4.774   5.155  12.360 -0.0429  0.0703  0.0680
   8723SM  H14A11595   4.845   5.172  12.281 -1.8287  2.7580 -1.0843
   8723SM  H14B11596   4.676   5.160  12.317  0.4110  0.3008 -0.9593
   8723SM  H14C11597   4.777   5.057  12.406 -3.3134 -0.0452  0.2300
   8723SM   C1311598   4.910   5.263  12.550  0.2298  0.3968 -0.1413
   8723SM  H13A11599   4.996   5.274  12.486  1.7735  2.1525  2.0466
   8723SM  H13B11600   4.913   5.163  12.591  0.2775  0.3370 -0.2939
   8723SM  H13C11601   4.911   5.336  12.630  0.4474 -1.4987  1.6872
   8723SM   C1211602   4.664   5.268  12.553  0.4094 -0.0457  0.5665
   8723SM  H12A11603   4.662   5.176  12.609  1.1906  1.3548  3.0780
   8723SM  H12B11604   4.577   5.280  12.491 -0.6007  0.5284  2.0299
   8723SM   C1111605   4.648   5.396  12.641 -0.5560 -0.0868 -0.1513
   8723SM  H11A11606   4.740   5.406  12.701 -0.9405 -1.2952  0.6813
   8723SM  H11B11607   4.577   5.387  12.726 -0.0842 -1.7478  0.0921
   8723SM     P11608   4.489   5.551  12.512  0.2236  0.5467 -0.2439
   8723SM   O1311609   4.504   5.639  12.396 -0.2089 -0.4150 -0.2553
   8723SM   O1411610   4.413   5.427  12.494  0.4348 -0.0108 -0.5269
   8723SM   O1111611   4.425   5.647  12.616 -0.1056 -0.1215  0.0575
   8723SM   O1211612   4.634   5.519  12.564 -0.2918 -0.6790 -0.0239
   8723SM   C1S11613   4.339   5.602  12.726  0.3430  0.1406 -0.0885
   8723SM   H1S11614   4.343   5.496  12.759 -0.3237  0.4173  0.9010
   8723SM   H1T11615   4.233   5.615  12.695  0.5317 -0.5351 -1.0726
   8723SM    NF11616   4.269   5.646  12.948  0.4527 -0.2836 -0.0420
   8723SM   HNF11617   4.175   5.678  12.937  0.4124 -0.6564 -0.7888
   8723SM   C2S11618   4.358   5.686  12.853 -0.3649 -0.5731  0.0171
   8723SM   H2S11619   4.460   5.676  12.895 -0.5519  0.1899  0.6844
   8723SM   C3S11620   4.343   5.832  12.820 -0.2640 -0.3690  0.4577
   8723SM   H3S11621   4.236   5.838  12.790 -1.6861  0.4311  4.9866
   8723SM    O311622   4.416   5.883  12.711 -0.5258 -0.3922 -0.1970
   8723SM   HO311623   4.440   5.809  12.655 -1.3442 -1.0166  0.2578
   8723SM   C4S11624   4.350   5.916  12.940  0.4113 -0.1379  0.5423
   8723SM   H4S11625   4.260   5.891  12.998 -0.4641 -0.0657 -0.7424
   8723SM   C5S11626   4.437   6.014  12.985  0.6058 -0.0583 -0.8116
   8723SM   H5S11627   4.529   6.038  12.930  0.9919  0.7530  0.1589
   8723SM   C6S11628   4.421   6.087  13.117  0.1567  0.8778  0.3701
   8723SM   H6S11629   4.490   6.174  13.122  1.0263  0.2322 -0.0554
   8723SM   H6T11630   4.442   6.017  13.200 -1.8595 -0.0846  0.1303
   8723SM   C7S11631   4.281   6.136  13.148  0.4681  0.6270 -0.0892
   8723SM   H7S11632   4.199   6.062  13.135  1.5427 -0.5687 -0.2545
   8723SM   H7T11633   4.251   6.217  13.078 -0.3694 -2.3864 -3.4801
   8723SM   C8S11634   4.280   6.193  13.297  0.4870 -0.0728  0.0671
   8723SM   H8S11635   4.183   6.247  13.307 -0.5590 -1.9333  0.3261
   8723SM   H8T11636   4.376   6.248  13.303  0.8325 -0.6276 -0.3290
   8723SM   C9S11637   4.283   6.083  13.406 -0.1241 -0.0193 -0.0756
   8723SM   H9S11638   4.386   6.043  13.411  1.0948  3.0541  2.7110
   8723SM   H9T11639   4.207   6.006  13.381 -1.1041  0.7812  0.3813
   8723SM  C10S11640   4.249   6.148  13.539 -0.2062 -0.1036 -0.7475
   8723SM  H10S11641   4.143   6.179  13.529 -0.5175 -0.5260  0.8844
   8723SM  H10T11642   4.307   6.242  13.553 -1.4244  0.3304  1.9920
   8723SM  C11S11643   4.261   6.052  13.658 -0.3336 -0.0726 -0.5455
   8723SM  H11S11644   4.371   6.034  13.660 -0.3083 -0.3889 -2.3232
   8723SM  H11T11645   4.214   5.953  13.642 -4.0058  0.9076  2.7541
   8723SM  C12S11646   4.220   6.118  13.787 -0.0302  0.3587 -0.0789
   8723SM  H12S11647   4.112   6.141  13.780  0.0047  0.7734  0.5936
   8723SM  H12T11648   4.272   6.215  13.805  1.9949 -1.0282  2.1944
   8723SM  C13S11649   4.235   6.023  13.911 -0.2228  0.2589  0.3784
   8723SM  H13S11650   4.340   5.988  13.905 -0.6964 -0.9410 -2.7489
   8723SM  H13T11651   4.175   5.933  13.886 -0.1610  0.6856 -1.4342
   8723SM  C14S11652   4.196   6.083  14.045  0.3146 -0.7507  0.0536
   8723SM  H14S11653   4.095   6.129  14.036 -0.3115 -2.3339 -1.9297
   8723SM  H14T11654   4.267   6.163  14.073  0.1426  0.2881 -2.2152
   8723SM  C15S11655   4.198   5.982  14.162  0.2891 -0.5167 -0.7340
   8723SM  H15S11656   4.284   5.912  14.147  0.0060 -0.9621 -0.3232
   8723SM  H15T11657   4.106   5.920  14.171  0.4169 -0.3658  5.0112
   8723SM  C16S11658   4.197   6.050  14.302 -0.0645 -0.9974  0.9892
   8723SM  H16S11659   4.298   6.093  14.318  0.8821 -3.0086  0.6665
   8723SM  H16T11660   4.178   5.976  14.383 -0.3231 -2.5640 -0.4537
   8723SM  C17S11661   4.090   6.162  14.321 -0.0418  0.4375  0.6375
   8723SM  H17S11662   3.988   6.124  14.297  0.8020 -0.8743 -1.1019
   8723SM  H17T11663   4.113   6.239  14.244  0.3500 -1.5000 -1.2816
   8723SM  C18S11664   4.103   6.219  14.461  0.2994  0.9042 -0.6072
   8723SM  H18S11665   4.095   6.134  14.532 -0.7670  1.4617 -0.0290
   8723SM  H18T11666   4.027   6.294  14.491 -0.6518 -0.3478  0.2629
   8723SM  H18U11667   4.202   6.268  14.461  0.8442 -0.1437  0.1757
   8723SM   C1F11668   4.289   5.554  13.040 -0.4847  0.1267 -0.2542
   8723SM    OF11669   4.387   5.486  13.036 -0.2535 -0.0810  0.2246
   8723SM   C2F11670   4.188   5.540  13.149 -0.0185 -0.8622 -0.5836
   8723SM   H2F11671   4.136   5.446  13.121  0.2779 -1.8568  1.9979
   8723SM   H2G11672   4.120   5.627  13.139 -0.9043 -1.5926 -1.0269
   8723SM   C3F11673   4.249   5.541  13.287  0.0254 -0.1747 -0.7000
   8723SM   H3F11674   4.320   5.456  13.287  1.2296  0.7770 -2.4532
   8723SM   H3G11675   4.166   5.503  13.350  0.6695 -1.7121 -0.7527
   8723SM   C4F11676   4.315   5.667  13.337 -0.0223 -0.0731 -0.1174
   8723SM   H4F11677   4.250   5.754  13.313  1.1054  0.8140 -0.0317
   8723SM   H4G11678   4.408   5.684  13.280  0.6227  1.7865  1.3703
   8723SM   C5F11679   4.352   5.669  13.484  0.2899 -0.3496 -0.1957
   8723SM   H5F11680   4.407   5.761  13.514 -0.3757  0.0149 -0.0662
   8723SM   H5G11681   4.425   5.587  13.500  0.8795  0.2085  0.0514
   8723SM   C6F11682   4.240   5.652  13.580  0.2650 -0.4000  0.5306
   8723SM   H6F11683   4.180   5.561  13.558  1.5368 -0.9033 -1.0364
   8723SM   H6G11684   4.185   5.748  13.570  2.3863  0.9006  0.7384
   8723SM   C7F11685   4.297   5.640  13.721  0.7317 -0.4687 -0.6452
   8723SM   H7F11686   4.355   5.733  13.741  1.0168 -0.9243  0.7897
   8723SM   H7G11687   4.365   5.552  13.722 -0.7459 -1.7626  2.5039
   8723SM   C8F11688   4.189   5.628  13.826 -0.3766 -0.3424  0.7042
   8723SM   H8F11689   4.134   5.532  13.817 -1.9166  0.6551 -1.5699
   8723SM   H8G11690   4.107   5.698  13.801 -0.8590 -1.3723 -0.7781
   8723SM   C9F11691   4.238   5.642  13.976 -0.7429 -0.0657  0.1920
   8723SM   H9F11692   4.308   5.727  13.989  1.0552 -1.1223 -1.9257
   8723SM   H9G11693   4.291   5.548  14.003  0.6254  0.3543 -0.9212
   8723SM  C10F11694   4.118   5.648  14.081 -0.2520 -0.4518  0.0534
   8723SM  H10F11695   4.034   5.578  14.059  0.1737 -0.5353 -1.3650
   8723SM  H10G11696   4.078   5.750  14.063 -3.8707 -1.3659  1.8892
   8723SM  C11F11697   4.164   5.637  14.227 -0.2878  0.1487 -0.1016
   8723SM  H11F11698   4.263   5.687  14.236  1.8915 -3.6232 -0.6810
   8723SM  H11G11699   4.185   5.529  14.247 -0.7805  0.3048  1.3322
   8723SM  C12F11700   4.053   5.681  14.318 -0.0037 -0.5115 -0.2398
   8723SM  H12F11701   3.965   5.620  14.287  0.1929 -2.2859  2.4275
   8723SM  H12G11702   4.042   5.790  14.301  2.3809 -0.3473 -1.0754
   8723SM  C13F11703   4.076   5.652  14.466 -0.2887  0.4889 -0.5056
   8723SM  H13F11704   4.095   5.545  14.486  1.7926  1.1189  1.2690
   8723SM  H13G11705   3.980   5.675  14.518  0.4668  2.5415  0.0744
   8723SM  C14F11706   4.194   5.714  14.534  0.0700 -0.4054  0.1777
   8723SM  H14F11707   4.182   5.824  14.520  0.3751 -0.0781  2.1885
   8723SM  H14G11708   4.284   5.681  14.478 -1.9617 -0.2807 -3.4907
   8723SM  C15F11709   4.199   5.684  14.685  0.1697  0.4464  0.4576
   8723SM  H15F11710   4.288   5.736  14.726  1.4984  0.4123 -2.1769
   8723SM  H15G11711   4.212   5.574  14.697 -0.7363  0.2423 -0.2810
   8723SM  C16F11712   4.074   5.739  14.766  0.2487  0.4790  0.4349
   8723SM  H16F11713   3.976   5.704  14.728 -0.1260  1.7375  0.2042
   8723SM  H16G11714   4.073   5.849  14.753  0.1172  0.5761  1.2233
   8723SM  C17F11715   4.079   5.705  14.916 -0.5172 -0.5130 -0.1540
   8723SM  H17F11716   4.185   5.699  14.946 -0.3482 -0.6627 -0.7737
   8723SM  H17G11717   4.025   5.608  14.927 -0.9032 -0.2510  0.3119
   8723SM  C18F11718   4.003   5.817  14.997  0.0403  0.3379 -0.0632
   8723SM  H18F11719   3.894   5.818  14.974  0.1650 -2.1497 -1.0914
   8723SM  H18G11720   4.052   5.914  14.976  0.6023  0.6546  2.4519
   8723SM  C19F11721   4.036   5.789  15.147 -0.0549  0.1760 -0.0791
   8723SM  H19F11722   4.145   5.771  15.158  0.1674  0.4812 -1.5762
   8723SM  H19G11723   3.994   5.687  15.157  0.3026 -0.1319 -1.4405
   8723SM  C20F11724   3.990   5.904  15.243  0.7925 -0.8687  0.3390
   8723SM  H20F11725   4.042   5.996  15.207 -1.8388 -0.3015 -2.3535
   8723SM  H20G11726   4.027   5.878  15.345  0.5496 -0.3866  0.5499
   8723SM  C21F11727   3.838   5.904  15.266  0.0068  0.4358 -0.7426
   8723SM  H21F11728   3.787   5.934  15.172 -0.5451 -1.6698 -1.1700
   8723SM  H21G11729   3.814   5.982  15.341  0.9867 -1.4865  1.7193
   8723SM  C22F11730   3.782   5.774  15.330  0.3539 -0.8339  1.0657
   8723SM  H22F11731   3.854   5.739  15.407 -0.7310 -0.6997  2.1737
   8723SM  H22G11732   3.782   5.701  15.246  0.0563  0.0780  0.2550
   8723SM  C23F11733   3.639   5.780  15.384  0.0647  0.1201  0.0289
   8723SM  H23F11734   3.582   5.814  15.295 -0.1333  0.7900  0.4063
   8723SM  H23G11735   3.619   5.844  15.472 -1.7913 -1.8313  1.1315
   8723SM  H23H11736   3.626   5.675  15.418  0.4626  0.3309  0.8648
   8823SM     N11737   0.664   0.361  13.461  0.1673  0.0815 -0.7313
   8823SM   C1511738   0.528   0.353  13.400  0.4217  0.2849 -0.2778
   8823SM  H15A11739   0.463   0.283  13.449  1.7222 -2.1727 -1.8816
   8823SM  H15B11740   0.525   0.330  13.295 -0.0195  0.8843 -0.4034
   8823SM  H15C11741   0.473   0.446  13.411  0.9319  0.8889 -2.3213
   8823SM   C1411742   0.747   0.464  13.393 -0.6376  0.3419  0.3362
   8823SM  H14A11743   0.832   0.493  13.454 -0.6338 -0.2620  0.6196
   8823SM  H14B11744   0.694   0.554  13.366  2.4724  2.1037 -0.4316
   8823SM  H14C11745   0.781   0.429  13.297  0.2928  1.9158  0.0573
   8823SM   C1311746   0.643   0.391  13.607 -0.7350 -0.5034 -0.2715
   8823SM  H13A11747   0.570   0.318  13.638 -1.3129 -0.2223 -0.9329
   8823SM  H13B11748   0.601   0.490  13.617 -3.2462 -1.3098 -1.7309
   8823SM  H13C11749   0.728   0.381  13.672 -0.8695 -2.2858 -0.3247
   8823SM   C1211750   0.746   0.228  13.462  0.3628  0.3503  0.7642
   8823SM  H12A11751   0.849   0.254  13.479  0.8502  1.0515 -2.5710
   8823SM  H12B11752   0.740   0.190  13.361 -0.0506 -2.5361  1.7760
   8823SM   C1111753   0.702   0.104  13.546 -0.3995 -0.8105 -0.1365
   8823SM  H11A11754   0.705   0.121  13.655  0.8909 -0.1723 -0.2543
   8823SM  H11B11755   0.779   0.026  13.531  1.6148  1.4613 -2.5818
   8823SM     P11756   0.447   0.046  13.574 -0.6446 -0.3991  0.0046
   8823SM   O1311757   0.440   0.145  13.679  0.0827 -0.4007 -0.0485
   8823SM   O1411758   0.333   0.036  13.475 -0.8233  0.6426 -0.1852
   8823SM   O1111759   0.445  -0.094  13.644  0.0669  0.3138 -0.4487
   8823SM   O1211760   0.580   0.059  13.495  0.5063 -0.5092 -0.2793
   8823SM   C1S11761   0.550  -0.119  13.745 -0.1767  0.5355 -0.4409
   8823SM   H1S11762   0.585  -0.021  13.784 -1.5991  1.0693 -0.4423
   8823SM   H1T11763   0.639  -0.174  13.707  1.4764  2.7210  0.1037
   8823SM    NF11764   0.600  -0.208  13.966 -0.4257 -0.9993  0.2633
   8823SM   HNF11765   0.645  -0.297  13.974  0.7605 -0.2453  4.5945
   8823SM   C2S11766   0.494  -0.199  13.868 -0.6506 -1.0105  0.0692
   8823SM   H2S11767   0.417  -0.139  13.920  1.0649  0.2444  1.2736
   8823SM   C3S11768   0.438  -0.335  13.823 -0.1207 -0.4655 -0.0277
   8823SM   H3S11769   0.520  -0.390  13.772 -0.7817 -0.7680 -0.7787
   8823SM    O311770   0.348  -0.332  13.710  0.1605 -0.1651 -0.5575
   8823SM   HO311771   0.369  -0.247  13.671  2.7450  1.2000  3.2043
   8823SM   C4S11772   0.393  -0.409  13.945  0.0095 -0.2285  0.5730
   8823SM   H4S11773   0.461  -0.413  14.032  0.0236  1.1345  0.6558
   8823SM   C5S11774   0.265  -0.446  13.970  0.1263 -0.1768  0.1299
   8823SM   H5S11775   0.181  -0.422  13.903  0.5637  0.7092 -0.1016
   8823SM   C6S11776   0.226  -0.485  14.110 -0.2376 -0.0265  0.0979
   8823SM   H6S11777   0.313  -0.541  14.149 -0.6654 -0.6380  0.1943
   8823SM   H6T11778   0.142  -0.558  14.103 -0.8314  0.6323  0.1988
   8823SM   C7S11779   0.177  -0.378  14.209  0.6822  0.3631  0.4427
   8823SM   H7S11780   0.086  -0.328  14.172  1.2666  0.1328 -1.3901
   8823SM   H7T11781   0.252  -0.298  14.221  1.5328 -0.1377 -1.2310
   8823SM   C8S11782   0.158  -0.430  14.353  0.2110 -0.5790  0.1325
   8823SM   H8S11783   0.233  -0.500  14.397  0.3912 -0.3177  0.2419
   8823SM   H8T11784   0.056  -0.469  14.374 -0.7457  2.2354  1.1003
   8823SM   C9S11785   0.163  -0.324  14.467 -0.2738 -0.3238  0.1378
   8823SM   H9S11786   0.076  -0.258  14.452 -0.0175 -0.2761 -1.3537
   8823SM   H9T11787   0.257  -0.264  14.462  0.7297 -1.6125  2.2346
   8823SM  C10S11788   0.159  -0.388  14.611  0.4087 -0.1642  0.1646
   8823SM  H10S11789   0.256  -0.430  14.642  0.5295 -0.5886 -0.7679
   8823SM  H10T11790   0.093  -0.476  14.595  0.5879 -0.1573 -0.6769
   8823SM  C11S11791   0.098  -0.303  14.717  0.8051  0.2181  0.0033
   8823SM  H11S11792   0.090  -0.361  14.811 -1.6298  1.4013  0.6182
   8823SM  H11T11793   0.000  -0.257  14.688  1.0541 -0.3663 -1.8953
   8823SM  C12S11794   0.197  -0.190  14.752  0.4074  0.5258  0.4388
   8823SM  H12S11795   0.192  -0.117  14.668  0.8255 -0.6912 -0.6782
   8823SM  H12T11796   0.301  -0.229  14.752 -0.6722 -2.6405  1.2844
   8823SM  C13S11797   0.165  -0.118  14.883 -0.2811  0.5132 -0.2378
   8823SM  H13S11798   0.227  -0.027  14.902 -1.8162  1.2370  1.7112
   8823SM  H13T11799   0.196  -0.184  14.967 -0.0663  0.5777 -0.2675
   8823SM  C14S11800   0.009  -0.087  14.889  0.3747 -0.6816  0.1082
   8823SM  H14S11801  -0.044  -0.175  14.931 -1.1836  0.0663 -0.2424
   8823SM  H14T11802  -0.006  -0.065  14.782  3.1813  0.4524 -0.1426
   8823SM  C15S11803  -0.021   0.022  14.993 -0.3965  0.2913 -0.0713
   8823SM  H15S11804  -0.131   0.037  14.981 -0.1791  1.1950 -0.9523
   8823SM  H15T11805   0.036   0.112  14.963 -0.0569 -0.5138 -1.9531
   8823SM  C16S11806   0.004  -0.019  15.138 -0.0536  0.0817 -0.1124
   8823SM  H16S11807   0.110  -0.010  15.171 -0.7390  0.6528  2.1034
   8823SM  H16T11808  -0.032  -0.123  15.152 -0.2182  0.2399  0.6743
   8823SM  C17S11809  -0.056   0.092  15.229  0.5717  0.5263  0.0585
   8823SM  H17S11810  -0.155   0.123  15.190  0.2705 -0.3240  0.1415
   8823SM  H17T11811   0.001   0.187  15.218  1.2301  0.2567  1.0430
   8823SM  C18S11812  -0.064   0.044  15.369 -0.3499 -0.4198 -0.0139
   8823SM  H18S11813   0.036   0.020  15.411 -0.6395 -1.3262  0.1690
   8823SM  H18T11814  -0.132  -0.041  15.389 -0.4290 -0.1440  0.9051
   8823SM  H18U11815  -0.117   0.123  15.426  0.9919  0.7406 -0.3089
   8823SM   C1F11816   0.649  -0.109  14.043 -0.7587 -0.8973  0.3985
   8823SM    OF11817   0.612   0.005  14.027 -0.0973  0.1115 -0.0792
   8823SM   C2F11818   0.742  -0.147  14.156  0.2546  0.1203 -0.3282
   8823SM   H2F11819   0.842  -0.117  14.118  0.1545 -0.4644 -1.0625
   8823SM   H2G11820   0.733  -0.256  14.170  1.2099  0.0321 -0.3157
   8823SM   C3F11821   0.707  -0.067  14.287 -0.6884  0.3608  0.3127
   8823SM   H3F11822   0.709   0.043  14.272  0.2327  0.6982  2.4696
   8823SM   H3G11823   0.772  -0.093  14.374 -1.3761 -0.3111  0.6419
   8823SM   C4F11824   0.569  -0.108  14.352 -0.0011 -0.1103 -0.1265
   8823SM   H4F11825   0.548  -0.213  14.323 -0.9395  0.1132 -0.2601
   8823SM   H4G11826   0.492  -0.040  14.310  0.4584  0.0154 -0.7992
   8823SM   C5F11827   0.562  -0.065  14.502  0.0091 -0.5117 -0.3477
   8823SM   H5F11828   0.454  -0.051  14.524 -0.0828 -2.3582  0.5431
   8823SM   H5G11829   0.613   0.033  14.507 -0.0794 -0.5220  1.0446
   8823SM   C6F11830   0.595  -0.167  14.602  0.8190 -0.1956 -0.2721
   8823SM   H6F11831   0.695  -0.211  14.583  1.1863  1.6068 -3.1356
   8823SM   H6G11832   0.523  -0.252  14.604  0.2319  0.2959  1.2632
   8823SM   C7F11833   0.577  -0.107  14.750 -0.3700  0.0514  0.3008
   8823SM   H7F11834   0.487  -0.041  14.756 -0.9338 -0.7317  0.7138
   8823SM   H7G11835   0.665  -0.049  14.783 -1.3643  0.5532  2.2609
   8823SM   C8F11836   0.563  -0.219  14.856  1.1039 -0.8500  0.4024
   8823SM   H8F11837   0.660  -0.270  14.869  1.0209 -1.0924  0.0716
   8823SM   H8G11838   0.488  -0.295  14.827  0.2375  0.2194 -0.2551
   8823SM   C9F11839   0.524  -0.165  14.999 -0.8994 -0.1467  0.2632
   8823SM   H9F11840   0.465  -0.072  14.983 -1.1632  0.0666  2.1634
   8823SM   H9G11841   0.625  -0.139  15.039 -0.2195  0.0199 -1.4860
   8823SM  C10F11842   0.461  -0.265  15.097 -0.0595 -0.6134 -0.2062
   8823SM  H10F11843   0.517  -0.361  15.089 -1.0107 -1.1333 -0.8279
   8823SM  H10G11844   0.360  -0.289  15.058 -0.7570  0.6601  0.7747
   8823SM  C11F11845   0.457  -0.227  15.243  0.2311 -0.2557 -0.1391
   8823SM  H11F11846   0.537  -0.151  15.258  0.0525  0.1803 -1.3455
   8823SM  H11G11847   0.459  -0.317  15.308 -0.2190 -0.9239 -1.0398
   8823SM  C12F11848   0.326  -0.148  15.279 -0.3274 -0.6958  0.6096
   8823SM  H12F11849   0.235  -0.206  15.253 -0.0310 -0.9001  0.0235
   8823SM  H12G11850   0.323  -0.049  15.227  1.0154 -1.3620 -0.8206
   8823SM  C13F11851   0.307  -0.136  15.432 -0.5076  0.5243 -0.5898
   8823SM  H13F11852   0.279  -0.029  15.439  2.4982  1.4629 -1.2079
   8823SM  H13G11853   0.406  -0.130  15.483 -0.7604  0.3273 -0.0683
   8823SM  C14F11854   0.207  -0.243  15.495 -0.0208 -0.3126  0.3462
   8823SM  H14F11855   0.129  -0.272  15.421  1.5562 -2.8705 -0.4536
   8823SM  H14G11856   0.160  -0.195  15.584  1.9247  0.3076  1.0812
   8823SM  C15F11857   0.277  -0.377  15.533  0.9905 -0.3520  0.0387
   8823SM  H15F11858   0.369  -0.344  15.587  0.4113  2.0564 -0.3320
   8823SM  H15G11859   0.301  -0.439  15.444  1.2951 -1.4998  0.9012
   8823SM  C16F11860   0.199  -0.463  15.628  0.0417  0.6124 -0.2124
   8823SM  H16F11861   0.098  -0.475  15.584  0.0341 -1.6986  0.2878
   8823SM  H16G11862   0.190  -0.398  15.718 -2.4063 -1.8830  1.5186
   8823SM  C17F11863   0.261  -0.595  15.670 -0.0000 -0.4951 -0.1731
   8823SM  H17F11864   0.370  -0.573  15.680  0.6067 -1.6248 -3.1644
   8823SM  H17G11865   0.258  -0.667  15.585  1.6684  0.0250 -0.7234
   8823SM  C18F11866   0.208  -0.663  15.796 -0.5280 -0.2993 -0.2040
   8823SM  H18F11867   0.206  -0.586  15.876 -1.0738  0.3550 -0.8352
   8823SM  H18G11868   0.281  -0.739  15.833  0.9096  1.4069  0.6093
   8823SM  C19F11869   0.063  -0.713  15.777  0.6069  0.0577 -0.5634
   8823SM  H19F11870   0.055  -0.786  15.693  0.4038 -0.4787 -0.0841
   8823SM  H19G11871  -0.010  -0.639  15.739 -1.1521 -1.0736  0.4785
   8823SM  C20F11872   0.007  -0.765  15.907 -0.1935  0.6850  0.5862
   8823SM  H20F11873   0.004  -0.669  15.963  1.8962  0.4776  1.1307
   8823SM  H20G11874   0.068  -0.833  15.970  1.4085 -1.7709 -3.2611
   8823SM  C21F11875  -0.140  -0.814  15.903 -0.6831  0.0125 -0.4780
   8823SM  H21F11876  -0.201  -0.732  15.858 -0.4109  0.6015  0.2100
   8823SM  H21G11877  -0.172  -0.828  16.008  0.0154 -1.8182 -0.4651
   8823SM  C22F11878  -0.176  -0.951  15.842  0.3301 -0.1910  0.0917
   8823SM  H22F11879  -0.148  -1.035  15.909 -0.7662 -2.3637 -1.9935
   8823SM  H22G11880  -0.138  -0.968  15.739 -0.2443  1.4362 -0.4163
   8823SM  C23F11881  -0.335  -0.960  15.834  0.6931 -0.3400 -0.3390
   8823SM  H23F11882  -0.351  -1.045  15.764 -0.1864 -0.6229  0.1894
   8823SM  H23G11883  -0.393  -0.879  15.785 -0.1804 -2.5549 -3.3135
   8823SM  H23H11884  -0.376  -0.981  15.935  3.0466  0.4676  0.8467
   8923SM     N11885   5.202   5.667  13.310 -0.0271 -0.3313 -0.1326
   8923SM   C1511886   5.335   5.619  13.359 -0.1299 -0.2814 -0.3310
   8923SM  H15A11887   5.394   5.707  13.380  0.0261 -0.1788 -1.1511
   8923SM  H15B11888   5.390   5.557  13.290 -0.7703 -1.4756  0.2070
   8923SM  H15C11889   5.319   5.555  13.445  0.1317 -2.1976 -1.6380
   8923SM   C1411890   5.112   5.551  13.281 -0.0359 -0.7759  0.2884
   8923SM  H14A11891   5.096   5.488  13.368  0.3615 -0.1068  0.8601
   8923SM  H14B11892   5.146   5.496  13.195 -1.2880 -1.8149  0.4311
   8923SM  H14C11893   5.017   5.585  13.244  0.6652  0.7274 -0.1778
   8923SM   C1311894   5.145   5.741  13.423 -0.6508 -0.7927 -0.0814
   8923SM  H13A11895   5.226   5.795  13.469  0.1538 -2.1469  0.1530
   8923SM  H13B11896   5.096   5.675  13.493 -1.4946  1.0675  1.1537
   8923SM  H13C11897   5.076   5.818  13.391  1.8144  1.4676 -0.3155
   8923SM   C1211898   5.225   5.750  13.186  0.1032  0.4931 -0.0206
   8923SM  H12A11899   5.266   5.682  13.113 -0.3215 -0.3431  0.5103
   8923SM  H12B11900   5.301   5.826  13.201  1.1890 -0.3979 -0.8232
   8923SM   C1111901   5.105   5.814  13.121 -0.3390 -0.7100 -0.0782
   8923SM  H11A11902   5.073   5.896  13.188  1.1050  0.6510 -1.0012
   8923SM  H11B11903   5.022   5.739  13.122 -1.3944  0.3581  2.9487
   8923SM     P11904   5.241   5.991  12.980 -0.0681 -0.2477 -0.0161
   8923SM   O1311905   5.379   5.943  12.957  0.1916  0.2854  0.7117
   8923SM   O1411906   5.182   6.085  12.882  0.1856  0.0441  0.4977
   8923SM   O1111907   5.236   6.045  13.128  0.3331 -0.2768 -0.4816
   8923SM   O1211908   5.145   5.863  12.993  0.6994  0.0555  0.6637
   8923SM   C1S11909   5.311   6.160  13.176 -0.1969  0.0550  0.1816
   8923SM   H1S11910   5.345   6.224  13.092  0.2426  0.9851  1.0551
   8923SM   H1T11911   5.401   6.127  13.232 -0.2354  0.2024  0.3279
   8923SM    NF11912   5.295   6.365  13.299 -0.0774 -0.5099  0.1170
   8923SM   HNF11913   5.359   6.369  13.375  0.9800 -1.2111 -0.7007
   8923SM   C2S11914   5.222   6.240  13.271  0.2185  0.5488  0.8477
   8923SM   H2S11915   5.121   6.271  13.235  1.2815  2.6957 -0.5373
   8923SM   C3S11916   5.184   6.153  13.398 -0.6354  0.4580 -0.1553
   8923SM   H3S11917   5.268   6.087  13.428  1.1328  2.6218 -0.0593
   8923SM    O311918   5.089   6.056  13.363 -0.0417  0.1741 -0.6676
   8923SM   HO311919   5.124   6.035  13.276 -0.6825  0.7439 -1.0711
   8923SM   C4S11920   5.126   6.226  13.513 -0.1106 -0.4763 -0.5253
   8923SM   H4S11921   5.026   6.271  13.500  1.5464  4.3708  1.1217
   8923SM   C5S11922   5.196   6.251  13.622 -0.1858  0.3165  0.4848
   8923SM   H5S11923   5.302   6.227  13.637 -0.4679 -0.0502  2.1655
   8923SM   C6S11924   5.140   6.333  13.739  0.3096 -0.4126 -0.0475
   8923SM   H6S11925   5.043   6.379  13.708 -0.5053 -1.5062  0.7883
   8923SM   H6T11926   5.210   6.415  13.766 -0.7499  1.6420 -3.0182
   8923SM   C7S11927   5.104   6.249  13.867 -0.0537 -0.2814  0.0743
   8923SM   H7S11928   5.185   6.179  13.896 -1.1722 -1.8199 -0.3721
   8923SM   H7T11929   5.025   6.173  13.846 -1.0042  0.4947  0.7194
   8923SM   C8S11930   5.071   6.343  13.984 -0.2282  0.2667  0.3156
   8923SM   H8S11931   4.989   6.413  13.958  0.0449 -0.2491 -2.1576
   8923SM   H8T11932   5.162   6.402  14.007  0.4552 -1.2673  1.8418
   8923SM   C9S11933   5.025   6.265  14.109 -0.5654  0.3757  0.0179
   8923SM   H9S11934   5.112   6.200  14.131 -0.5900  0.6964  1.1164
   8923SM   H9T11935   4.937   6.201  14.084 -0.3566 -0.4880  1.3596
   8923SM  C10S11936   5.000   6.347  14.241 -0.7359 -0.4244  0.0129
   8923SM  H10S11937   4.913   6.417  14.234  0.0257  0.4418 -1.0785
   8923SM  H10T11938   5.089   6.412  14.252 -1.3742  0.3028  1.1909
   8923SM  C11S11939   4.998   6.249  14.360 -0.3152  0.2995  0.2880
   8923SM  H11S11940   5.084   6.179  14.345 -0.8946 -0.7396  1.6709
   8923SM  H11T11941   4.907   6.186  14.364  0.3293 -0.6099  1.4780
   8923SM  C12S11942   5.030   6.334  14.488  1.1017  0.0798 -0.4758
   8923SM  H12S11943   4.968   6.425  14.471  0.0011 -0.6971 -0.7229
   8923SM  H12T11944   5.136   6.365  14.504  1.7076 -1.1852 -1.7994
   8923SM  C13S11945   4.985   6.255  14.615  0.2021  0.1739  0.1518
   8923SM  H13S11946   5.050   6.165  14.619 -1.0416 -0.7212  1.2287
   8923SM  H13T11947   4.893   6.195  14.599  2.0320 -3.3600  1.6307
   8923SM  C14S11948   4.987   6.327  14.745 -0.0389  0.0669  0.2982
   8923SM  H14S11949   5.093   6.359  14.759  0.3094 -0.5793 -0.7517
   8923SM  H14T11950   4.967   6.249  14.823  0.9126 -2.2774 -1.6669
   8923SM  C15S11951   4.880   6.441  14.752  0.4499  0.3438 -0.1115
   8923SM  H15S11952   4.779   6.395  14.757 -0.4847  2.0697 -1.5903
   8923SM  H15T11953   4.882   6.498  14.656  0.2295  0.1424 -0.2375
   8923SM  C16S11954   4.908   6.534  14.868  0.2481 -0.0180 -0.3222
   8923SM  H16S11955   4.857   6.632  14.859 -0.5284 -0.2833  1.0406
   8923SM  H16T11956   5.018   6.550  14.874 -0.0410  2.0465  0.3034
   8923SM  C17S11957   4.843   6.486  14.994 -0.0894  0.4647  0.2346
   8923SM  H17S11958   4.879   6.384  15.018  2.5235  1.1761 -0.2977
   8923SM  H17T11959   4.733   6.483  14.979 -0.1429  0.5909  0.5892
   8923SM  C18S11960   4.850   6.572  15.119 -0.0366 -0.3143 -0.3444
   8923SM  H18S11961   4.947   6.542  15.164  1.0365 -0.5937 -2.6418
   8923SM  H18T11962   4.779   6.550  15.201 -0.1673 -0.4346 -0.4883
   8923SM  H18U11963   4.861   6.678  15.089  0.3352 -0.2740 -0.0725
   8923SM   C1F11964   5.292   6.460  13.205 -0.3487  0.5062  0.3486
   8923SM    OF11965   5.211   6.451  13.113 -0.1907  0.4913  0.0990
   8923SM   C2F11966   5.390   6.567  13.219 -0.4592  0.2108 -0.0423
   8923SM   H2F11967   5.423   6.606  13.121 -0.6523 -0.2652 -0.3015
   8923SM   H2G11968   5.485   6.533  13.266  0.0723 -0.5257 -1.5819
   8923SM   C3F11969   5.327   6.689  13.294  0.2739 -0.0734 -0.4156
   8923SM   H3F11970   5.245   6.735  13.235 -0.8622 -0.2129  1.0006
   8923SM   H3G11971   5.399   6.766  13.330 -0.9370 -0.4447  3.2066
   8923SM   C4F11972   5.263   6.656  13.435  0.3748 -0.2148  0.1764
   8923SM   H4F11973   5.324   6.584  13.494 -0.3346 -1.0703 -0.1101
   8923SM   H4G11974   5.173   6.597  13.407  0.9780 -0.9531 -0.2467
   8923SM   C5F11975   5.232   6.776  13.514  0.2320 -0.6246  0.2458
   8923SM   H5F11976   5.186   6.848  13.443 -0.5462 -0.4035  0.9602
   8923SM   H5G11977   5.314   6.829  13.568 -0.7844  1.4777 -0.1650
   8923SM   C6F11978   5.128   6.735  13.622  0.0475 -0.5608 -0.2311
   8923SM   H6F11979   5.105   6.627  13.612  2.4026 -1.1726  0.1841
   8923SM   H6G11980   5.041   6.803  13.614 -0.5022 -1.2867 -0.4615
   8923SM   C7F11981   5.182   6.749  13.767 -0.3801 -0.7721 -0.9625
   8923SM   H7F11982   5.232   6.848  13.779  2.9734 -2.6574  2.9980
   8923SM   H7G11983   5.251   6.669  13.800 -1.6172 -0.8243  1.7433
   8923SM   C8F11984   5.074   6.734  13.879  0.2384 -0.1278  0.9291
   8923SM   H8F11985   5.048   6.626  13.882  3.0691 -1.0347 -1.8167
   8923SM   H8G11986   4.980   6.790  13.856  0.6457 -0.2498 -1.2536
   8923SM   C9F11987   5.136   6.765  14.007 -0.1822 -0.1339  0.2472
   8923SM   H9F11988   5.168   6.871  14.007 -0.6626  0.0134  0.0989
   8923SM   H9G11989   5.228   6.706  14.025 -0.6094 -1.1838 -0.8659
   8923SM  C10F11990   5.037   6.736  14.119 -0.9513 -0.1066 -1.0125
   8923SM  H10F11991   5.050   6.625  14.122  0.7299  0.0619 -0.9156
   8923SM  H10G11992   4.940   6.774  14.083 -0.6129 -0.0801 -1.9175
   8923SM  C11F11993   5.089   6.795  14.258 -0.3682 -0.0208 -0.5927
   8923SM  H11F11994   4.989   6.778  14.304  0.8212 -1.7473  1.5693
   8923SM  H11G11995   5.120   6.902  14.255  2.5999 -0.8233 -2.4653
   8923SM  C12F11996   5.203   6.724  14.333  0.6124  0.5827 -0.1106
   8923SM  H12F11997   5.302   6.761  14.298  0.6104 -0.1951 -0.9564
   8923SM  H12G11998   5.198   6.615  14.317  0.0944  0.3479  1.4761
   8923SM  C13F11999   5.216   6.757  14.476  0.4141  0.7757 -0.6719
   8923SM  H13F12000   5.227   6.867  14.490 -0.6670  0.7644  0.3800
   8923SM  H13G12001   5.304   6.712  14.526 -0.6588 -1.3808 -0.6327
   8923SM  C14F12002   5.092   6.714  14.556 -0.1278 -0.2451 -0.4680
   8923SM  H14F12003   5.117   6.609  14.585  1.5299  0.4451  0.7419
   8923SM  H14G12004   4.996   6.718  14.500 -0.5491  1.6184  0.3340
   8923SM  C15F12005   5.073   6.791  14.685  0.7379  0.3910  0.0341
   8923SM  H15F12006   4.982   6.745  14.728  0.8846  0.6914  0.6791
   8923SM  H15G12007   5.073   6.900  14.664  1.0522  0.4124  0.1316
   8923SM  C16F12008   5.184   6.770  14.780 -0.5026  0.3289 -0.4716
   8923SM  H16F12009   5.282   6.812  14.746 -0.1550 -1.5988 -2.0853
   8923SM  H16G12010   5.208   6.662  14.786  0.2893  0.3264 -2.7346
   8923SM  C17F12011   5.157   6.819  14.926  0.2372  0.8767  0.7240
   8923SM  H17F12012   5.106   6.744  14.990  1.7366 -0.4066  0.4956
   8923SM  H17G12013   5.101   6.914  14.916  0.1925  0.8263  0.4892
   8923SM  C18F12014   5.284   6.858  15.000 -0.5523 -0.1204 -0.0073
   8923SM  H18F12015   5.338   6.937  14.945  0.6803  0.8461  2.4741
   8923SM  H18G12016   5.347   6.767  15.008 -2.2860 -1.3352  0.4053
   8923SM  C19F12017   5.261   6.910  15.143 -0.8422 -0.0115 -0.1759
   8923SM  H19F12018   5.197   6.835  15.194 -0.2933 -1.7207 -1.8650
   8923SM  H19G12019   5.202   7.003  15.137 -0.0390  0.4524 -1.0692
   8923SM  C20F12020   5.391   6.926  15.230  0.4820 -0.0117 -0.0558
   8923SM  H20F12021   5.355   6.949  15.333  1.8454 -0.5530  0.5633
   8923SM  H20G12022   5.443   7.019  15.198 -0.6754  1.9529  3.1707
   8923SM  C21F12023   5.477   6.796  15.238  0.0268 -0.1633  0.2116
   8923SM  H21F12024   5.541   6.798  15.147  1.7562 -0.4366  1.3610
   8923SM  H21G12025   5.417   6.703  15.238 -0.8605  0.3587  1.7842
   8923SM  C22F12026   5.578   6.797  15.354 -0.4417  0.2881 -0.2772
   8923SM  H22F12027   5.531   6.802  15.454  0.8697 -2.8301  0.6171
   8923SM  H22G12028   5.645   6.884  15.337  0.7485 -0.4457  0.5368
   8923SM  C23F12029   5.669   6.670  15.358  0.0666  0.1829  0.0286
   8923SM  H23F12030   5.603   6.582  15.375 -0.5420  0.2476 -1.7452
   8923SM  H23G12031   5.745   6.685  15.437 -0.0372 -0.8072  0.3399
   8923SM  H23H12032   5.717   6.659  15.258 -2.3382 -1.5681 -1.0517
   9023SM     N12033   4.574   6.511  12.391  0.1259  0.2395 -0.2749
   9023SM   C1512034   4.433   6.518  12.331  0.1343 -0.7243 -0.5072
   9023SM  H15A12035   4.415   6.424  12.281  1.7197 -0.8618 -0.8929
   9023SM  H15B12036   4.412   6.598  12.263  0.8893  0.4611  0.6116
   9023SM  H15C12037   4.359   6.532  12.409 -1.2949 -1.9544 -1.5709
   9023SM   C1412038   4.599   6.643  12.459 -0.4776  0.3063  0.5083
   9023SM  H14A12039   4.592   6.724  12.389 -1.2221  1.2682  1.6440
   9023SM  H14B12040   4.694   6.653  12.509 -2.2680  2.9669  3.7732
   9023SM  H14C12041   4.528   6.664  12.538 -2.0156  1.1407 -1.0418
   9023SM   C1312042   4.585   6.401  12.494  0.4593  0.5652 -0.2646
   9023SM  H13A12043   4.529   6.434  12.581  1.0611 -0.1167  0.3924
   9023SM  H13B12044   4.687   6.376  12.518 -0.0959 -1.3438  0.2891
   9023SM  H13C12045   4.534   6.310  12.466 -1.7733  1.4060  0.7658
   9023SM   C1212046   4.674   6.484  12.278  0.4862  0.1412  0.1404
   9023SM  H12A12047   4.672   6.562  12.203  1.4142  1.3434  1.3144
   9023SM  H12B12048   4.653   6.391  12.228 -0.6758  0.1960  0.4925
   9023SM   C1112049   4.827   6.469  12.303 -0.0077 -0.4098  0.4079
   9023SM  H11A12050   4.850   6.571  12.341 -1.5867 -0.3411  1.2858
   9023SM  H11B12051   4.878   6.462  12.205 -2.4190 -0.5550 -0.9147
   9023SM     P12052   4.857   6.217  12.348 -0.1488  0.1586 -0.3995
   9023SM   O1312053   4.743   6.193  12.256 -0.0229 -0.2296 -0.4782
   9023SM   O1412054   4.991   6.179  12.301 -0.2276 -0.0587 -0.2339
   9023SM   O1112055   4.830   6.146  12.492  0.7680  0.7125  0.1477
   9023SM   O1212056   4.858   6.367  12.394 -0.0388 -0.2322 -0.5268
   9023SM   C1S12057   4.877   6.195  12.614  0.0613 -0.2407 -0.3062
   9023SM   H1S12058   4.847   6.301  12.627 -0.5684 -0.5090  0.5098
   9023SM   H1T12059   4.987   6.177  12.624  0.4794  1.4893 -1.3941
   9023SM    NF12060   4.871   6.150  12.864 -0.3350 -0.2064  0.1319
   9023SM   HNF12061   4.956   6.112  12.899  0.8287  1.0736 -1.2137
   9023SM   C2S12062   4.817   6.105  12.735 -0.0792 -0.2982  0.4209
   9023SM   H2S12063   4.707   6.117  12.746 -0.0445 -1.2104  2.0288
   9023SM   C3S12064   4.841   5.951  12.707  0.4004 -0.5106  0.7806
   9023SM   H3S12065   4.950   5.935  12.701  0.3717 -0.1989 -1.9739
   9023SM    O312066   4.782   5.902  12.585 -0.0326 -0.2994 -1.0347
   9023SM   HO312067   4.789   5.975  12.524 -0.0171 -0.8667 -1.7319
   9023SM   C4S12068   4.781   5.859  12.809  1.2096 -0.2294 -0.4271
   9023SM   H4S12069   4.677   5.831  12.788  1.2486  0.8866 -2.3861
   9023SM   C5S12070   4.838   5.830  12.930 -0.0271  0.2127  0.1364
   9023SM   H5S12071   4.928   5.884  12.964  0.0405 -0.6822  1.4367
   9023SM   C6S12072   4.755   5.768  13.047 -0.0602 -0.2307  0.2284
   9023SM   H6S12073   4.822   5.688  13.086  2.1352  2.5828  2.7218
   9023SM   H6T12074   4.658   5.720  13.021  0.6849 -0.9836 -1.2445
   9023SM   C7S12075   4.729   5.864  13.163 -0.1739 -0.4235  0.8979
   9023SM   H7S12076   4.653   5.937  13.127  1.6662  2.5617  2.6107
   9023SM   H7T12077   4.828   5.912  13.180 -0.4140  0.5046 -0.2528
   9023SM   C8S12078   4.683   5.792  13.283  0.2401  0.6318  0.1574
   9023SM   H8S12079   4.627   5.698  13.260 -0.7029  1.5694 -1.5370
   9023SM   H8T12080   4.615   5.864  13.333  0.6335  0.5373  0.8344
   9023SM   C9S12081   4.801   5.747  13.370 -1.7096  0.6867  0.0859
   9023SM   H9S12082   4.868   5.833  13.395  0.0889 -0.4587 -0.6065
   9023SM   H9T12083   4.860   5.681  13.303 -1.3726  1.7561 -0.7010
   9023SM  C10S12084   4.753   5.684  13.503 -0.6222 -0.2089 -0.0253
   9023SM  H10S12085   4.832   5.614  13.538  0.9847  1.0235 -1.0535
   9023SM  H10T12086   4.656   5.630  13.493 -0.5493 -0.4641  0.6106
   9023SM  C11S12087   4.744   5.796  13.612  0.2648  0.0878 -0.4139
   9023SM  H11S12088   4.675   5.878  13.583 -1.7420 -0.1987  3.0749
   9023SM  H11T12089   4.849   5.833  13.614 -0.3920  2.0596 -0.4983
   9023SM  C12S12090   4.688   5.725  13.733  0.1038 -0.0546 -0.3405
   9023SM  H12S12091   4.755   5.637  13.746  1.2396  0.6479 -1.2615
   9023SM  H12T12092   4.593   5.676  13.704 -0.6009  0.0369  1.7006
   9023SM  C13S12093   4.679   5.818  13.852  0.2698  0.4507  0.2774
   9023SM  H13S12094   4.611   5.903  13.830  0.7409  0.7350 -0.1030
   9023SM  H13T12095   4.777   5.860  13.883 -0.9220  2.2523  1.9314
   9023SM  C14S12096   4.622   5.753  13.985 -0.4808 -0.4789  0.2092
   9023SM  H14S12097   4.685   5.667  14.014  1.5004  0.8458  0.0005
   9023SM  H14T12098   4.517   5.722  13.968 -0.5816 -0.4106  0.6822
   9023SM  C15S12099   4.640   5.847  14.102  0.3041 -0.1868  0.3258
   9023SM  H15S12100   4.581   5.940  14.087  1.5252  0.3649 -1.4793
   9023SM  H15T12101   4.744   5.885  14.109  0.3644 -0.3223  0.1660
   9023SM  C16S12102   4.601   5.780  14.230 -0.6060  0.0502  0.0964
   9023SM  H16S12103   4.649   5.681  14.242 -0.1982  0.1990 -0.2479
   9023SM  H16T12104   4.494   5.755  14.220 -0.9676  0.6266  2.1925
   9023SM  C17S12105   4.619   5.865  14.350 -0.4535  0.1209  0.0936
   9023SM  H17S12106   4.569   5.962  14.327  2.6821  1.3237 -2.3429
   9023SM  H17T12107   4.726   5.888  14.371 -0.7399  1.5846  0.0623
   9023SM  C18S12108   4.558   5.810  14.478 -0.1255 -0.1779 -0.0430
   9023SM  H18S12109   4.600   5.867  14.563  1.4378 -2.9340  1.1819
   9023SM  H18T12110   4.582   5.701  14.485  0.4629 -0.0665 -0.2261
   9023SM  H18U12111   4.448   5.826  14.476 -0.2492 -0.8038  1.0503
   9023SM   C1F12112   4.830   6.264  12.919  0.4528 -0.4915 -0.0206
   9023SM    OF12113   4.741   6.328  12.860  0.0133  0.3562 -0.1703
   9023SM   C2F12114   4.889   6.319  13.045 -0.0466 -0.2795 -0.4092
   9023SM   H2F12115   4.932   6.416  13.012 -0.0132 -1.0803 -2.9996
   9023SM   H2G12116   4.976   6.256  13.075  0.2160  1.5216  3.0685
   9023SM   C3F12117   4.792   6.324  13.168 -0.3172  0.3494  0.3531
   9023SM   H3F12118   4.703   6.387  13.148 -0.5889  0.7663  2.6086
   9023SM   H3G12119   4.855   6.356  13.254 -0.1424 -3.0400  1.6031
   9023SM   C4F12120   4.748   6.189  13.207 -0.0052 -0.4256 -0.6542
   9023SM   H4F12121   4.835   6.121  13.222  0.0505  0.2033  2.6389
   9023SM   H4G12122   4.692   6.140  13.124 -0.1139  0.0569 -0.8685
   9023SM   C5F12123   4.656   6.199  13.331 -0.1098 -0.5027  0.6111
   9023SM   H5F12124   4.618   6.100  13.363 -0.7932  0.5386  3.2982
   9023SM   H5G12125   4.571   6.267  13.309 -0.1505  0.4236  3.2397
   9023SM   C6F12126   4.723   6.264  13.452  0.0325  0.4839 -0.1085
   9023SM   H6F12127   4.772   6.361  13.427 -2.1086  1.6784  0.0291
   9023SM   H6G12128   4.798   6.186  13.479 -2.0381 -1.6290 -0.1659
   9023SM   C7F12129   4.634   6.288  13.572  0.3332 -0.0448  0.1895
   9023SM   H7F12130   4.554   6.211  13.574 -1.9382  1.9638 -2.9242
   9023SM   H7G12131   4.599   6.391  13.550  3.2852  0.8417 -0.8386
   9023SM   C8F12132   4.725   6.296  13.693 -0.4377 -0.3010  0.1667
   9023SM   H8F12133   4.796   6.374  13.658 -0.9216  0.0495 -0.0422
   9023SM   H8G12134   4.786   6.205  13.709  0.0121 -0.1278 -0.5310
   9023SM   C9F12135   4.649   6.322  13.826 -0.5599 -0.5985  0.2510
   9023SM   H9F12136   4.564   6.391  13.807  0.1339 -0.5414 -3.1949
   9023SM   H9G12137   4.717   6.373  13.898 -3.1464  2.1283  0.9880
   9023SM  C10F12138   4.596   6.194  13.885  0.0737  0.7064 -0.0213
   9023SM  H10F12139   4.670   6.117  13.916  1.7666  1.8791 -0.9368
   9023SM  H10G12140   4.541   6.143  13.803  1.0635 -0.5457  0.0716
   9023SM  C11F12141   4.517   6.233  14.006  0.1099 -0.0811  0.0560
   9023SM  H11F12142   4.476   6.136  14.039 -0.1741 -0.4857 -1.3894
   9023SM  H11G12143   4.430   6.298  13.983  0.4469  0.8208  1.2315
   9023SM  C12F12144   4.608   6.283  14.116  0.0632 -0.6233  0.0768
   9023SM  H12F12145   4.638   6.383  14.080 -0.8108 -1.3615 -3.0860
   9023SM  H12G12146   4.692   6.210  14.121 -0.9588 -1.7918  1.2199
   9023SM  C13F12147   4.530   6.280  14.247 -0.3441  1.0847 -0.1879
   9023SM  H13F12148   4.502   6.174  14.265 -0.0498  0.8707 -0.9224
   9023SM  H13G12149   4.436   6.336  14.230  0.7224  3.0167  0.0676
   9023SM  C14F12150   4.621   6.319  14.365  0.1031  0.3686  0.1399
   9023SM  H14F12151   4.657   6.421  14.341 -4.0291  2.2232  0.9257
   9023SM  H14G12152   4.701   6.243  14.376  0.4345  0.9414  1.9199
   9023SM  C15F12153   4.552   6.320  14.497  0.7764  0.3800 -1.0749
   9023SM  H15F12154   4.472   6.396  14.502  0.9065  0.4440  1.6850
   9023SM  H15G12155   4.618   6.372  14.570  1.0946 -0.9053 -0.4190
   9023SM  C16F12156   4.508   6.177  14.544  0.1327 -0.6631 -0.3125
   9023SM  H16F12157   4.597   6.110  14.552  0.1044 -0.6245  0.3918
   9023SM  H16G12158   4.435   6.126  14.478 -2.2221  0.7669  1.0527
   9023SM  C17F12159   4.440   6.185  14.688  0.1617  0.6357 -0.1471
   9023SM  H17F12160   4.354   6.256  14.686  1.2224  1.9792 -1.3874
   9023SM  H17G12161   4.518   6.228  14.755 -2.3851  1.8740  2.1993
   9023SM  C18F12162   4.393   6.048  14.741 -1.0173  0.5028  0.3710
   9023SM  H18F12163   4.477   5.981  14.769 -2.4620 -2.6135 -2.1068
   9023SM  H18G12164   4.338   5.985  14.668 -0.1530 -2.0830  1.8068
   9023SM  C19F12165   4.297   6.062  14.855 -0.4415  0.1853  0.4655
   9023SM  H19F12166   4.272   5.960  14.890  0.1489  0.1098  0.6830
   9023SM  H19G12167   4.200   6.110  14.828 -1.8848 -2.2160  1.0979
   9023SM  C20F12168   4.364   6.128  14.975 -0.3545  0.5947 -0.0363
   9023SM  H20F12169   4.278   6.143  15.043 -0.5252  1.1264 -0.3590
   9023SM  H20G12170   4.414   6.226  14.960 -0.2085  0.3748 -1.0928
   9023SM  C21F12171   4.471   6.033  15.043 -0.0025  0.0750  0.1677
   9023SM  H21F12172   4.537   6.085  15.116  0.6797 -0.3793 -0.1106
   9023SM  H21G12173   4.543   5.990  14.969  0.2716 -1.1409  1.1117
   9023SM  C22F12174   4.403   5.914  15.106 -0.0221 -0.2120 -0.0535
   9023SM  H22F12175   4.370   5.846  15.025  0.8877 -1.3901  0.5318
   9023SM  H22G12176   4.310   5.948  15.157 -0.1735  1.0154 -1.0679
   9023SM  C23F12177   4.495   5.832  15.210  0.1416 -0.2764  0.5601
   9023SM  H23F12178   4.534   5.898  15.291  0.4314  1.0757 -0.6541
   9023SM  H23G12179   4.582   5.781  15.164  0.4375  2.2535 -1.9280
   9023SM  H23H12180   4.428   5.762  15.266  0.4769  0.5259  2.0331
   9123SM     N12181   6.524   2.293  12.157  0.0809 -0.1695  0.5230
   9123SM   C1512182   6.641   2.264  12.077  0.0583  0.0409  0.5808
   9123SM  H15A12183   6.623   2.207  11.987  1.5345  1.0621 -0.4016
   9123SM  H15B12184   6.715   2.218  12.140 -0.2212 -0.3846  0.5981
   9123SM  H15C12185   6.677   2.359  12.040 -0.7902  0.3783  0.5876
   9123SM   C1412186   6.412   2.346  12.071 -0.3273  0.1854  0.1356
   9123SM  H14A12187   6.447   2.432  12.016  1.8772 -0.1379  0.9427
   9123SM  H14B12188   6.328   2.372  12.133  0.4454  0.0034  1.2853
   9123SM  H14C12189   6.382   2.273  11.997  0.0500 -0.7198  0.8493
   9123SM   C1312190   6.479   2.158  12.200 -0.7448  0.1775  0.8180
   9123SM  H13A12191   6.561   2.104  12.246  0.1676  0.2063 -0.7095
   9123SM  H13B12192   6.439   2.106  12.115 -2.0566 -0.3800  1.7327
   9123SM  H13C12193   6.394   2.154  12.267 -0.2625 -0.4430  1.4128
   9123SM   C1212194   6.559   2.370  12.279  0.5942  0.3097  0.3707
   9123SM  H12A12195   6.589   2.472  12.255  1.8792 -0.4713 -1.6000
   9123SM  H12B12196   6.646   2.322  12.321  0.7977  0.0078 -0.3900
   9123SM   C1112197   6.454   2.381  12.396 -0.0881  0.1920  0.2327
   9123SM  H11A12198   6.511   2.409  12.487 -1.0358 -0.2658  0.9815
   9123SM  H11B12199   6.413   2.279  12.410 -0.6920  0.4186  0.1441
   9123SM     P12200   6.331   2.608  12.417 -0.0341 -0.4584  0.0218
   9123SM   O1312201   6.467   2.677  12.418  0.2526  0.3122  0.2236
   9123SM   O1412202   6.226   2.690  12.353 -0.4529  0.7793 -0.1898
   9123SM   O1112203   6.293   2.581  12.570  0.1482  0.0984  0.3170
   9123SM   O1212204   6.345   2.465  12.357  0.0397  0.8311  0.5442
   9123SM   C1S12205   6.187   2.481  12.579 -0.1698  0.4819  0.2924
   9123SM   H1S12206   6.240   2.384  12.577 -0.2702  0.4176 -1.4364
   9123SM   H1T12207   6.115   2.474  12.494 -0.5660  0.6274  0.6133
   9123SM    NF12208   5.991   2.404  12.709 -0.3105  0.5090 -0.2025
   9123SM   HNF12209   5.904   2.444  12.683 -0.7651  0.7700  1.5760
   9123SM   C2S12210   6.108   2.493  12.714 -0.0405  0.4183 -0.8870
   9123SM   H2S12211   6.171   2.446  12.793 -0.5647  1.3257  0.0863
   9123SM   C3S12212   6.090   2.640  12.768 -0.2563  0.0863 -0.0308
   9123SM   H3S12213   6.024   2.687  12.691 -1.1216  1.5393  1.5303
   9123SM    O312214   6.213   2.714  12.778  0.9236  0.1486 -0.1673
   9123SM   HO312215   6.270   2.674  12.712 -2.0107  1.3070 -3.7167
   9123SM   C4S12216   6.033   2.643  12.904  0.7458  0.2082 -0.2505
   9123SM   H4S12217   6.106   2.613  12.981  0.8802  0.0147 -0.4512
   9123SM   C5S12218   5.902   2.672  12.932 -0.8400  0.1720  0.1545
   9123SM   H5S12219   5.835   2.698  12.849  0.2694 -0.9819 -1.1582
   9123SM   C6S12220   5.838   2.673  13.070  0.0625 -0.0254  0.1321
   9123SM   H6S12221   5.734   2.634  13.067  0.4671 -1.1188 -2.5806
   9123SM   H6T12222   5.823   2.781  13.095 -0.1782  0.3642 -1.5918
   9123SM   C7S12223   5.919   2.627  13.198 -0.2022 -0.7870  0.2847
   9123SM   H7S12224   6.025   2.656  13.179 -0.8384  0.0422 -2.5513
   9123SM   H7T12225   5.916   2.516  13.192  0.0028 -0.7654 -0.3047
   9123SM   C8S12226   5.867   2.661  13.339  0.8022 -0.1499  0.0453
   9123SM   H8S12227   5.761   2.629  13.340  0.9821 -0.7576  0.0303
   9123SM   H8T12228   5.868   2.771  13.358 -0.2548 -0.3886  1.6462
   9123SM   C9S12229   5.939   2.588  13.453 -0.4471 -0.0911  0.4604
   9123SM   H9S12230   6.046   2.620  13.448 -0.4842 -0.0841 -0.4449
   9123SM   H9T12231   5.941   2.477  13.442  1.0086 -0.4727  3.4981
   9123SM  C10S12232   5.895   2.606  13.598 -0.1391 -0.0246 -0.0835
   9123SM  H10S12233   5.786   2.585  13.595  0.3904 -3.6958  1.5647
   9123SM  H10T12234   5.900   2.715  13.622 -0.4006  0.1013 -0.5924
   9123SM  C11S12235   5.968   2.530  13.709  0.1948 -0.8111 -0.0982
   9123SM  H11S12236   6.068   2.499  13.670  1.6620  3.0592  0.2199
   9123SM  H11T12237   5.906   2.443  13.740  2.1932 -1.4556  2.5429
   9123SM  C12S12238   5.987   2.623  13.829  0.4139  0.4068  0.0161
   9123SM  H12S12239   5.891   2.671  13.857  0.6576 -0.3042  2.2244
   9123SM  H12T12240   6.076   2.684  13.803 -0.1270  0.9638 -0.5511
   9123SM  C13S12241   6.024   2.542  13.954  0.0762 -0.3327  0.1356
   9123SM  H13S12242   6.127   2.502  13.942 -0.6463 -1.9206 -1.3272
   9123SM  H13T12243   5.947   2.462  13.961 -0.7912  0.2583 -1.9054
   9123SM  C14S12244   6.013   2.634  14.076 -0.4214 -0.2252 -0.0390
   9123SM  H14S12245   5.946   2.720  14.056 -1.4320 -1.7759 -4.2234
   9123SM  H14T12246   6.111   2.684  14.094 -0.8197  0.4448  0.3030
   9123SM  C15S12247   5.978   2.569  14.205 -0.0699  0.3004 -0.1813
   9123SM  H15S12248   6.034   2.473  14.206 -2.2357 -1.0176  1.4597
   9123SM  H15T12249   5.872   2.540  14.199  0.1388 -0.1789 -2.3368
   9123SM  C16S12250   6.007   2.653  14.330 -0.5568 -0.1837  0.6070
   9123SM  H16S12251   5.947   2.745  14.311  0.3668  0.0736 -1.3338
   9123SM  H16T12252   6.116   2.672  14.335  0.2553 -3.4170 -1.5033
   9123SM  C17S12253   5.946   2.602  14.462  0.2030  0.2829  0.1276
   9123SM  H17S12254   6.001   2.509  14.487  0.6184  0.5964  0.3874
   9123SM  H17T12255   5.837   2.582  14.461  0.0886  0.8197  0.9641
   9123SM  C18S12256   5.967   2.703  14.572  0.0791  0.1571  0.5796
   9123SM  H18S12257   5.918   2.801  14.553 -0.3123  0.3669  2.4450
   9123SM  H18T12258   6.074   2.713  14.601  0.4535  0.2237 -0.7652
   9123SM  H18U12259   5.918   2.660  14.661 -3.0629 -1.0056 -1.5553
   9123SM   C1F12260   6.011   2.271  12.695  0.4982  0.7393 -0.5065
   9123SM    OF12261   6.120   2.222  12.691  0.1269 -0.2523  0.0834
   9123SM   C2F12262   5.881   2.197  12.686  0.3132  0.0863 -0.1065
   9123SM   H2F12263   5.897   2.122  12.606  2.1092 -0.9251  1.1323
   9123SM   H2G12264   5.797   2.267  12.670 -1.3183 -1.9424 -0.8345
   9123SM   C3F12265   5.856   2.126  12.820  0.7169  0.1652  0.0735
   9123SM   H3F12266   5.951   2.071  12.838  2.1552  2.5766  0.1970
   9123SM   H3G12267   5.772   2.053  12.816  0.5612  0.3794 -1.7542
   9123SM   C4F12268   5.847   2.230  12.936  0.0727 -0.0595  0.2395
   9123SM   H4F12269   5.782   2.316  12.911 -0.6487  0.0736  2.4210
   9123SM   H4G12270   5.949   2.266  12.961 -0.3757  1.9465 -0.6611
   9123SM   C5F12271   5.791   2.153  13.052  0.4572  0.0697 -0.0442
   9123SM   H5F12272   5.863   2.078  13.093  0.6648 -0.0900 -0.6922
   9123SM   H5G12273   5.703   2.092  13.021  0.0355  0.9659 -0.6510
   9123SM   C6F12274   5.753   2.251  13.166  0.0028  0.7475  0.1587
   9123SM   H6F12275   5.657   2.304  13.148 -0.7924  0.9401  4.0539
   9123SM   H6G12276   5.822   2.338  13.176 -0.7115  1.3003  0.3277
   9123SM   C7F12277   5.745   2.180  13.307  0.2074  0.2392 -0.6214
   9123SM   H7F12278   5.833   2.115  13.328 -0.5895 -0.8712 -0.6405
   9123SM   H7G12279   5.654   2.117  13.311  0.3928  0.0322  0.4895
   9123SM   C8F12280   5.732   2.269  13.435 -0.5230  0.3947  0.0386
   9123SM   H8F12281   5.671   2.360  13.416 -1.0817 -0.1732 -0.9559
   9123SM   H8G12282   5.838   2.301  13.450  0.5327 -1.7350 -2.2663
   9123SM   C9F12283   5.667   2.182  13.545  0.2349  0.0899 -0.6056
   9123SM   H9F12284   5.701   2.077  13.543 -0.2229 -0.0524 -0.9534
   9123SM   H9G12285   5.561   2.177  13.515 -0.1138 -0.5992  0.6895
   9123SM  C10F12286   5.677   2.252  13.680  0.5016  0.2660 -0.3305
   9123SM  H10F12287   5.644   2.357  13.669  0.5971  0.3188 -0.1114
   9123SM  H10G12288   5.786   2.256  13.702  0.3738  0.5116  0.2645
   9123SM  C11F12289   5.603   2.166  13.785  0.7361 -0.6271 -0.2512
   9123SM  H11F12290   5.640   2.062  13.779 -0.2991 -0.9059 -2.4849
   9123SM  H11G12291   5.494   2.171  13.769  0.9090  1.0315 -1.2771
   9123SM  C12F12292   5.634   2.220  13.928  0.0658  0.0070  0.3712
   9123SM  H12F12293   5.631   2.330  13.934  2.5543  0.0756  1.2555
   9123SM  H12G12294   5.737   2.186  13.949 -0.3655 -3.3931 -2.1046
   9123SM  C13F12295   5.538   2.163  14.031 -0.6528 -0.5308 -0.2061
   9123SM  H13F12296   5.545   2.053  14.019  0.1880 -0.2836 -2.4756
   9123SM  H13G12297   5.433   2.193  14.010 -0.7877  0.1998  1.3966
   9123SM  C14F12298   5.563   2.201  14.177 -0.4899 -0.1804  0.1024
   9123SM  H14F12299   5.515   2.130  14.247 -0.0010 -0.2606  0.3619
   9123SM  H14G12300   5.510   2.298  14.190 -0.8254 -0.3755  0.1939
   9123SM  C15F12301   5.716   2.194  14.212  0.1372  0.5120  0.3412
   9123SM  H15F12302   5.770   2.256  14.137 -0.2816 -3.1841 -3.4270
   9123SM  H15G12303   5.753   2.093  14.182 -1.3041  0.4797 -1.4719
   9123SM  C16F12304   5.750   2.230  14.356  0.4366 -0.8235  0.4240
   9123SM  H16F12305   5.715   2.333  14.377 -1.9275 -1.8790  2.0034
   9123SM  H16G12306   5.858   2.211  14.377  1.3369  1.5345 -1.5742
   9123SM  C17F12307   5.669   2.148  14.465 -0.0975  1.6047 -0.7718
   9123SM  H17F12308   5.695   2.041  14.450 -2.6413  0.6708  0.8390
   9123SM  H17G12309   5.559   2.155  14.451 -0.1071  1.9394 -0.5386
   9123SM  C18F12310   5.701   2.179  14.610  0.2793 -0.0188  0.0049
   9123SM  H18F12311   5.806   2.148  14.626  0.3687  0.5903  0.6054
   9123SM  H18G12312   5.633   2.113  14.668 -0.0003  0.4542  0.2124
   9123SM  C19F12313   5.694   2.327  14.651  0.0724  0.3665 -0.3562
   9123SM  H19F12314   5.625   2.378  14.582  0.9519  1.4659 -0.4500
   9123SM  H19G12315   5.796   2.367  14.629  0.6564 -0.9047 -0.0800
   9123SM  C20F12316   5.660   2.349  14.798  0.1025  0.1637  0.6302
   9123SM  H20F12317   5.550   2.329  14.801  0.2445 -0.9548 -0.4461
   9123SM  H20G12318   5.673   2.457  14.818  1.1226  0.1348  0.1895
   9123SM  C21F12319   5.740   2.279  14.903  0.1808 -1.0986 -0.3504
   9123SM  H21F12320   5.840   2.325  14.916 -0.5057 -0.1446  2.0195
   9123SM  H21G12321   5.767   2.171  14.891 -2.1594 -1.9880  1.4870
   9123SM  C22F12322   5.679   2.309  15.044  0.2819 -0.4303  0.2332
   9123SM  H22F12323   5.590   2.247  15.068 -1.1570  2.1716  2.2559
   9123SM  H22G12324   5.648   2.416  15.045  1.2470 -0.1386  1.1129
   9123SM  C23F12325   5.784   2.292  15.163 -0.3969 -0.7165 -0.2437
   9123SM  H23F12326   5.819   2.187  15.171 -3.1966 -1.9927 -2.7930
   9123SM  H23G12327   5.745   2.327  15.261  1.6974  2.6757 -0.4550
   9123SM  H23H12328   5.874   2.356  15.154 -0.3075 -0.8372 -0.2056
   9223SM     N12329   5.216   5.660  12.712 -0.2118  0.0154 -0.1253
   9223SM   C1512330   5.360   5.702  12.741 -0.4764 -0.1891 -0.2274
   9223SM  H15A12331   5.361   5.780  12.816 -0.3912  2.5915 -2.9408
   9223SM  H15B12332   5.410   5.734  12.652  0.7686 -2.4695 -0.4157
   9223SM  H15C12333   5.416   5.619  12.782  0.1861  0.2697 -0.1889
   9223SM   C1412334   5.150   5.767  12.639  0.3545 -0.0875  0.3598
   9223SM  H14A12335   5.046   5.750  12.618  0.2556 -1.0184  1.5141
   9223SM  H14B12336   5.201   5.773  12.544  2.1462  2.2309  1.3473
   9223SM  H14C12337   5.168   5.867  12.677 -0.3735 -0.0800  0.6866
   9223SM   C1312338   5.224   5.546  12.618 -0.1407 -0.2899 -0.8297
   9223SM  H13A12339   5.127   5.500  12.609 -0.0399 -0.4492 -1.1210
   9223SM  H13B12340   5.291   5.470  12.656 -0.4805 -0.7064 -1.0467
   9223SM  H13C12341   5.256   5.563  12.517  1.4224 -1.7288 -0.6356
   9223SM   C1212342   5.149   5.612  12.841 -0.3715  0.1258  0.1008
   9223SM  H12A12343   5.141   5.700  12.903  0.8373 -0.1616  0.6857
   9223SM  H12B12344   5.224   5.544  12.877  0.8971  0.4768 -1.7193
   9223SM   C1112345   5.003   5.548  12.826 -0.4831 -0.1647 -0.0686
   9223SM  H11A12346   4.951   5.601  12.743  1.6257 -2.1705 -2.8729
   9223SM  H11B12347   4.951   5.574  12.921 -0.1007  1.2925 -0.2230
   9223SM     P12348   5.045   5.293  12.901 -0.3510  0.0136 -0.1913
   9223SM   O1312349   5.101   5.177  12.834 -0.3964 -0.3026  0.0724
   9223SM   O1412350   5.130   5.347  13.008 -0.2397  0.2294 -0.3220
   9223SM   O1112351   4.913   5.239  12.975 -0.9273  0.5863 -0.1345
   9223SM   O1212352   4.997   5.407  12.795  0.3804 -0.5871 -0.0690
   9223SM   C1S12353   4.781   5.285  12.954 -0.4515 -0.2438 -0.0765
   9223SM   H1S12354   4.735   5.220  12.876  0.7850 -1.9222  0.5430
   9223SM   H1T12355   4.773   5.384  12.906 -0.2934 -0.4883 -0.6192
   9223SM    NF12356   4.560   5.245  13.070 -0.2773  0.1171  0.1373
   9223SM   HNF12357   4.494   5.320  13.063  1.1996  1.3541 -1.3759
   9223SM   C2S12358   4.698   5.279  13.087  0.1036  0.0950 -0.4442
   9223SM   H2S12359   4.742   5.195  13.145  0.8992  0.1871 -0.8918
   9223SM   C3S12360   4.723   5.414  13.158  0.4271 -0.1080  0.2107
   9223SM   H3S12361   4.666   5.487  13.098  2.0473  1.0737  0.0403
   9223SM    O312362   4.856   5.451  13.185 -0.5537 -0.2091  0.4044
   9223SM   HO312363   4.899   5.391  13.123  0.0312  1.6042 -1.0218
   9223SM   C4S12364   4.650   5.402  13.290  0.5604  0.5652  0.6558
   9223SM   H4S12365   4.583   5.486  13.311  0.8285  0.7862  0.6320
   9223SM   C5S12366   4.655   5.307  13.384 -0.2191  0.8212 -0.0955
   9223SM   H5S12367   4.727   5.225  13.373 -2.4200 -1.2714  0.3231
   9223SM   C6S12368   4.583   5.315  13.519 -0.1750 -0.2923  0.0428
   9223SM   H6S12369   4.508   5.236  13.544 -0.6500 -0.4548 -1.7415
   9223SM   H6T12370   4.528   5.412  13.518 -1.6538 -1.0870  0.4445
   9223SM   C7S12371   4.679   5.320  13.640  0.2234 -0.4567  0.5370
   9223SM   H7S12372   4.756   5.399  13.626 -0.1751 -0.4431 -1.9862
   9223SM   H7T12373   4.739   5.230  13.664 -1.2423 -1.7559 -0.4379
   9223SM   C8S12374   4.590   5.352  13.772 -0.6733 -0.6938 -0.6366
   9223SM   H8S12375   4.525   5.262  13.777 -0.6548 -0.6798  0.0663
   9223SM   H8T12376   4.546   5.447  13.735  0.7145 -0.3327 -1.4334
   9223SM   C9S12377   4.668   5.373  13.898 -0.3124  0.3389  0.0129
   9223SM   H9S12378   4.735   5.461  13.890  1.0331 -0.7147 -0.5282
   9223SM   H9T12379   4.731   5.283  13.913  1.0645  1.2652 -0.1080
   9223SM  C10S12380   4.581   5.380  14.018 -1.1822 -0.0651 -0.1413
   9223SM  H10S12381   4.515   5.291  14.027  0.1734 -0.9929  1.1454
   9223SM  H10T12382   4.512   5.466  14.006 -1.7191 -0.8266 -3.1955
   9223SM  C11S12383   4.667   5.384  14.143 -0.1652  0.0735 -0.1001
   9223SM  H11S12384   4.752   5.455  14.145  1.4447 -1.7687  0.0640
   9223SM  H11T12385   4.712   5.284  14.159  0.5045  0.5754  1.2613
   9223SM  C12S12386   4.579   5.408  14.266 -0.4746  0.2178 -0.5041
   9223SM  H12S12387   4.514   5.320  14.285  0.6351 -0.2175  1.6470
   9223SM  H12T12388   4.530   5.507  14.256  1.8881  1.5483  0.2094
   9223SM  C13S12389   4.665   5.426  14.393 -0.4677  0.3700 -0.1889
   9223SM  H13S12390   4.711   5.526  14.385 -1.4118  0.8420  0.1639
   9223SM  H13T12391   4.749   5.353  14.384  0.2235  1.2830 -1.5052
   9223SM  C14S12392   4.586   5.406  14.521 -0.6491  0.2286 -0.1324
   9223SM  H14S12393   4.578   5.298  14.546  1.1409 -0.2268 -1.3085
   9223SM  H14T12394   4.487   5.454  14.505 -0.3173  0.9119 -0.2114
   9223SM  C15S12395   4.669   5.460  14.636 -0.6846 -0.0663 -0.5378
   9223SM  H15S12396   4.697   5.566  14.617 -1.7543  0.2164 -0.6332
   9223SM  H15T12397   4.761   5.399  14.646 -1.4668 -1.0755  0.8188
   9223SM  C16S12398   4.591   5.445  14.761 -0.3396 -0.6098 -0.5216
   9223SM  H16S12399   4.543   5.345  14.762 -2.0121  0.1333  1.5899
   9223SM  H16T12400   4.516   5.527  14.762 -2.3364 -2.3541 -0.7514
   9223SM  C17S12401   4.678   5.436  14.889  0.4730 -0.6125  0.0933
   9223SM  H17S12402   4.744   5.525  14.899  1.8309 -1.6811  1.1609
   9223SM  H17T12403   4.745   5.351  14.867 -1.5282 -2.2994  0.1905
   9223SM  C18S12404   4.599   5.420  15.017 -0.5022  0.2297  0.0656
   9223SM  H18S12405   4.655   5.390  15.108 -2.7341  0.7982  1.7442
   9223SM  H18T12406   4.524   5.339  15.006  0.9235 -1.2519  0.9290
   9223SM  H18U12407   4.545   5.515  15.041 -0.6372 -0.2373  1.7558
   9223SM   C1F12408   4.533   5.126  13.019  0.5514  0.5492  0.5093
   9223SM    OF12409   4.616   5.037  13.017 -0.4794 -0.1147 -0.0058
   9223SM   C2F12410   4.393   5.109  12.956  0.3749 -0.3250 -0.4375
   9223SM   H2F12411   4.399   5.032  12.877 -1.5701  0.0117 -0.9613
   9223SM   H2G12412   4.360   5.206  12.915 -0.3885 -0.8536 -1.1082
   9223SM   C3F12413   4.289   5.053  13.052  0.8000 -0.9044 -0.1566
   9223SM   H3F12414   4.306   4.945  13.074 -0.6441 -0.7166  2.2962
   9223SM   H3G12415   4.189   5.063  13.004  1.2293  2.2688 -0.5855
   9223SM   C4F12416   4.283   5.126  13.191 -0.3956 -0.6632 -0.1452
   9223SM   H4F12417   4.262   5.233  13.170  1.7802 -0.0583  0.4881
   9223SM   H4G12418   4.377   5.101  13.245 -1.8097 -0.2145  2.7172
   9223SM   C5F12419   4.160   5.080  13.282 -0.0422  0.3054  0.7738
   9223SM   H5F12420   4.173   4.970  13.289  0.1818  0.0903 -1.8897
   9223SM   H5G12421   4.072   5.098  13.216  1.5275  2.6313 -0.8411
   9223SM   C6F12422   4.135   5.163  13.407 -0.2716 -0.3733  0.2050
   9223SM   H6F12423   4.029   5.143  13.436 -1.7660 -0.4498 -4.4618
   9223SM   H6G12424   4.141   5.268  13.372 -3.3845 -0.9534 -2.5494
   9223SM   C7F12425   4.223   5.131  13.528  0.2292 -0.1125  0.5840
   9223SM   H7F12426   4.325   5.152  13.490  0.0875  1.2400  0.8823
   9223SM   H7G12427   4.220   5.022  13.550  1.4153 -0.6146 -1.5288
   9223SM   C8F12428   4.208   5.216  13.658  0.1194 -0.1727  0.3265
   9223SM   H8F12429   4.097   5.215  13.672 -0.5906 -1.4059 -3.8265
   9223SM   H8G12430   4.260   5.314  13.651  0.9474 -0.7196 -2.0543
   9223SM   C9F12431   4.268   5.149  13.785  0.4853 -0.7496  0.2885
   9223SM   H9F12432   4.375   5.122  13.768  0.5955  0.0641 -0.3565
   9223SM   H9G12433   4.216   5.051  13.789 -1.5822  0.2561 -0.7005
   9223SM  C10F12434   4.251   5.235  13.916 -0.2858  0.2768  0.1246
   9223SM  H10F12435   4.146   5.273  13.917 -0.4853 -0.2567  0.8890
   9223SM  H10G12436   4.321   5.321  13.909  0.7350 -0.5121  0.3424
   9223SM  C11F12437   4.267   5.154  14.043 -0.4129 -0.8795 -0.2337
   9223SM  H11F12438   4.370   5.120  14.066  0.8742  1.6977 -1.7083
   9223SM  H11G12439   4.199   5.066  14.033 -0.4260 -0.8199 -0.6615
   9223SM  C12F12440   4.221   5.228  14.168  0.0944  0.2962 -0.1261
   9223SM  H12F12441   4.115   5.261  14.157 -0.3760 -0.1699  2.4294
   9223SM  H12G12442   4.284   5.319  14.174 -0.1095  0.3639  1.1205
   9223SM  C13F12443   4.246   5.148  14.296 -0.8960 -0.2835 -0.5301
   9223SM  H13F12444   4.349   5.108  14.285 -0.0392  2.2951 -3.4745
   9223SM  H13G12445   4.176   5.062  14.302 -0.0701 -0.9810 -0.5783
   9223SM  C14F12446   4.239   5.234  14.429 -0.1917 -0.8147  0.3266
   9223SM  H14F12447   4.142   5.286  14.438 -1.3078 -2.9776  1.6888
   9223SM  H14G12448   4.312   5.318  14.424 -0.4606 -0.5461  0.8635
   9223SM  C15F12449   4.263   5.161  14.556  0.0349 -0.8626 -0.0979
   9223SM  H15F12450   4.358   5.105  14.560 -0.0748 -1.0489 -0.0795
   9223SM  H15G12451   4.179   5.088  14.564 -1.4688  0.7121 -0.7626
   9223SM  C16F12452   4.242   5.253  14.674 -0.3990 -0.0072  0.2405
   9223SM  H16F12453   4.161   5.320  14.640 -0.2232  0.2144  0.2542
   9223SM  H16G12454   4.329   5.318  14.698 -2.4398  1.6917  3.7082
   9223SM  C17F12455   4.214   5.181  14.806  0.2973 -0.7712 -0.4082
   9223SM  H17F12456   4.296   5.115  14.844 -1.0758 -2.4561 -0.2379
   9223SM  H17G12457   4.127   5.113  14.798 -0.6937  0.4979 -0.6134
   9223SM  C18F12458   4.207   5.292  14.909 -0.1190 -0.1299  0.5917
   9223SM  H18F12459   4.144   5.376  14.873  1.9177  1.8919  1.5141
   9223SM  H18G12460   4.311   5.331  14.914  0.1406 -0.5895 -0.7421
   9223SM  C19F12461   4.143   5.244  15.045 -0.2138 -0.2809  0.4078
   9223SM  H19F12462   4.203   5.162  15.090  1.2518 -0.0716 -1.0700
   9223SM  H19G12463   4.049   5.200  15.006  0.3859 -0.5624 -0.7837
   9223SM  C20F12464   4.114   5.358  15.144 -0.0027  0.3720 -0.1199
   9223SM  H20F12465   4.049   5.436  15.099 -0.2074  0.5922  0.5478
   9223SM  H20G12466   4.214   5.399  15.172 -0.4846 -0.3197  2.9248
   9223SM  C21F12467   4.063   5.301  15.289 -0.7830 -0.4265  0.2829
   9223SM  H21F12468   4.086   5.381  15.362  1.2166  0.8228 -1.5808
   9223SM  H21G12469   4.114   5.210  15.327 -0.9232  0.1553  1.9236
   9223SM  C22F12470   3.909   5.287  15.291 -0.7208  0.7338 -0.3521
   9223SM  H22F12471   3.883   5.264  15.396  0.0377 -2.6012 -0.7892
   9223SM  H22G12472   3.890   5.194  15.232 -2.2689 -0.7651  2.3187
   9223SM  C23F12473   3.832   5.402  15.227  0.2110 -0.9767  0.2970
   9223SM  H23F12474   3.724   5.400  15.254 -0.0187  0.1171 -0.4657
   9223SM  H23G12475   3.847   5.409  15.117 -2.6192 -1.2866 -0.1778
   9223SM  H23H12476   3.872   5.496  15.270  0.9112 -1.6145  1.0609
   9323SM     N12477   5.865   1.758  12.213 -0.3173 -0.5068 -0.1181
   9323SM   C1512478   6.007   1.720  12.186  0.1852 -0.9100 -0.3572
   9323SM  H15A12479   6.000   1.661  12.096 -0.3113 -0.5280 -0.5782
   9323SM  H15B12480   6.059   1.673  12.268  1.2148  1.0617  0.1694
   9323SM  H15C12481   6.070   1.807  12.178  0.1539 -0.8764 -0.2455
   9323SM   C1412482   5.822   1.849  12.102  0.4518  0.1419  0.7030
   9323SM  H14A12483   5.889   1.929  12.074  2.1699 -1.6591 -0.6004
   9323SM  H14B12484   5.724   1.893  12.115  0.7108  1.4199 -1.2433
   9323SM  H14C12485   5.820   1.790  12.012 -0.2693  1.9695 -0.5379
   9323SM   C1312486   5.789   1.628  12.198 -0.0782  0.1730  0.8664
   9323SM  H13A12487   5.784   1.593  12.096 -2.6470 -0.9374  1.2966
   9323SM  H13B12488   5.684   1.639  12.218 -0.8703 -0.9482 -2.1428
   9323SM  H13C12489   5.821   1.544  12.258  0.5866 -0.4472 -0.3257
   9323SM   C1212490   5.853   1.831  12.344  0.3676  0.1149 -0.5346
   9323SM  H12A12491   5.764   1.892  12.340 -1.7064 -2.5878  1.3180
   9323SM  H12B12492   5.924   1.913  12.340 -0.5892  0.9251 -1.9418
   9323SM   C1112493   5.850   1.752  12.473  0.4462 -0.3150  0.2152
   9323SM  H11A12494   5.760   1.687  12.468  0.6304 -0.5905  0.4005
   9323SM  H11B12495   5.831   1.823  12.557 -0.3699 -0.4532  0.1597
   9323SM     P12496   6.086   1.716  12.588  0.1361  0.2082 -0.0512
   9323SM   O1312497   6.204   1.625  12.570 -0.3555 -0.2168 -0.3156
   9323SM   O1412498   6.114   1.856  12.558 -0.1196 -0.3766  1.0425
   9323SM   O1112499   6.033   1.706  12.737  0.5783 -0.3406 -0.0186
   9323SM   O1212500   5.967   1.667  12.496  0.3834  0.9058 -0.4396
   9323SM   C1S12501   5.907   1.642  12.771 -0.6072 -0.1016 -0.1082
   9323SM   H1S12502   5.896   1.541  12.728 -1.3235 -1.3663  2.8303
   9323SM   H1T12503   5.820   1.709  12.751 -1.1256 -0.1472  1.8217
   9323SM    NF12504   5.774   1.539  12.946  0.0347 -0.3311  0.5400
   9323SM   HNF12505   5.695   1.592  12.976 -0.3581  0.1117 -1.1668
   9323SM   C2S12506   5.897   1.610  12.921  0.3234 -0.2902  0.7885
   9323SM   H2S12507   5.976   1.538  12.951 -1.0091 -0.9463  2.9172
   9323SM   C3S12508   5.904   1.746  12.992  0.2511 -0.4458 -0.4655
   9323SM   H3S12509   5.839   1.818  12.938 -0.5802 -2.8865 -2.9246
   9323SM    O312510   6.035   1.803  12.977  0.0631  0.0952  0.1354
   9323SM   HO312511   6.066   1.760  12.897 -1.0052 -3.9036  1.6299
   9323SM   C4S12512   5.872   1.737  13.140 -0.0781  0.6520  0.2229
   9323SM   H4S12513   5.768   1.759  13.165  0.2812  0.4751  1.9750
   9323SM   C5S12514   5.951   1.694  13.243  1.0895 -0.3418 -0.3559
   9323SM   H5S12515   6.061   1.687  13.234  1.2605  2.5745 -1.9377
   9323SM   C6S12516   5.897   1.685  13.383  0.0974 -0.7524  0.3195
   9323SM   H6S12517   5.927   1.584  13.420  3.3015  0.2724  0.8757
   9323SM   H6T12518   5.786   1.690  13.385  0.1165  1.0831  3.4616
   9323SM   C7S12519   5.949   1.810  13.460 -0.1954 -0.6327 -0.1174
   9323SM   H7S12520   5.919   1.907  13.415  0.6167  1.2057  2.9708
   9323SM   H7T12521   6.060   1.810  13.471 -0.2436 -3.0457  0.8442
   9323SM   C8S12522   5.876   1.807  13.603  0.2831 -0.4365  0.8959
   9323SM   H8S12523   5.768   1.822  13.585  0.1728 -1.2649  0.8052
   9323SM   H8T12524   5.919   1.892  13.659  1.4319 -1.5921  1.8375
   9323SM   C9S12525   5.892   1.682  13.691  0.0725  0.3935  0.4222
   9323SM   H9S12526   5.974   1.621  13.647  1.3168  1.9244  0.5189
   9323SM   H9T12527   5.800   1.623  13.673 -0.4777  0.7365  1.9706
   9323SM  C10S12528   5.928   1.717  13.837  0.2656 -0.2490 -0.2659
   9323SM  H10S12529   5.993   1.806  13.831  0.1943 -0.0863  1.0455
   9323SM  H10T12530   5.998   1.638  13.873  0.0969 -1.0454 -1.6214
   9323SM  C11S12531   5.799   1.740  13.915  0.2301 -0.0426 -0.2195
   9323SM  H11S12532   5.742   1.646  13.901  0.3757  0.0997 -1.9409
   9323SM  H11T12533   5.727   1.815  13.874 -2.3895 -2.0680  0.3543
   9323SM  C12S12534   5.826   1.774  14.058  0.0914 -0.4906 -0.1553
   9323SM  H12S12535   5.855   1.880  14.069 -2.1066  0.0753  0.6897
   9323SM  H12T12536   5.907   1.706  14.092  1.3577  0.1530 -1.7706
   9323SM  C13S12537   5.706   1.740  14.153  0.0543  0.7154  0.2623
   9323SM  H13S12538   5.692   1.631  14.134  1.5112  0.3408  1.2096
   9323SM  H13T12539   5.609   1.785  14.122 -0.1097  0.3322  0.2111
   9323SM  C14S12540   5.728   1.765  14.298 -0.1531 -0.3162 -0.1709
   9323SM  H14S12541   5.711   1.872  14.321 -0.1353  0.1397 -2.1209
   9323SM  H14T12542   5.834   1.745  14.322 -0.3572 -0.2447  0.8696
   9323SM  C15S12543   5.627   1.696  14.396  0.1219  0.1291 -0.2205
   9323SM  H15S12544   5.535   1.686  14.335  1.7443 -1.1694 -2.6162
   9323SM  H15T12545   5.658   1.594  14.426  2.0076  1.0501  1.1750
   9323SM  C16S12546   5.609   1.758  14.537 -0.1474  0.5172 -0.1820
   9323SM  H16S12547   5.526   1.707  14.589  1.1179  0.1835  1.6010
   9323SM  H16T12548   5.566   1.861  14.529 -1.8945  0.0028  1.7577
   9323SM  C17S12549   5.734   1.757  14.618 -0.5167  0.1831 -0.6262
   9323SM  H17S12550   5.809   1.822  14.568  1.6582 -0.1007  2.0397
   9323SM  H17T12551   5.777   1.655  14.621  0.1779  0.4801 -0.3777
   9323SM  C18S12552   5.709   1.805  14.764  0.4976 -0.0490 -0.4859
   9323SM  H18S12553   5.676   1.911  14.767  0.5440 -0.0664  2.0184
   9323SM  H18T12554   5.798   1.790  14.828 -1.0463 -0.0649  1.7411
   9323SM  H18U12555   5.629   1.737  14.799  0.4952  0.2888  0.1854
   9323SM   C1F12556   5.746   1.419  12.907 -0.3284  0.5761  0.0475
   9323SM    OF12557   5.835   1.349  12.856  0.2154  0.1378 -0.2994
   9323SM   C2F12558   5.602   1.373  12.916  0.4895  0.4655  0.2061
   9323SM   H2F12559   5.596   1.313  12.823  0.5012  0.3483  0.2816
   9323SM   H2G12560   5.535   1.461  12.905  2.7193  2.2403 -0.0175
   9323SM   C3F12561   5.582   1.273  13.032 -0.0354  0.1080  0.3461
   9323SM   H3F12562   5.668   1.202  13.031 -0.0146  0.1267  0.6489
   9323SM   H3G12563   5.498   1.204  13.013  0.3443  0.1125 -1.5061
   9323SM   C4F12564   5.568   1.346  13.164 -0.4300  0.0924  0.5170
   9323SM   H4F12565   5.475   1.406  13.151 -1.3551 -1.4866 -0.4466
   9323SM   H4G12566   5.659   1.408  13.176 -0.4500  0.2567 -0.1839
   9323SM   C5F12567   5.557   1.257  13.280 -0.4090  0.2336 -0.0599
   9323SM   H5F12568   5.646   1.190  13.284  0.7466  1.4922 -2.4949
   9323SM   H5G12569   5.464   1.199  13.266 -0.9369  1.2016 -0.6920
   9323SM   C6F12570   5.546   1.338  13.407 -0.6367  0.1326 -0.3874
   9323SM   H6F12571   5.442   1.378  13.411 -2.0756 -3.3474  0.8619
   9323SM   H6G12572   5.609   1.430  13.415  0.8130 -0.6286 -2.3490
   9323SM   C7F12573   5.566   1.258  13.537  0.2736  0.3283 -0.0019
   9323SM   H7F12574   5.667   1.213  13.525  0.3160  0.2245  0.6900
   9323SM   H7G12575   5.492   1.175  13.527 -0.5915  1.2207 -1.3956
   9323SM   C8F12576   5.545   1.341  13.664  0.3069 -0.3788  0.0497
   9323SM   H8F12577   5.436   1.361  13.661  0.0733 -1.6039 -0.4979
   9323SM   H8G12578   5.605   1.432  13.644 -1.9639  1.0371 -0.7184
   9323SM   C9F12579   5.579   1.265  13.791  0.0473 -0.0293 -1.0410
   9323SM   H9F12580   5.688   1.260  13.810 -0.2464  2.6116  2.4362
   9323SM   H9G12581   5.530   1.166  13.797  2.3197 -1.1078  2.0855
   9323SM  C10F12582   5.528   1.345  13.913  0.0063  0.2127 -0.5652
   9323SM  H10F12583   5.421   1.368  13.897 -0.3152 -0.3281  0.7365
   9323SM  H10G12584   5.587   1.439  13.910  0.2285  0.1783  1.5677
   9323SM  C11F12585   5.552   1.281  14.049 -0.5884  0.5830 -0.2719
   9323SM  H11F12586   5.663   1.278  14.056 -0.2980 -4.3084 -2.4673
   9323SM  H11G12587   5.530   1.172  14.054  2.5866 -0.1101  0.7733
   9323SM  C12F12588   5.483   1.355  14.165 -0.1724 -0.2272 -0.8605
   9323SM  H12F12589   5.375   1.370  14.147  0.4107  3.7342 -2.0703
   9323SM  H12G12590   5.530   1.456  14.160 -0.7707  0.0568 -0.7573
   9323SM  C13F12591   5.513   1.301  14.307 -0.0084 -0.1046 -0.6440
   9323SM  H13F12592   5.621   1.303  14.332  0.1180 -0.7728 -1.0927
   9323SM  H13G12593   5.494   1.192  14.314 -1.2292  0.2047  1.9802
   9323SM  C14F12594   5.422   1.375  14.406  0.0753  0.5507 -0.2671
   9323SM  H14F12595   5.314   1.355  14.394  0.2661 -2.3668  1.7303
   9323SM  H14G12596   5.436   1.484  14.390  0.9561  0.6303  0.9076
   9323SM  C15F12597   5.454   1.324  14.547 -0.7529 -0.2914 -0.7033
   9323SM  H15F12598   5.558   1.284  14.545  0.2345  1.9802  0.9613
   9323SM  H15G12599   5.387   1.238  14.567  0.1276 -1.1997 -1.5193
   9323SM  C16F12600   5.425   1.431  14.656  0.0629 -0.1177  0.7124
   9323SM  H16F12601   5.325   1.477  14.647 -0.0502 -0.7523 -2.6444
   9323SM  H16G12602   5.496   1.517  14.655 -0.3330  0.2197 -0.7572
   9323SM  C17F12603   5.427   1.358  14.800 -0.7381 -0.4517 -0.3678
   9323SM  H17F12604   5.518   1.294  14.792  0.1768  0.4199  2.1330
   9323SM  H17G12605   5.342   1.287  14.810 -1.2919  0.2198 -0.2268
   9323SM  C18F12606   5.435   1.452  14.915  0.1960 -0.3399 -0.4116
   9323SM  H18F12607   5.527   1.512  14.896  0.3385 -0.0261  1.1547
   9323SM  H18G12608   5.458   1.393  15.006 -0.6657 -1.1160 -0.6803
   9323SM  C19F12609   5.314   1.541  14.941  0.3256 -0.1290  0.5579
   9323SM  H19F12610   5.305   1.607  14.853  3.1824  1.2523  1.1626
   9323SM  H19G12611   5.342   1.601  15.031 -0.8732 -1.5375  1.9259
   9323SM  C20F12612   5.179   1.478  14.974  0.4193  0.1052 -0.4221
   9323SM  H20F12613   5.185   1.418  15.067 -1.6254  0.1502 -0.2317
   9323SM  H20G12614   5.147   1.403  14.898 -0.8478 -0.1037  0.2991
   9323SM  C21F12615   5.068   1.585  14.990  0.3054  0.2013  0.0121
   9323SM  H21F12616   5.088   1.649  15.079 -0.4125  0.1678  0.1996
   9323SM  H21G12617   4.982   1.527  15.029  1.6185  0.3012  3.4073
   9323SM  C22F12618   5.041   1.665  14.863  0.1450  0.3821 -0.6536
   9323SM  H22F12619   5.027   1.588  14.784 -1.2790  1.5344 -1.5937
   9323SM  H22G12620   5.128   1.728  14.836  1.4329 -0.8763  0.4100
   9323SM  C23F12621   4.912   1.749  14.877 -0.7422  0.0522  0.0896
   9323SM  H23F12622   4.823   1.691  14.845 -1.5336  0.4983  1.4079
   9323SM  H23G12623   4.924   1.838  14.812  2.8417 -0.9545 -0.8568
   9323SM  H23H12624   4.896   1.768  14.985  1.0922 -0.7313  0.5233
   9423SM     N12625   3.075   2.103  12.476  0.7048  0.1878  0.0762
   9423SM   C1512626   3.174   1.998  12.427 -0.4984  0.0842  0.6345
   9423SM  H15A12627   3.169   1.992  12.319 -1.0713  0.6176  0.6244
   9423SM  H15B12628   3.158   1.902  12.473 -2.4889  0.9584  1.9486
   9423SM  H15C12629   3.274   2.021  12.461  0.0908 -1.1631 -0.1873
   9423SM   C1412630   3.088   2.228  12.396  0.7423  0.3244  0.1763
   9423SM  H14A12631   3.186   2.271  12.406 -0.0697  2.9789 -2.0260
   9423SM  H14B12632   3.004   2.289  12.426 -2.7031 -2.9378 -1.8469
   9423SM  H14C12633   3.068   2.203  12.293  0.6814  1.9680 -0.2349
   9423SM   C1312634   2.930   2.057  12.455  0.5289 -0.7187 -0.4141
   9423SM  H13A12635   2.866   2.135  12.492  1.9904 -0.2803  1.3442
   9423SM  H13B12636   2.917   1.963  12.505  0.5045  0.1447  1.2571
   9423SM  H13C12637   2.913   2.048  12.349 -2.5146 -1.3452  0.0607
   9423SM   C1212638   3.095   2.117  12.628  0.5060  0.5446  0.4240
   9423SM  H12A12639   3.068   2.021  12.669 -1.0262  1.4363  1.5943
   9423SM  H12B12640   3.023   2.189  12.662 -1.3905 -0.1070 -1.9634
   9423SM   C1112641   3.235   2.141  12.680 -0.7970 -1.0268  1.2707
   9423SM  H11A12642   3.298   2.050  12.684  0.9567 -0.2301 -2.7531
   9423SM  H11B12643   3.228   2.160  12.789 -0.5950 -2.3334  1.5220
   9423SM     P12644   3.457   2.247  12.585 -0.5725 -0.3960  0.1993
   9423SM   O1312645   3.494   2.119  12.529 -0.0612  0.7888 -0.1625
   9423SM   O1412646   3.502   2.369  12.513 -0.2193 -0.0205  0.2905
   9423SM   O1112647   3.522   2.258  12.730 -0.1981  0.4490 -0.1281
   9423SM   O1212648   3.302   2.244  12.612  0.7916 -0.1723  0.0124
   9423SM   C1S12649   3.493   2.367  12.819 -0.3862 -0.2000 -0.1789
   9423SM   H1S12650   3.405   2.342  12.881 -0.0508 -0.3293  0.2501
   9423SM   H1T12651   3.460   2.454  12.757 -0.4888  0.1262  0.3270
   9423SM    NF12652   3.577   2.459  13.027  0.4860 -0.4734 -0.6238
   9423SM   HNF12653   3.604   2.554  13.032 -1.3542  0.0329  1.0063
   9423SM   C2S12654   3.619   2.391  12.912 -0.0479  0.3264 -0.0743
   9423SM   H2S12655   3.645   2.288  12.941  1.0544  0.9980  1.4428
   9423SM   C3S12656   3.735   2.445  12.832 -0.5478  0.3820  0.3251
   9423SM   H3S12657   3.713   2.552  12.810 -1.1383 -0.0942 -1.5800
   9423SM    O312658   3.759   2.369  12.714 -0.2019  0.1676 -0.4484
   9423SM   HO312659   3.676   2.322  12.704 -0.6711  1.0436 -0.7621
   9423SM   C4S12660   3.866   2.452  12.913 -0.1954 -0.2081 -0.3834
   9423SM   H4S12661   3.865   2.535  12.986  0.2141  0.1404 -0.7726
   9423SM   C5S12662   3.968   2.357  12.933  0.2383 -0.1091  0.4101
   9423SM   H5S12663   3.959   2.260  12.882  2.4436  1.1602 -2.6746
   9423SM   C6S12664   4.077   2.378  13.033  0.2625  0.9269 -0.6542
   9423SM   H6S12665   4.104   2.485  13.038 -1.7279  1.4407  0.0273
   9423SM   H6T12666   4.167   2.324  12.997 -0.7334 -2.2364  1.1945
   9423SM   C7S12667   4.030   2.322  13.175  0.1608 -0.8427  0.0142
   9423SM   H7S12668   3.986   2.221  13.165 -0.4572 -0.4188 -2.0494
   9423SM   H7T12669   3.942   2.387  13.199 -0.2090 -0.2241 -2.6970
   9423SM   C8S12670   4.133   2.335  13.287  0.2567  0.1972  0.2509
   9423SM   H8S12671   4.166   2.440  13.277 -1.7834  0.6787 -3.3296
   9423SM   H8T12672   4.225   2.277  13.264  0.1575  0.1337  0.0132
   9423SM   C9S12673   4.080   2.290  13.421  0.7819 -0.2020  0.6364
   9423SM   H9S12674   4.092   2.180  13.417  2.9152  0.0168 -0.1752
   9423SM   H9T12675   3.969   2.303  13.425  0.7556 -0.0418 -0.3596
   9423SM  C10S12676   4.148   2.350  13.534 -0.4539  0.4295 -0.1210
   9423SM  H10S12677   4.120   2.457  13.544 -1.5346  0.0282  1.5337
   9423SM  H10T12678   4.257   2.328  13.534 -0.0373  2.0048  2.2809
   9423SM  C11S12679   4.096   2.295  13.665 -0.1927 -0.1480 -0.0246
   9423SM  H11S12680   4.098   2.184  13.670  0.8982 -0.1133  3.8296
   9423SM  H11T12681   3.990   2.327  13.667 -0.2099  0.1570 -2.5527
   9423SM  C12S12682   4.187   2.339  13.780  0.2410  0.7233 -0.6038
   9423SM  H12S12683   4.200   2.448  13.770 -0.1283  0.9904  1.3343
   9423SM  H12T12684   4.287   2.291  13.771  0.7416  1.7128 -0.3832
   9423SM  C13S12685   4.115   2.288  13.907  1.0437  0.7321  0.4661
   9423SM  H13S12686   4.075   2.188  13.881 -0.9488  1.4710  0.4891
   9423SM  H13T12687   4.018   2.342  13.918  0.3636 -0.4391  0.4160
   9423SM  C14S12688   4.192   2.286  14.034 -0.3403  0.8827  0.2652
   9423SM  H14S12689   4.232   2.388  14.052  2.1435 -0.1541  1.0835
   9423SM  H14T12690   4.278   2.216  14.025  0.1068  1.5099 -0.4486
   9423SM  C15S12691   4.099   2.241  14.150  0.5120 -0.8098 -0.5250
   9423SM  H15S12692   4.064   2.135  14.152  1.1766 -1.2300  4.5370
   9423SM  H15T12693   4.018   2.316  14.158 -0.3229 -1.8631  1.8283
   9423SM  C16S12694   4.168   2.261  14.291 -0.8670  0.0924 -0.2354
   9423SM  H16S12695   4.102   2.228  14.374  0.0201 -0.6834  0.1855
   9423SM  H16T12696   4.192   2.369  14.303 -3.2894  0.7398 -0.8422
   9423SM  C17S12697   4.311   2.199  14.318 -0.2554 -0.3990  0.4064
   9423SM  H17S12698   4.381   2.245  14.244 -0.8012  0.8341  0.6392
   9423SM  H17T12699   4.318   2.088  14.310  2.8020 -0.1766 -2.9545
   9423SM  C18S12700   4.342   2.230  14.467 -0.8407  0.5548 -0.5435
   9423SM  H18S12701   4.273   2.189  14.544  0.8223 -0.6113  0.3924
   9423SM  H18T12702   4.373   2.335  14.483  1.0701 -0.1863  0.9198
   9423SM  H18U12703   4.436   2.174  14.483 -1.4010 -0.4516 -0.6408
   9423SM   C1F12704   3.514   2.398  13.128  0.3287  0.9148 -0.3641
   9423SM    OF12705   3.457   2.293  13.117  0.0959  0.1301 -0.0324
   9423SM   C2F12706   3.504   2.461  13.262  0.0195 -0.2445  1.3588
   9423SM   H2F12707   3.398   2.444  13.293 -0.1293 -1.2080  0.3739
   9423SM   H2G12708   3.516   2.571  13.270 -0.3110 -0.1613  0.7265
   9423SM   C3F12709   3.596   2.389  13.375  0.3739 -0.1739  0.3724
   9423SM   H3F12710   3.695   2.385  13.324 -0.1058  1.9350 -0.8711
   9423SM   H3G12711   3.562   2.289  13.409 -0.1933 -0.4244 -0.8418
   9423SM   C4F12712   3.592   2.475  13.504 -0.2071  0.0670 -0.1648
   9423SM   H4F12713   3.486   2.504  13.520 -0.1762  1.4861 -2.1662
   9423SM   H4G12714   3.653   2.563  13.475  0.6823 -0.2907  0.5331
   9423SM   C5F12715   3.643   2.409  13.632 -0.6939  0.6101  0.4128
   9423SM   H5F12716   3.752   2.387  13.620 -0.9578 -0.6996  0.2292
   9423SM   H5G12717   3.592   2.312  13.650 -1.3442  1.1718  1.7930
   9423SM   C6F12718   3.638   2.493  13.759  0.3094  0.1338  0.1456
   9423SM   H6F12719   3.537   2.535  13.778  0.3177  0.4524 -0.4722
   9423SM   H6G12720   3.703   2.580  13.734 -0.1597  0.0431 -1.5596
   9423SM   C7F12721   3.679   2.418  13.882 -0.2664 -0.4840  0.2192
   9423SM   H7F12722   3.779   2.369  13.877  0.6695  1.0513  2.2407
   9423SM   H7G12723   3.603   2.340  13.900  0.1279 -0.4558  2.1900
   9423SM   C8F12724   3.677   2.488  14.012  0.1423 -1.0044 -0.4838
   9423SM   H8F12725   3.571   2.511  14.037  0.2141 -0.2124 -0.8672
   9423SM   H8G12726   3.720   2.589  13.992  0.0194 -0.8374  0.0920
   9423SM   C9F12727   3.734   2.409  14.130 -0.3480 -0.1364 -0.5844
   9423SM   H9F12728   3.845   2.420  14.122 -0.3016 -0.1198  0.0541
   9423SM   H9G12729   3.713   2.301  14.116  0.7757 -0.2121 -1.9436
   9423SM  C10F12730   3.703   2.454  14.265  0.0534 -0.8435 -0.2549
   9423SM  H10F12731   3.599   2.426  14.294  0.6648 -1.2362  1.7240
   9423SM  H10G12732   3.702   2.565  14.269 -2.4878 -0.7406 -1.2688
   9423SM  C11F12733   3.793   2.394  14.374 -0.0972  0.4249  0.4843
   9423SM  H11F12734   3.899   2.428  14.365 -0.0792 -0.0899 -1.6792
   9423SM  H11G12735   3.790   2.283  14.382 -0.8840  0.2947 -1.2507
   9423SM  C12F12736   3.759   2.455  14.512 -0.1700 -0.7234  0.2990
   9423SM  H12F12737   3.653   2.444  14.541 -1.0382  2.8907 -0.9594
   9423SM  H12G12738   3.766   2.565  14.501  0.4325 -0.6088  1.6764
   9423SM  C13F12739   3.853   2.417  14.627  0.2053  0.7865 -0.5874
   9423SM  H13F12740   3.958   2.450  14.609  0.3162 -0.3794 -2.2814
   9423SM  H13G12741   3.844   2.311  14.659 -1.2780  1.4603  1.3944
   9423SM  C14F12742   3.822   2.496  14.761 -0.1481 -0.1997 -0.1706
   9423SM  H14F12743   3.723   2.459  14.797 -0.8555  1.0700 -0.7408
   9423SM  H14G12744   3.818   2.606  14.745  0.0948 -0.5799 -3.9637
   9423SM  C15F12745   3.926   2.469  14.866  0.5039  0.0943  0.2056
   9423SM  H15F12746   3.977   2.370  14.863 -0.0854 -0.1932 -1.0002
   9423SM  H15G12747   3.885   2.466  14.969  3.1218 -0.0585  1.3338
   9423SM  C16F12748   4.041   2.566  14.871 -0.1358 -0.6204 -0.0189
   9423SM  H16F12749   3.997   2.667  14.870 -0.2533 -0.6199  1.9678
   9423SM  H16G12750   4.112   2.552  14.786  1.4799 -1.3545  1.3884
   9423SM  C17F12751   4.121   2.563  15.004 -0.0124  0.2923 -1.2794
   9423SM  H17F12752   4.223   2.606  14.991  0.7077 -0.7532  0.5616
   9423SM  H17G12753   4.134   2.455  15.024  0.2115  0.3381 -1.1748
   9423SM  C18F12754   4.045   2.630  15.123  0.3293  0.0895 -0.3267
   9423SM  H18F12755   3.936   2.629  15.098  0.3209  0.3411 -0.3015
   9423SM  H18G12756   4.085   2.733  15.118  0.9865 -0.2069 -1.5358
   9423SM  C19F12757   4.076   2.563  15.257  0.4532  0.0463 -0.4749
   9423SM  H19F12758   4.075   2.452  15.247  0.3666  0.0697 -0.7405
   9423SM  H19G12759   3.993   2.585  15.328  1.7548  1.0689  0.7715
   9423SM  C20F12760   4.205   2.609  15.324 -0.9219  0.2844  0.3900
   9423SM  H20F12761   4.215   2.557  15.422 -0.9708 -0.1450  0.1730
   9423SM  H20G12762   4.190   2.712  15.364 -4.6678  0.6666 -1.5017
   9423SM  C21F12763   4.340   2.597  15.253  0.4610  0.3222 -0.0368
   9423SM  H21F12764   4.366   2.681  15.185  2.3047 -0.0715  0.1156
   9423SM  H21G12765   4.344   2.503  15.194  1.7724 -0.6547  1.5043
   9423SM  C22F12766   4.447   2.593  15.361 -0.4297 -0.2279 -0.8370
   9423SM  H22F12767   4.432   2.502  15.424  0.7318 -0.3528 -0.7222
   9423SM  H22G12768   4.444   2.686  15.423  1.1374 -0.2893 -0.6325
   9423SM  C23F12769   4.590   2.585  15.302 -0.2451 -0.0908 -0.1695
   9423SM  H23F12770   4.661   2.560  15.383 -1.4649 -2.1483  0.3369
   9423SM  H23G12771   4.628   2.679  15.256  1.5908  0.5661  2.4556
   9423SM  H23H12772   4.592   2.495  15.237 -1.2803 -0.8319  0.7826
   9523SM     N12773   1.380   5.141  12.747  0.0064 -0.5163  0.1753
   9523SM   C1512774   1.424   5.252  12.650  0.0269  0.8198 -0.2735
   9523SM  H15A12775   1.477   5.334  12.697 -0.3315  1.0684 -0.2982
   9523SM  H15B12776   1.343   5.293  12.591 -0.1860  0.3423 -0.3211
   9523SM  H15C12777   1.487   5.198  12.581 -2.3090 -0.3717 -1.6069
   9523SM   C1412778   1.299   5.044  12.671 -0.0946  0.0135  0.3281
   9523SM  H14A12779   1.239   5.089  12.593 -1.8173 -1.5841  0.6635
   9523SM  H14B12780   1.230   4.999  12.740 -0.5212  2.4091  1.5660
   9523SM  H14C12781   1.349   4.988  12.594 -0.9769  2.5041 -2.2129
   9523SM   C1312782   1.495   5.069  12.808 -0.6737 -0.1027 -0.0839
   9523SM  H13A12783   1.569   5.122  12.866  0.8908 -2.3133  0.0897
   9523SM  H13B12784   1.553   5.014  12.735  0.5826 -2.4179  2.4697
   9523SM  H13C12785   1.448   4.992  12.867  1.0055 -0.3078  1.0554
   9523SM   C1212786   1.297   5.202  12.858 -0.2878  0.0476 -0.1425
   9523SM  H12A12787   1.206   5.239  12.813 -0.2299 -1.0595 -1.2151
   9523SM  H12B12788   1.359   5.278  12.903 -0.3236 -1.3374  2.4174
   9523SM   C1112789   1.247   5.119  12.977  0.4609  0.4052 -1.2923
   9523SM  H11A12790   1.201   5.178  13.058 -0.6611  0.1695 -1.7368
   9523SM  H11B12791   1.333   5.072  13.029 -1.3617 -2.1461 -0.3809
   9523SM     P12792   1.175   4.865  12.973  0.4041 -0.2559  0.3220
   9523SM   O1312793   1.061   4.787  12.921 -0.2436  0.3315 -0.1842
   9523SM   O1412794   1.309   4.815  12.944 -0.3430  0.1440  0.0160
   9523SM   O1112795   1.163   4.885  13.131 -0.7714 -0.0732 -0.4054
   9523SM   O1212796   1.156   5.014  12.931  0.2519  0.3261  0.6912
   9523SM   C1S12797   1.040   4.928  13.188 -0.0451  0.4260  0.3858
   9523SM   H1S12798   0.960   4.861  13.148 -1.6757  2.4029  0.1653
   9523SM   H1T12799   1.005   5.030  13.160  0.7969  0.6820  0.2410
   9523SM    NF12800   0.899   4.942  13.391 -0.3202  0.2055  0.1061
   9523SM   HNF12801   0.865   5.035  13.407 -1.5442 -0.2618  0.3750
   9523SM   C2S12802   1.039   4.920  13.347 -0.0723  0.4266 -0.2785
   9523SM   H2S12803   1.073   4.818  13.378 -0.3962  0.5451  0.4878
   9523SM   C3S12804   1.140   5.023  13.396 -0.5516  0.0825  0.2735
   9523SM   H3S12805   1.118   5.128  13.366  1.8217  0.5200 -0.1138
   9523SM    O312806   1.279   5.009  13.352  0.1255 -0.0600 -0.3722
   9523SM   HO312807   1.267   4.939  13.287  0.7839 -0.8476  0.3184
   9523SM   C4S12808   1.142   5.035  13.552  0.2644 -0.0953  0.1443
   9523SM   H4S12809   1.053   5.082  13.594  1.2187  0.7533  1.2847
   9523SM   C5S12810   1.231   4.976  13.636 -0.5833  0.4592 -0.5499
   9523SM   H5S12811   1.302   4.912  13.581 -0.6587  1.7332 -2.1871
   9523SM   C6S12812   1.237   4.976  13.786  0.5283  0.2384 -0.4465
   9523SM   H6S12813   1.341   4.965  13.823  1.1116  2.6171 -1.2142
   9523SM   H6T12814   1.168   4.902  13.832 -0.6140  0.3041 -1.9858
   9523SM   C7S12815   1.180   5.111  13.831  0.9107 -0.0235  0.2534
   9523SM   H7S12816   1.071   5.100  13.815  0.6945 -0.3213  1.7627
   9523SM   H7T12817   1.211   5.203  13.776 -0.5821  0.6352  0.4634
   9523SM   C8S12818   1.189   5.142  13.979  0.2279 -0.1436  0.6664
   9523SM   H8S12819   1.117   5.223  14.003 -2.2910 -1.6655 -1.2704
   9523SM   H8T12820   1.291   5.183  13.997 -0.2082  1.0930  0.4345
   9523SM   C9S12821   1.165   5.023  14.075  0.4318 -0.6268  0.6175
   9523SM   H9S12822   1.233   4.936  14.066 -0.1503 -0.9365 -1.1078
   9523SM   H9T12823   1.062   4.982  14.074  0.2692 -0.2583 -1.4686
   9523SM  C10S12824   1.183   5.077  14.216  0.2758 -0.2646  0.1451
   9523SM  H10S12825   1.101   5.147  14.244  0.2359  0.1281 -0.9138
   9523SM  H10T12826   1.279   5.130  14.231  0.1174  0.1856 -0.3917
   9523SM  C11S12827   1.203   4.961  14.318  0.7384 -0.4481  0.1491
   9523SM  H11S12828   1.301   4.913  14.299 -0.0127 -2.3678  0.8642
   9523SM  H11T12829   1.119   4.888  14.314 -0.0292  0.4694 -1.1044
   9523SM  C12S12830   1.210   5.010  14.465  0.4785 -0.2963 -0.3782
   9523SM  H12S12831   1.110   5.053  14.491  0.7599  0.5803 -0.7106
   9523SM  H12T12832   1.272   5.101  14.478 -1.0234  0.7267 -0.0504
   9523SM  C13S12833   1.258   4.908  14.571  0.1198 -0.7488 -0.6912
   9523SM  H13S12834   1.360   4.872  14.548  0.4462 -1.1218  1.1789
   9523SM  H13T12835   1.183   4.826  14.566 -0.6110 -0.1515  0.1172
   9523SM  C14S12836   1.264   4.976  14.705 -0.3678  0.0973  0.2798
   9523SM  H14S12837   1.171   5.028  14.735  0.3210  0.7720  1.2927
   9523SM  H14T12838   1.334   5.062  14.696  0.6035 -0.7388 -0.4748
   9523SM  C15S12839   1.312   4.875  14.811 -0.2413 -0.0228  0.0461
   9523SM  H15S12840   1.413   4.833  14.792 -0.4689 -1.6981  2.0710
   9523SM  H15T12841   1.238   4.792  14.813 -0.8441  0.5168  1.4772
   9523SM  C16S12842   1.313   4.933  14.959  0.2162  0.2456  0.1999
   9523SM  H16S12843   1.219   4.990  14.976 -1.3168 -1.7163 -1.2605
   9523SM  H16T12844   1.397   5.007  14.961  3.5245 -3.2026  2.2118
   9523SM  C17S12845   1.317   4.827  15.067 -0.1581 -0.9934  0.1608
   9523SM  H17S12846   1.399   4.759  15.036  2.8510  2.7876 -0.9172
   9523SM  H17T12847   1.227   4.763  15.064  1.5407 -3.4954 -0.1579
   9523SM  C18S12848   1.325   4.885  15.208 -0.2194 -0.1937  0.4250
   9523SM  H18S12849   1.336   4.802  15.281  2.5787 -0.5176 -0.2599
   9523SM  H18T12850   1.228   4.929  15.241 -0.6853 -0.8340 -0.0691
   9523SM  H18U12851   1.414   4.951  15.216 -0.4551  0.0089  1.4637
   9523SM   C1F12852   0.802   4.854  13.380 -0.2494  0.2642  0.0816
   9523SM    OF12853   0.805   4.757  13.306 -0.3734  0.6809  0.0025
   9523SM   C2F12854   0.677   4.890  13.457 -0.1996 -0.3659 -0.3764
   9523SM   H2F12855   0.675   4.810  13.534  2.3671  0.7876  1.0519
   9523SM   H2G12856   0.592   4.884  13.387 -0.6135 -1.9842  0.2332
   9523SM   C3F12857   0.677   5.031  13.516 -0.4209 -0.3766  0.4210
   9523SM   H3F12858   0.658   5.109  13.439 -0.4423 -0.2532  0.5497
   9523SM   H3G12859   0.765   5.052  13.580 -0.1645  1.8767 -0.5837
   9523SM   C4F12860   0.557   5.059  13.609  0.1402  0.3350  0.2817
   9523SM   H4F12861   0.466   5.018  13.562 -0.2254  0.4301  0.8936
   9523SM   H4G12862   0.532   5.166  13.622 -1.4027  0.2724 -1.7441
   9523SM   C5F12863   0.572   4.987  13.739  0.3062  0.0841 -0.4834
   9523SM   H5F12864   0.671   5.017  13.779  0.0225  1.6201 -0.8938
   9523SM   H5G12865   0.584   4.879  13.715  1.7539  0.2794 -0.7265
   9523SM   C6F12866   0.461   5.012  13.835  0.3989 -0.7495  0.6854
   9523SM   H6F12867   0.367   4.972  13.792 -1.0477  2.5535  0.4566
   9523SM   H6G12868   0.433   5.119  13.838 -2.6957 -1.3619 -1.3982
   9523SM   C7F12869   0.479   4.964  13.969 -0.5887 -0.3836 -0.0492
   9523SM   H7F12870   0.566   5.022  14.007  0.7138 -1.6742 -0.9238
   9523SM   H7G12871   0.507   4.856  13.971 -0.3517 -0.3251 -0.1792
   9523SM   C8F12872   0.349   4.968  14.052  0.6174  0.2189  0.2262
   9523SM   H8F12873   0.288   4.883  14.013  1.1563 -0.8818  1.6930
   9523SM   H8G12874   0.294   5.064  14.039  0.5721 -0.0306 -1.7745
   9523SM   C9F12875   0.381   4.930  14.196  0.3379  0.4276 -0.3577
   9523SM   H9F12876   0.474   4.869  14.189  1.3767  1.9217 -0.0730
   9523SM   H9G12877   0.299   4.875  14.245 -0.5916  2.0828  0.0335
   9523SM  C10F12878   0.413   5.059  14.273 -0.3207 -0.1543  0.7155
   9523SM  H10F12879   0.317   5.113  14.289 -0.0101  0.5202  0.3825
   9523SM  H10G12880   0.472   5.118  14.199  0.2107 -0.0677  1.2082
   9523SM  C11F12881   0.490   5.044  14.405 -0.2766  0.4429 -0.0657
   9523SM  H11F12882   0.600   5.032  14.393 -0.2190 -0.1324  0.8798
   9523SM  H11G12883   0.448   4.951  14.450 -0.8343  1.4011  1.4747
   9523SM  C12F12884   0.470   5.156  14.500  0.3635 -0.6580  0.0527
   9523SM  H12F12885   0.370   5.200  14.483  1.1552  0.7628 -1.1636
   9523SM  H12G12886   0.546   5.234  14.477  0.0155 -0.5527 -0.7584
   9523SM  C13F12887   0.480   5.100  14.639 -0.1080 -0.1384  0.1753
   9523SM  H13F12888   0.569   5.033  14.636 -1.2214 -1.6620  0.0981
   9523SM  H13G12889   0.394   5.036  14.667 -1.6806  0.5512 -2.7063
   9523SM  C14F12890   0.502   5.214  14.746 -0.2197 -0.3801  0.0025
   9523SM  H14F12891   0.406   5.269  14.757 -0.1486 -0.2618  0.0251
   9523SM  H14G12892   0.574   5.291  14.713 -2.3118  0.8795 -1.9595
   9523SM  C15F12893   0.533   5.159  14.886 -0.1999 -0.0152  0.1643
   9523SM  H15F12894   0.624   5.096  14.883  1.2343  1.9761 -1.3020
   9523SM  H15G12895   0.454   5.085  14.908 -0.5825  0.6947  1.2872
   9523SM  C16F12896   0.522   5.256  15.007 -0.0855  0.2569 -0.3070
   9523SM  H16F12897   0.533   5.197  15.101  0.4095 -1.3886 -1.3559
   9523SM  H16G12898   0.423   5.306  15.001  0.3087  1.2401  0.9200
   9523SM  C17F12899   0.633   5.360  15.023 -0.1201 -0.4759  0.5705
   9523SM  H17F12900   0.644   5.404  14.921 -1.3209 -0.6588  0.3537
   9523SM  H17G12901   0.729   5.308  15.044  0.8101  0.7262 -0.4732
   9523SM  C18F12902   0.595   5.467  15.128  0.3025 -0.4416  0.0918
   9523SM  H18F12903   0.530   5.537  15.070  1.5156 -0.9262 -1.9714
   9523SM  H18G12904   0.678   5.529  15.168 -1.5567  2.5605 -0.3898
   9523SM  C19F12905   0.527   5.410  15.263 -0.3601 -0.7327 -0.9240
   9523SM  H19F12906   0.441   5.346  15.232 -1.8409  0.1026  1.2201
   9523SM  H19G12907   0.481   5.495  15.318 -0.7905 -1.2908 -0.3992
   9523SM  C20F12908   0.618   5.339  15.366  0.1727 -0.3002  0.7155
   9523SM  H20F12909   0.705   5.404  15.391 -0.3993 -0.2108  2.6626
   9523SM  H20G12910   0.655   5.256  15.302  1.0481  0.2576  0.4752
   9523SM  C21F12911   0.543   5.289  15.489 -0.6581 -0.1754 -0.7194
   9523SM  H21F12912   0.464   5.217  15.458 -1.0741 -0.0387  0.0032
   9523SM  H21G12913   0.497   5.374  15.545  1.0184  1.0703 -1.1343
   9523SM  C22F12914   0.635   5.211  15.590 -0.3840 -0.1390 -0.1380
   9523SM  H22F12915   0.721   5.165  15.536 -1.7508 -1.1050 -1.5664
   9523SM  H22G12916   0.564   5.138  15.633 -0.5310  0.5233  0.7936
   9523SM  C23F12917   0.700   5.300  15.696  0.2226 -0.3398 -0.7791
   9523SM  H23F12918   0.748   5.387  15.647  0.6616  0.2330  0.6384
   9523SM  H23G12919   0.771   5.245  15.761  1.6183 -0.2424 -2.1807
   9523SM  H23H12920   0.606   5.328  15.749 -0.1130 -0.9195 -1.0455
   9623SM     N12921   3.286   3.343  12.105  0.3252  0.2404  0.4447
   9623SM   C1512922   3.159   3.273  12.140  0.4650 -0.1361  0.1630
   9623SM  H15A12923   3.173   3.218  12.231  0.8464 -1.6699 -0.7831
   9623SM  H15B12924   3.126   3.210  12.059  0.0855  0.0806  0.1470
   9623SM  H15C12925   3.092   3.353  12.169  0.4642 -0.2843  0.5738
   9623SM   C1412926   3.383   3.245  12.090 -0.5215 -0.2946 -0.2072
   9623SM  H14A12927   3.357   3.176  12.011  0.8964 -1.0939 -0.0216
   9623SM  H14B12928   3.399   3.187  12.180 -0.3861  0.3249  0.1725
   9623SM  H14C12929   3.474   3.294  12.057 -1.2610 -0.0404 -1.9837
   9623SM   C1312930   3.268   3.418  11.977 -0.3260  0.1936  0.4342
   9623SM  H13A12931   3.360   3.465  11.947 -1.6685  1.5512 -1.8902
   9623SM  H13B12932   3.190   3.493  11.982 -0.3804  0.5929 -3.3114
   9623SM  H13C12933   3.231   3.367  11.889 -0.4475  1.8069 -0.4978
   9623SM   C1212934   3.319   3.436  12.218  0.0993 -0.0692 -0.3834
   9623SM  H12A12935   3.420   3.473  12.207  0.3672 -0.8669 -0.6895
   9623SM  H12B12936   3.306   3.375  12.307  2.4146  0.9102  0.7143
   9623SM   C1112937   3.225   3.559  12.236  0.3727  0.2010 -0.5003
   9623SM  H11A12938   3.232   3.612  12.139  1.5003 -1.1841 -1.2352
   9623SM  H11B12939   3.266   3.624  12.316 -0.0315 -0.9637  0.6874
   9623SM     P12940   3.022   3.542  12.386  0.3374 -0.2723  0.0175
   9623SM   O1312941   2.875   3.550  12.367 -0.9221 -0.6513 -0.0164
   9623SM   O1412942   3.068   3.428  12.476 -0.4605  0.2158 -0.0585
   9623SM   O1112943   3.075   3.676  12.436  0.2317  0.2035  0.2879
   9623SM   O1212944   3.088   3.523  12.247 -0.2387  0.0504 -0.5777
   9623SM   C1S12945   3.017   3.756  12.532 -0.2256 -0.5696  0.1562
   9623SM   H1S12946   2.918   3.723  12.572 -1.0970  0.8566 -0.7161
   9623SM   H1T12947   2.997   3.854  12.484 -0.2887  0.4979  2.2374
   9623SM    NF12948   3.048   3.825  12.770  0.1314  0.4561 -0.0080
   9623SM   HNF12949   3.088   3.904  12.815 -1.1414  0.7052  0.7314
   9623SM   C2S12950   3.114   3.786  12.649  0.2174 -0.2366  0.2628
   9623SM   H2S12951   3.159   3.689  12.678  0.9846  0.1150  0.2779
   9623SM   C3S12952   3.233   3.882  12.620  0.7225  0.0158  0.6287
   9623SM   H3S12953   3.185   3.981  12.599  2.6247  0.8109 -0.1930
   9623SM    O312954   3.311   3.849  12.502 -0.4040 -0.4356  0.3012
   9623SM   HO312955   3.259   3.778  12.464 -2.4168  0.4292  1.2749
   9623SM   C4S12956   3.333   3.897  12.742 -0.2006  0.6291  0.4177
   9623SM   H4S12957   3.315   3.991  12.798 -4.3817  1.3661 -1.7157
   9623SM   C5S12958   3.437   3.819  12.774 -0.4136 -0.5161  0.9892
   9623SM   H5S12959   3.450   3.725  12.717 -2.1173  1.2607 -2.6976
   9623SM   C6S12960   3.509   3.835  12.905 -0.1250 -0.2455 -0.6146
   9623SM   H6S12961   3.588   3.912  12.917 -1.3679  0.7157  2.7690
   9623SM   H6T12962   3.551   3.734  12.923  0.7170 -0.2553 -2.4161
   9623SM   C7S12963   3.417   3.862  13.030 -0.2365 -0.5454 -0.8081
   9623SM   H7S12964   3.319   3.811  13.025  0.4763 -1.9075 -1.2504
   9623SM   H7T12965   3.390   3.970  13.033  1.1229 -0.2047  0.4814
   9623SM   C8S12966   3.494   3.846  13.162 -0.7587 -0.1101 -0.2043
   9623SM   H8S12967   3.591   3.893  13.134 -2.3255  2.6392 -1.3643
   9623SM   H8T12968   3.499   3.737  13.182 -1.8571 -0.3697 -1.2330
   9623SM   C9S12969   3.435   3.917  13.280 -0.4867 -0.5901  0.3915
   9623SM   H9S12970   3.344   3.865  13.315  0.2660 -0.6001  2.4357
   9623SM   H9T12971   3.414   4.024  13.258 -1.6200 -0.5507  1.5778
   9623SM  C10S12972   3.532   3.919  13.392 -0.5667 -0.2327 -0.1034
   9623SM  H10S12973   3.632   3.958  13.361 -0.2129  0.1706  1.4505
   9623SM  H10T12974   3.566   3.817  13.422 -0.0082  0.1504  0.6282
   9623SM  C11S12975   3.481   3.987  13.521 -0.2824  0.1984 -0.0641
   9623SM  H11S12976   3.380   3.946  13.542  0.2655 -2.0513 -1.5729
   9623SM  H11T12977   3.461   4.095  13.501  0.4487  0.6459  1.4860
   9623SM  C12S12978   3.565   3.972  13.642  0.2634 -0.2626  0.2888
   9623SM  H12S12979   3.659   4.029  13.624  0.9450 -1.2204  0.7719
   9623SM  H12T12980   3.582   3.865  13.664  1.2784 -0.3722 -0.9040
   9623SM  C13S12981   3.493   4.014  13.770  0.1247 -0.4432 -0.0802
   9623SM  H13S12982   3.398   3.959  13.780 -0.9176  1.5173  1.7038
   9623SM  H13T12983   3.464   4.121  13.763 -0.8057 -0.6440  0.5797
   9623SM  C14S12984   3.577   3.992  13.892  0.4655  0.0696 -0.0804
   9623SM  H14S12985   3.676   4.034  13.864 -0.8534  1.1309 -3.7404
   9623SM  H14T12986   3.607   3.891  13.925  1.4186  0.1639 -0.6160
   9623SM  C15S12987   3.520   4.074  14.014  0.7170  0.2917  0.2228
   9623SM  H15S12988   3.427   4.022  14.044  1.2312 -2.0874 -1.8807
   9623SM  H15T12989   3.512   4.176  13.971  2.5564 -0.1441 -1.3489
   9623SM  C16S12990   3.626   4.085  14.126  0.0640 -0.0730  0.6065
   9623SM  H16S12991   3.601   4.180  14.179 -0.5864 -0.2680  0.6614
   9623SM  H16T12992   3.730   4.085  14.087  0.4722  0.4362  1.6481
   9623SM  C17S12993   3.621   3.977  14.239 -0.3052 -0.1787  0.6503
   9623SM  H17S12994   3.647   3.876  14.202  0.7391  0.9354 -1.9416
   9623SM  H17T12995   3.511   3.969  14.251 -0.3274 -1.5023 -0.2177
   9623SM  C18S12996   3.689   4.004  14.374  0.1466  0.7139 -0.0803
   9623SM  H18S12997   3.627   4.085  14.418 -2.5928 -2.0454  1.5378
   9623SM  H18T12998   3.796   4.030  14.359  0.4222 -0.8560 -1.0668
   9623SM  H18U12999   3.675   3.914  14.438  0.7055  0.7437  0.0875
   9623SM   C1F13000   2.949   3.758  12.838  0.0748 -0.0276  0.4495
   9623SM    OF13001   2.909   3.649  12.800 -0.2305 -0.7103  0.3444
   9623SM   C2F13002   2.894   3.819  12.963  0.5215  0.0541  0.4851
   9623SM   H2F13003   2.785   3.799  12.968  0.7766 -1.5352  0.3852
   9623SM   H2G13004   2.905   3.929  12.953  2.5093 -0.1304  0.1666
   9623SM   C3F13005   2.958   3.754  13.081  0.8099 -0.2268  0.0521
   9623SM   H3F13006   3.067   3.775  13.080  0.4559  1.8273 -0.9057
   9623SM   H3G13007   2.938   3.645  13.092  0.7877 -0.4363 -1.7276
   9623SM   C4F13008   2.896   3.813  13.211  0.3575 -0.1735  0.4275
   9623SM   H4F13009   2.788   3.793  13.199  0.2826  0.9201 -1.0165
   9623SM   H4G13010   2.910   3.923  13.218  0.7036 -0.1956  0.1365
   9623SM   C5F13011   2.962   3.743  13.329 -0.1858 -0.0036 -0.0412
   9623SM   H5F13012   3.072   3.731  13.320 -0.3077 -0.3238 -1.1818
   9623SM   H5G13013   2.922   3.640  13.335 -0.4953  0.1777  1.3227
   9623SM   C6F13014   2.922   3.815  13.464 -0.6604  0.1564  0.2199
   9623SM   H6F13015   2.814   3.794  13.480 -1.1610  2.3147 -0.0347
   9623SM   H6G13016   2.946   3.923  13.457  0.2950  0.0052  0.9313
   9623SM   C7F13017   3.002   3.750  13.573  0.2570  0.1662 -0.2210
   9623SM   H7F13018   3.021   3.642  13.554  0.9184  0.6516 -2.5937
   9623SM   H7G13019   2.952   3.762  13.672  0.5581 -0.3184 -0.0046
   9623SM   C8F13020   3.143   3.818  13.596  0.6298 -0.2688 -0.0130
   9623SM   H8F13021   3.124   3.921  13.633 -0.2083 -0.8412  1.2064
   9623SM   H8G13022   3.208   3.802  13.507 -0.1896  0.0478 -0.6857
   9623SM   C9F13023   3.219   3.741  13.703 -0.6340 -0.3151 -0.3389
   9623SM   H9F13024   3.322   3.781  13.696 -1.9395  3.3712 -0.6186
   9623SM   H9G13025   3.225   3.632  13.682 -0.2913 -0.5648  0.9742
   9623SM  C10F13026   3.170   3.767  13.846 -0.2533  0.2739 -0.1238
   9623SM  H10F13027   3.092   3.689  13.861  0.6761 -0.6199  0.1389
   9623SM  H10G13028   3.132   3.869  13.871  2.1750  1.3629 -0.6211
   9623SM  C11F13029   3.273   3.741  13.955  0.1576  0.6251 -0.0665
   9623SM  H11F13030   3.369   3.788  13.927  1.1571 -0.6874  1.0044
   9623SM  H11G13031   3.305   3.636  13.974  3.8033  1.9805  2.2614
   9623SM  C12F13032   3.229   3.787  14.094 -0.4253 -0.3795 -0.5238
   9623SM  H12F13033   3.218   3.897  14.100  0.3585 -0.2491 -1.3201
   9623SM  H12G13034   3.316   3.764  14.159 -0.3119  3.0805  0.7570
   9623SM  C13F13035   3.106   3.709  14.151 -0.3643 -0.1404 -0.8449
   9623SM  H13F13036   3.124   3.600  14.137 -0.2677  0.0608 -2.4394
   9623SM  H13G13037   3.015   3.731  14.092 -0.2518 -0.3926 -1.1211
   9623SM  C14F13038   3.066   3.748  14.293  0.5934 -0.8753  0.0519
   9623SM  H14F13039   2.992   3.670  14.319 -0.5198 -0.4398 -1.6415
   9623SM  H14G13040   3.017   3.848  14.297  0.2049 -1.0792  0.3644
   9623SM  C15F13041   3.188   3.742  14.389 -0.0491 -0.6237  0.0952
   9623SM  H15F13042   3.269   3.815  14.368  0.4171 -1.0756  0.3199
   9623SM  H15G13043   3.238   3.645  14.371  1.2036 -0.5902  2.8479
   9623SM  C16F13044   3.132   3.749  14.532 -1.8858  0.3151 -0.5093
   9623SM  H16F13045   3.077   3.655  14.554 -0.8352 -0.0023  0.9278
   9623SM  H16G13046   3.057   3.831  14.544  0.6769  2.6310  0.9447
   9623SM  C17F13047   3.241   3.764  14.639  0.4034 -0.0102 -0.2403
   9623SM  H17F13048   3.299   3.851  14.602  0.8158  0.1219  0.7066
   9623SM  H17G13049   3.303   3.672  14.642 -2.0908 -1.7739  0.8011
   9623SM  C18F13050   3.174   3.781  14.776 -0.6127 -0.6057 -0.1115
   9623SM  H18F13051   3.116   3.691  14.805  0.6296 -1.5575 -0.4825
   9623SM  H18G13052   3.113   3.874  14.782 -1.6810 -1.1904 -1.4097
   9623SM  C19F13053   3.278   3.795  14.884 -0.3535 -1.0887  0.2092
   9623SM  H19F13054   3.344   3.881  14.857  0.3437 -1.5149  0.5336
   9623SM  H19G13055   3.358   3.718  14.888  1.4489  0.7286  1.3986
   9623SM  C20F13056   3.220   3.828  15.026  0.2695 -0.1558 -0.1666
   9623SM  H20F13057   3.164   3.742  15.068  0.7283 -0.4590 -0.1602
   9623SM  H20G13058   3.140   3.904  15.016 -0.8182 -1.2643 -0.0664
   9623SM  C21F13059   3.324   3.849  15.135  0.5268  0.0592  0.7786
   9623SM  H21F13060   3.410   3.906  15.094 -1.2794  1.5627 -1.1263
   9623SM  H21G13061   3.349   3.748  15.175 -0.0603 -1.6264 -2.7171
   9623SM  C22F13062   3.265   3.932  15.256 -0.6477  0.0855  0.5391
   9623SM  H22F13063   3.162   3.901  15.284 -0.8737 -0.5321 -0.9182
   9623SM  H22G13064   3.245   4.036  15.222  1.7798  0.2031 -0.7221
   9623SM  C23F13065   3.363   3.924  15.374 -0.1968  0.3666 -0.0567
   9623SM  H23F13066   3.464   3.919  15.329 -0.1392  0.7040  0.0292
   9623SM  H23G13067   3.341   3.847  15.451  1.0242 -0.8962 -0.9476
   9623SM  H23H13068   3.356   4.016  15.436 -0.1549 -0.0071  0.5071
   9723SM     N13069   2.344   2.422  12.409  0.6791  0.2896  0.3409
   9723SM   C1513070   2.362   2.278  12.438  0.4525 -0.2440  0.0663
   9723SM  H15A13071   2.299   2.253  12.523 -0.4720  1.9274  0.1058
   9723SM  H15B13072   2.467   2.259  12.455  0.5380  0.9363  1.0069
   9723SM  H15C13073   2.320   2.217  12.360 -0.3294 -1.0980  1.1185
   9723SM   C1413074   2.424   2.454  12.284 -0.0348  0.1652  0.0211
   9723SM  H14A13075   2.530   2.445  12.300  0.1793  1.0493 -0.7460
   9723SM  H14B13076   2.404   2.556  12.253 -2.1233  1.0217  3.5928
   9723SM  H14C13077   2.406   2.382  12.206 -0.7172 -0.5045  0.7826
   9723SM   C1313078   2.193   2.457  12.378 -0.1745  0.0459  0.3733
   9723SM  H13A13079   2.155   2.381  12.310  1.6007 -0.8771  0.3521
   9723SM  H13B13080   2.182   2.557  12.338 -2.5383  0.1821  1.2522
   9723SM  H13C13081   2.145   2.462  12.474  0.4409  3.2024  0.6172
   9723SM   C1213082   2.388   2.506  12.525 -0.1883 -0.8511 -0.4667
   9723SM  H12A13083   2.374   2.613  12.516 -2.4688 -1.2483 -3.2456
   9723SM  H12B13084   2.493   2.484  12.539 -0.1885  0.1991  1.6452
   9723SM   C1113085   2.327   2.484  12.670 -0.0100  0.1346 -0.5173
   9723SM  H11A13086   2.388   2.552  12.734  1.3564 -0.2926 -1.3228
   9723SM  H11B13087   2.340   2.380  12.706 -3.3557 -0.0562  0.4977
   9723SM     P13088   2.127   2.654  12.681 -0.1093 -0.2108  0.2046
   9723SM   O1313089   2.191   2.751  12.585  0.1085 -0.4093  0.0604
   9723SM   O1413090   1.986   2.641  12.647 -0.5902  0.4050  0.1144
   9723SM   O1113091   2.149   2.683  12.833 -0.1785 -0.0565 -0.1554
   9723SM   O1213092   2.187   2.509  12.683  0.0560  0.2411  0.3992
   9723SM   C1S13093   2.244   2.788  12.861  0.0480 -0.1836  0.1374
   9723SM   H1S13094   2.190   2.882  12.835  0.4362 -0.1224 -0.4721
   9723SM   H1T13095   2.339   2.775  12.806 -0.3614  1.9067 -1.2138
   9723SM    NF13096   2.329   2.911  13.058  1.4336 -0.5110 -0.2959
   9723SM   HNF13097   2.425   2.927  13.082  1.4358 -0.9626  0.0141
   9723SM   C2S13098   2.292   2.782  13.009  0.2158  0.5559 -0.2020
   9723SM   H2S13099   2.204   2.752  13.071  0.0021  2.6164  0.5715
   9723SM   C3S13100   2.407   2.672  13.012 -0.1989 -0.0951 -0.8405
   9723SM   H3S13101   2.495   2.703  12.952  0.4218 -1.5664 -0.7227
   9723SM    O313102   2.368   2.543  12.962  0.1638 -0.2884  0.2822
   9723SM   HO313103   2.282   2.571  12.931  0.4961  2.7629  1.6726
   9723SM   C4S13104   2.443   2.647  13.156 -0.7902 -0.0987  0.7021
   9723SM   H4S13105   2.359   2.659  13.225 -1.4671 -0.1802 -0.0931
   9723SM   C5S13106   2.567   2.631  13.206  0.2529  0.0716  0.1197
   9723SM   H5S13107   2.650   2.636  13.135  0.1180 -2.4392 -0.2991
   9723SM   C6S13108   2.597   2.621  13.353 -0.4568 -0.7458  0.4010
   9723SM   H6S13109   2.643   2.522  13.373  2.4733  0.4400 -0.0888
   9723SM   H6T13110   2.504   2.617  13.414 -0.5246  0.9642  0.4586
   9723SM   C7S13111   2.694   2.732  13.400  0.0649 -0.3964  0.1497
   9723SM   H7S13112   2.640   2.827  13.383 -0.2092 -0.6055 -0.1504
   9723SM   H7T13113   2.785   2.725  13.336 -0.9367 -2.8627 -1.1244
   9723SM   C8S13114   2.742   2.722  13.547  0.0291 -0.2779  0.1139
   9723SM   H8S13115   2.784   2.822  13.569  0.5328 -0.3335 -0.5841
   9723SM   H8T13116   2.831   2.656  13.542  0.4342  0.3163 -0.7376
   9723SM   C9S13117   2.636   2.680  13.646 -0.2095  0.5209  0.2984
   9723SM   H9S13118   2.587   2.585  13.617 -0.5596  0.5526  0.7870
   9723SM   H9T13119   2.558   2.758  13.657 -0.2352  0.4595  0.5555
   9723SM  C10S13120   2.693   2.645  13.787  0.4594 -0.6517  0.3872
   9723SM  H10S13121   2.783   2.581  13.777  0.7617 -0.0652 -0.8163
   9723SM  H10T13122   2.613   2.584  13.834  1.1759 -1.8642  0.0552
   9723SM  C11S13123   2.733   2.763  13.874  0.0516 -0.6242  0.3650
   9723SM  H11S13124   2.664   2.850  13.872  0.4633 -0.3055 -0.8557
   9723SM  H11T13125   2.828   2.805  13.836 -0.0941  0.0606  0.7574
   9723SM  C12S13126   2.750   2.726  14.024  0.4903 -0.5808  0.6073
   9723SM  H12S13127   2.821   2.640  14.025 -0.6796 -1.5666  1.0499
   9723SM  H12T13128   2.656   2.685  14.065 -0.4073 -0.3966 -1.1502
   9723SM  C13S13129   2.824   2.834  14.110 -0.3620  0.4063 -0.0256
   9723SM  H13S13130   2.755   2.922  14.116  0.4361  1.0378  0.0361
   9723SM  H13T13131   2.920   2.858  14.060  0.3520  0.6148  1.3793
   9723SM  C14S13132   2.885   2.776  14.242 -0.1607 -1.0211  0.3832
   9723SM  H14S13133   2.965   2.702  14.221  2.5743  2.3021 -2.1232
   9723SM  H14T13134   2.805   2.725  14.299 -2.2525 -0.5612 -1.9911
   9723SM  C15S13135   2.937   2.889  14.335  0.6907 -0.5408 -0.0199
   9723SM  H15S13136   2.870   2.975  14.316 -1.0234 -1.5611  1.0528
   9723SM  H15T13137   3.037   2.915  14.293 -0.0617  0.2837 -1.3808
   9723SM  C16S13138   2.924   2.851  14.485  0.2353 -0.0793  0.2953
   9723SM  H16S13139   2.975   2.753  14.496 -1.4689 -1.1845 -1.1107
   9723SM  H16T13140   2.815   2.843  14.503  0.6222  1.8982  4.6257
   9723SM  C17S13141   2.976   2.946  14.586  0.1775  0.8118 -0.2677
   9723SM  H17S13142   2.951   3.051  14.560 -1.6231  0.8683  1.4650
   9723SM  H17T13143   3.086   2.938  14.575  0.2546  1.4618  0.0118
   9723SM  C18S13144   2.940   2.918  14.731 -0.2403 -0.7903  0.2874
   9723SM  H18S13145   2.990   2.824  14.761  1.9629  0.3079  0.2887
   9723SM  H18T13146   2.830   2.904  14.738 -0.7074  1.5835 -1.0919
   9723SM  H18U13147   2.967   3.001  14.800 -0.0239 -1.5592  1.1517
   9723SM   C1F13148   2.240   3.008  13.066 -0.3132  0.3449  0.0466
   9723SM    OF13149   2.120   2.987  13.051 -0.1260  0.1568 -0.5787
   9723SM   C2F13150   2.304   3.144  13.090 -0.0515  0.5428 -0.2052
   9723SM   H2F13151   2.299   3.188  12.987  1.1827 -1.5674 -1.2344
   9723SM   H2G13152   2.411   3.136  13.117  0.2026  0.0276 -1.2814
   9723SM   C3F13153   2.218   3.233  13.183  0.2277  0.4814  0.6265
   9723SM   H3F13154   2.115   3.254  13.150  1.0842  1.3776 -1.6719
   9723SM   H3G13155   2.276   3.328  13.187 -0.1868  0.8916 -1.7647
   9723SM   C4F13156   2.209   3.182  13.321 -0.1713  0.9824 -0.1249
   9723SM   H4F13157   2.215   3.071  13.309  1.0427  1.1091 -0.7793
   9723SM   H4G13158   2.110   3.206  13.367  0.0040  1.0451  0.2175
   9723SM   C5F13159   2.319   3.241  13.413  0.5824  0.3079  0.2175
   9723SM   H5F13160   2.292   3.345  13.440 -1.7485 -0.3806  0.7213
   9723SM   H5G13161   2.418   3.240  13.362  0.1469 -2.7349 -0.7550
   9723SM   C6F13162   2.315   3.159  13.544  0.1716 -0.0978  0.9373
   9723SM   H6F13163   2.359   3.062  13.512 -0.4723  0.3341 -1.5068
   9723SM   H6G13164   2.210   3.141  13.578 -0.4492 -3.2538 -2.0601
   9723SM   C7F13165   2.393   3.219  13.662 -0.1234  0.4351 -0.0179
   9723SM   H7F13166   2.359   3.320  13.693 -0.7896 -0.1862  1.3427
   9723SM   H7G13167   2.497   3.232  13.624  0.3491  0.2992  1.2073
   9723SM   C8F13168   2.390   3.134  13.787 -0.0569 -0.5545  0.2679
   9723SM   H8F13169   2.443   3.037  13.777 -1.4075 -1.3341  0.3563
   9723SM   H8G13170   2.286   3.098  13.808 -0.3941 -0.0599 -0.5363
   9723SM   C9F13171   2.439   3.208  13.911 -0.2879 -0.5661  0.7705
   9723SM   H9F13172   2.373   3.294  13.938  0.2381 -0.1444  0.7294
   9723SM   H9G13173   2.530   3.264  13.881 -1.7315  1.6449  0.2512
   9723SM  C10F13174   2.449   3.104  14.032 -0.4221 -0.1964  0.4095
   9723SM  H10F13175   2.540   3.043  14.014  0.3657  0.4825  1.9008
   9723SM  H10G13176   2.363   3.034  14.029 -0.9346  0.4375  0.0859
   9723SM  C11F13177   2.486   3.182  14.161  0.0455 -0.4071 -0.1195
   9723SM  H11F13178   2.388   3.228  14.186 -0.3650 -1.2003 -0.2224
   9723SM  H11G13179   2.553   3.268  14.142 -0.0245  0.6457  3.6103
   9723SM  C12F13180   2.539   3.095  14.265 -0.4046  0.7469 -0.4836
   9723SM  H12F13181   2.612   3.026  14.219 -0.8293 -0.5904  0.7594
   9723SM  H12G13182   2.460   3.032  14.311 -0.5146  1.6336  0.5929
   9723SM  C13F13183   2.598   3.173  14.383 -0.4701 -0.1654  0.6599
   9723SM  H13F13184   2.619   3.102  14.466  1.9419 -1.6971 -1.1088
   9723SM  H13G13185   2.523   3.249  14.412 -1.0821  0.1597 -1.5540
   9723SM  C14F13186   2.731   3.241  14.348 -0.5760 -0.1750 -0.1001
   9723SM  H14F13187   2.739   3.252  14.238  0.5106  1.2648  0.0775
   9723SM  H14G13188   2.817   3.179  14.381  2.5603  3.6494 -0.3597
   9723SM  C15F13189   2.752   3.388  14.398  0.1011 -0.5512 -0.6513
   9723SM  H15F13190   2.691   3.455  14.334  1.2180  0.3546 -0.8112
   9723SM  H15G13191   2.859   3.409  14.374  0.3264  2.1350  2.1147
   9723SM  C16F13192   2.743   3.430  14.547 -0.4599  0.2699  0.6295
   9723SM  H16F13193   2.807   3.363  14.609  2.6579  1.2244 -1.3425
   9723SM  H16G13194   2.635   3.423  14.574 -0.3496  3.7208  2.4670
   9723SM  C17F13195   2.800   3.569  14.565  0.3510  0.3903  0.2192
   9723SM  H17F13196   2.722   3.636  14.523 -1.1285 -2.6504 -2.3533
   9723SM  H17G13197   2.893   3.575  14.505 -0.0597 -1.3347 -0.6598
   9723SM  C18F13198   2.833   3.605  14.717  0.2737 -0.5152  0.6738
   9723SM  H18F13199   2.845   3.715  14.723 -0.1827 -0.3858 -0.6163
   9723SM  H18G13200   2.927   3.560  14.756  0.9546  0.5791  0.3320
   9723SM  C19F13201   2.714   3.567  14.805  0.4872  0.2994  0.5110
   9723SM  H19F13202   2.697   3.458  14.823 -2.5168  0.6615  0.3918
   9723SM  H19G13203   2.617   3.608  14.769 -0.8905 -2.4689  0.7753
   9723SM  C20F13204   2.733   3.641  14.937  0.2122  0.1515 -0.5475
   9723SM  H20F13205   2.647   3.627  15.007  0.9285 -0.3057  0.2625
   9723SM  H20G13206   2.740   3.749  14.912  2.5650  0.7463  2.1853
   9723SM  C21F13207   2.864   3.604  15.009 -0.7340 -0.2686  0.3729
   9723SM  H21F13208   2.950   3.645  14.952  0.2604  0.0516  2.0119
   9723SM  H21G13209   2.872   3.494  15.011 -0.3492 -0.2482 -0.0235
   9723SM  C22F13210   2.876   3.655  15.152  0.3434 -0.0046  0.2938
   9723SM  H22F13211   2.978   3.634  15.189 -0.0510 -2.6069  0.0594
   9723SM  H22G13212   2.807   3.616  15.230 -0.8914  1.2302 -0.1357
   9723SM  C23F13213   2.841   3.804  15.160 -0.5399  0.1434  0.7992
   9723SM  H23F13214   2.892   3.858  15.242  0.4100 -0.7688  0.8263
   9723SM  H23G13215   2.730   3.809  15.164 -0.5840 -0.9767  1.1604
   9723SM  H23H13216   2.876   3.868  15.076 -0.6964  0.3405  0.8809
   9823SM     N13217   3.774   5.565  12.416  0.0517 -0.4999 -0.5888
   9823SM   C1513218   3.682   5.684  12.410  0.1321 -0.4450 -1.4553
   9823SM  H15A13219   3.621   5.702  12.498  1.8093  0.4837 -0.4366
   9823SM  H15B13220   3.607   5.654  12.338 -2.2940  2.0004 -0.1258
   9823SM  H15C13221   3.728   5.779  12.387 -2.6650  1.8879  1.5589
   9823SM   C1413222   3.842   5.542  12.281  0.3332 -0.0334  0.0156
   9823SM  H14A13223   3.916   5.464  12.290 -0.3570 -0.7796 -0.4940
   9823SM  H14B13224   3.881   5.638  12.251 -1.5554  0.8921  0.3617
   9823SM  H14C13225   3.767   5.507  12.211 -0.5221 -0.0664  0.9225
   9823SM   C1313226   3.876   5.582  12.526  0.8810 -0.6946  0.0856
   9823SM  H13A13227   3.826   5.569  12.621 -0.4072 -0.4094 -0.5272
   9823SM  H13B13228   3.929   5.676  12.529  2.2020 -1.4401  1.4311
   9823SM  H13C13229   3.946   5.500  12.522  2.4978  0.6737 -1.8848
   9823SM   C1213230   3.693   5.442  12.447  0.9020  0.2545 -0.2246
   9823SM  H12A13231   3.611   5.433  12.377 -2.0676  0.4994  2.9590
   9823SM  H12B13232   3.642   5.458  12.541 -0.8999  1.1303 -1.2949
   9823SM   C1113233   3.769   5.309  12.463  0.5444  0.2957 -0.4703
   9823SM  H11A13234   3.687   5.239  12.491 -0.5496  1.8458  0.3357
   9823SM  H11B13235   3.842   5.313  12.547  0.6565  0.2248 -0.5648
   9823SM     P13236   3.926   5.145  12.340 -0.2153  0.0882 -0.1034
   9823SM   O1313237   3.911   5.069  12.214  0.4880 -0.4401 -0.6934
   9823SM   O1413238   4.061   5.202  12.370  0.1004  0.5061 -0.0515
   9823SM   O1113239   3.871   5.058  12.462 -0.0578 -0.3828  0.3203
   9823SM   O1213240   3.827   5.266  12.343  0.0284 -0.1394 -0.2364
   9823SM   C1S13241   3.925   4.928  12.496  0.0780 -0.5479  0.3120
   9823SM   H1S13242   4.035   4.932  12.479 -0.0001 -0.0237 -0.0986
   9823SM   H1T13243   3.883   4.844  12.435  0.0628  0.3593 -0.9792
   9823SM    NF13244   3.998   4.807  12.708 -0.0696 -0.5591  0.1496
   9823SM   HNF13245   3.969   4.712  12.716 -0.8237 -0.1942  2.2219
   9823SM   C2S13246   3.916   4.913  12.652  0.1176  0.0820  0.1957
   9823SM   H2S13247   3.955   5.011  12.689 -0.9952  0.1745  1.1708
   9823SM   C3S13248   3.765   4.906  12.691  0.5812  1.1824  0.3532
   9823SM   H3S13249   3.701   4.827  12.647  0.9839  0.1508  1.5780
   9823SM    O313250   3.691   5.024  12.667 -0.1384 -0.2414 -0.0039
   9823SM   HO313251   3.734   5.066  12.592  1.2456 -1.6000 -0.0116
   9823SM   C4S13252   3.746   4.894  12.839  0.1212 -0.2555  0.6064
   9823SM   H4S13253   3.778   4.982  12.897 -1.0624  0.6895 -0.1201
   9823SM   C5S13254   3.675   4.793  12.898 -0.1010 -0.3563  0.1226
   9823SM   H5S13255   3.639   4.717  12.827 -2.7291  0.5314  0.3851
   9823SM   C6S13256   3.659   4.763  13.042 -0.0296  0.6968  0.0152
   9823SM   H6S13257   3.664   4.653  13.061  0.1339  0.3875 -1.6795
   9823SM   H6T13258   3.551   4.775  13.064 -0.1430 -1.8764  1.3575
   9823SM   C7S13259   3.739   4.849  13.140 -0.2560 -0.0761  0.4668
   9823SM   H7S13260   3.719   4.957  13.119 -1.1285 -0.3171 -0.0394
   9823SM   H7T13261   3.848   4.832  13.127 -0.7357 -1.9091 -1.9586
   9823SM   C8S13262   3.713   4.825  13.287 -0.4541  0.0839 -0.8778
   9823SM   H8S13263   3.750   4.722  13.306 -1.3346 -0.4129 -1.7681
   9823SM   H8T13264   3.604   4.827  13.308 -0.6839  1.2503 -1.9950
   9823SM   C9S13265   3.784   4.916  13.397  0.6376  0.2185  0.6248
   9823SM   H9S13266   3.758   5.023  13.382 -0.2931 -0.1106 -0.1873
   9823SM   H9T13267   3.895   4.914  13.387  0.8051  2.1979  1.6393
   9823SM  C10S13268   3.755   4.870  13.540 -0.8678  0.1740  0.1787
   9823SM  H10S13269   3.800   4.768  13.546  0.4034  0.6366 -0.9964
   9823SM  H10T13270   3.651   4.860  13.579 -0.1505 -1.2721  1.8629
   9823SM  C11S13271   3.835   4.946  13.648  0.2875  0.2117  0.2565
   9823SM  H11S13272   3.799   5.051  13.659 -0.6277 -0.0882  0.1232
   9823SM  H11T13273   3.940   4.955  13.612  0.4679  1.0539  0.9395
   9823SM  C12S13274   3.820   4.880  13.784  0.2645  0.0171 -0.4211
   9823SM  H12S13275   3.846   4.774  13.762 -2.0388 -0.2547 -2.2604
   9823SM  H12T13276   3.716   4.875  13.823  0.4431  2.7456  0.6592
   9823SM  C13S13277   3.900   4.945  13.897 -0.4340  0.4097  0.1472
   9823SM  H13S13278   3.860   5.047  13.917  2.4285  1.8207 -0.8466
   9823SM  H13T13279   4.002   4.954  13.854 -0.3155  1.2677  0.5795
   9823SM  C14S13280   3.887   4.871  14.025 -0.3392  0.0767  0.7843
   9823SM  H14S13281   3.914   4.765  14.001 -1.8225 -0.0620 -0.3913
   9823SM  H14T13282   3.778   4.866  14.044 -0.1629 -1.9261  1.5688
   9823SM  C15S13283   3.968   4.919  14.137 -0.5796  0.0841 -0.2462
   9823SM  H15S13284   3.942   5.027  14.148 -0.4038  0.0678  0.3931
   9823SM  H15T13285   4.078   4.908  14.128 -0.7361 -0.2836 -1.9658
   9823SM  C16S13286   3.907   4.848  14.260  0.1663  0.0169  0.3108
   9823SM  H16S13287   3.915   4.739  14.245 -2.6655 -0.2499  0.2463
   9823SM  H16T13288   3.798   4.866  14.261  0.1048 -0.3727  0.6784
   9823SM  C17S13289   3.952   4.887  14.399 -0.4899 -0.7726  0.4230
   9823SM  H17S13290   3.922   4.991  14.425 -0.6852 -0.7878  0.2615
   9823SM  H17T13291   4.061   4.871  14.404 -0.4833 -0.4505  1.4025
   9823SM  C18S13292   3.886   4.803  14.513 -0.2776 -0.0728 -0.1969
   9823SM  H18S13293   3.915   4.841  14.614 -1.8601  1.1569 -0.1650
   9823SM  H18T13294   3.904   4.694  14.504 -0.3507 -0.3465  2.2449
   9823SM  H18U13295   3.775   4.810  14.508 -0.3032 -1.0200 -1.2236
   9823SM   C1F13296   4.132   4.821  12.720 -0.4064 -0.0283 -0.1414
   9823SM    OF13297   4.191   4.930  12.739  0.0901 -0.0712 -0.6624
   9823SM   C2F13298   4.211   4.690  12.717  0.2388 -0.1709  0.3442
   9823SM   H2F13299   4.269   4.684  12.623 -0.7242 -0.8250 -0.2272
   9823SM   H2G13300   4.134   4.610  12.722 -1.6670  1.4363 -1.4063
   9823SM   C3F13301   4.317   4.680  12.832  0.2813  0.0084 -0.3250
   9823SM   H3F13302   4.387   4.766  12.826 -1.4826  1.5759  0.7034
   9823SM   H3G13303   4.366   4.584  12.804 -2.4670 -1.0682 -1.7344
   9823SM   C4F13304   4.241   4.676  12.965  0.0713 -0.0247  0.7696
   9823SM   H4F13305   4.164   4.596  12.952 -0.5541  1.0271 -3.3395
   9823SM   H4G13306   4.178   4.768  12.967 -0.3830 -0.2928 -0.3682
   9823SM   C5F13307   4.321   4.663  13.100  0.2937 -0.6563  0.5424
   9823SM   H5F13308   4.402   4.739  13.106 -0.4845  0.2233  0.2522
   9823SM   H5G13309   4.361   4.561  13.116  0.4290 -0.4673  1.4010
   9823SM   C6F13310   4.227   4.668  13.221 -0.5494  0.3036  0.2005
   9823SM   H6F13311   4.173   4.570  13.224 -1.5750  0.7796 -1.5589
   9823SM   H6G13312   4.152   4.749  13.231  0.5156  1.1868  1.3723
   9823SM   C7F13313   4.313   4.669  13.351 -0.0395  0.1384  0.8919
   9823SM   H7F13314   4.376   4.761  13.354 -1.2726  1.0223  0.5580
   9823SM   H7G13315   4.378   4.580  13.338  0.2948  0.6805 -1.8106
   9823SM   C8F13316   4.228   4.662  13.478 -0.1919  0.3709  0.1896
   9823SM   H8F13317   4.169   4.569  13.491 -0.5030  0.7867  2.0441
   9823SM   H8G13318   4.167   4.754  13.484 -0.0133  0.6747 -1.8244
   9823SM   C9F13319   4.317   4.658  13.606  0.6878  0.1861 -0.1776
   9823SM   H9F13320   4.364   4.758  13.618 -1.9997  1.4605  0.4843
   9823SM   H9G13321   4.401   4.588  13.587  0.8945  0.5716 -0.6976
   9823SM  C10F13322   4.247   4.636  13.736 -0.3689  0.4489 -0.7680
   9823SM  H10F13323   4.183   4.547  13.722 -0.0091 -0.1987  1.3242
   9823SM  H10G13324   4.190   4.731  13.750 -2.1246 -0.3866 -1.9956
   9823SM  C11F13325   4.333   4.619  13.860 -0.5774  0.2648 -0.4616
   9823SM  H11F13326   4.424   4.681  13.841 -0.4794  0.6336  1.0890
   9823SM  H11G13327   4.381   4.519  13.864  0.2504  0.6950  0.9079
   9823SM  C12F13328   4.267   4.664  13.991 -0.1384  0.3978 -0.5391
   9823SM  H12F13329   4.161   4.630  13.999  0.1089 -0.0787  0.9746
   9823SM  H12G13330   4.255   4.774  13.993  2.9675  0.8146 -0.0960
   9823SM  C13F13331   4.341   4.630  14.119 -0.1615  0.2455 -0.5871
   9823SM  H13F13332   4.426   4.701  14.114  1.3577 -1.5480 -0.9869
   9823SM  H13G13333   4.371   4.524  14.126 -0.3773  0.2081 -0.1757
   9823SM  C14F13334   4.258   4.678  14.245  0.3262  0.2488 -0.2262
   9823SM  H14F13335   4.155   4.637  14.240 -0.4833  2.2726 -1.0269
   9823SM  H14G13336   4.258   4.789  14.247 -1.1002  0.2686 -0.5029
   9823SM  C15F13337   4.336   4.633  14.371  0.1200  0.2140 -0.1005
   9823SM  H15F13338   4.443   4.639  14.340 -0.0890 -0.8765 -1.0978
   9823SM  H15G13339   4.313   4.528  14.400  0.4802  0.5017  1.3018
   9823SM  C16F13340   4.307   4.717  14.492 -0.0556  0.2729  0.0460
   9823SM  H16F13341   4.200   4.693  14.510  0.0721  0.8755  1.8536
   9823SM  H16G13342   4.314   4.826  14.470  0.9106  0.4964  1.3341
   9823SM  C17F13343   4.372   4.670  14.625 -0.2169  0.7180  0.2913
   9823SM  H17F13344   4.480   4.652  14.608 -0.1922  1.2943 -0.1959
   9823SM  H17G13345   4.316   4.579  14.657  1.9094 -0.2013  1.6237
   9823SM  C18F13346   4.355   4.768  14.749  0.7653  0.4789  0.4182
   9823SM  H18F13347   4.402   4.866  14.729 -0.3912  0.7614 -1.0889
   9823SM  H18G13348   4.404   4.723  14.837 -0.0995 -0.9500  0.2023
   9823SM  C19F13349   4.209   4.793  14.782 -0.2189  1.0900  0.3852
   9823SM  H19F13350   4.155   4.698  14.764  3.1385 -1.5199  2.8756
   9823SM  H19G13351   4.173   4.865  14.705  1.6552  1.6447 -0.0278
   9823SM  C20F13352   4.171   4.833  14.929 -0.1883 -0.6850 -0.2246
   9823SM  H20F13353   4.231   4.919  14.963 -1.3310  0.5941 -1.2888
   9823SM  H20G13354   4.200   4.740  14.981  0.6326 -0.7856 -0.8444
   9823SM  C21F13355   4.018   4.848  14.953  0.4308  0.8473  0.5016
   9823SM  H21F13356   3.983   4.743  14.942 -0.7741  0.9141  2.9723
   9823SM  H21G13357   3.966   4.913  14.879  1.1272 -0.0137 -0.7869
   9823SM  C22F13358   3.974   4.886  15.099 -0.6074 -0.7581 -0.4981
   9823SM  H22F13359   3.865   4.871  15.085 -0.6004 -1.7561  0.4095
   9823SM  H22G13360   3.992   4.995  15.111 -1.9008 -0.4948 -0.8303
   9823SM  C23F13361   4.035   4.803  15.214  0.4365  0.0179  0.3790
   9823SM  H23F13362   4.004   4.697  15.202 -1.9814  0.7216 -0.1698
   9823SM  H23G13363   3.992   4.833  15.312 -0.4992  0.8164 -0.2515
   9823SM  H23H13364   4.145   4.814  15.219  0.1753  3.3720  0.8756
   9923SM     N13365   6.258   3.067  12.560 -0.0830 -0.9390  0.3331
   9923SM   C1513366   6.217   2.989  12.441 -0.4422 -0.5776 -0.2500
   9923SM  H15A13367   6.292   2.974  12.365 -1.0538  1.3232 -1.2856
   9923SM  H15B13368   6.134   3.045  12.399 -0.0532 -0.2015 -0.5183
   9923SM  H15C13369   6.177   2.891  12.465 -0.9500 -0.4805 -0.6704
   9923SM   C1413370   6.344   2.989  12.642  0.4214  0.5714  0.1329
   9923SM  H14A13371   6.395   3.049  12.716 -1.1770  0.7439  1.1396
   9923SM  H14B13372   6.428   2.944  12.591 -0.1278 -1.7748  1.1879
   9923SM  H14C13373   6.292   2.910  12.693 -0.9236  2.1099  1.2418
   9923SM   C1313374   6.325   3.200  12.530  0.1840  0.1718  0.1326
   9923SM  H13A13375   6.421   3.199  12.480 -0.7865  3.2339 -2.0955
   9923SM  H13B13376   6.347   3.246  12.625 -2.1968  0.9348  0.3972
   9923SM  H13C13377   6.258   3.271  12.483  1.4435  0.8415 -0.6878
   9923SM   C1213378   6.131   3.083  12.647 -0.4203 -0.1639  0.6603
   9923SM  H12A13379   6.147   3.140  12.737 -1.5265 -0.3956  1.0148
   9923SM  H12B13380   6.108   2.985  12.686 -1.7701  0.4196  1.3832
   9923SM   C1113381   6.004   3.137  12.576 -0.0277 -0.1983  0.1814
   9923SM  H11A13382   5.917   3.139  12.645 -0.6473  2.7238 -0.5561
   9923SM  H11B13383   5.976   3.047  12.517  0.0480 -0.4920  0.5864
   9923SM     P13384   6.028   3.388  12.588  0.0686 -0.0238 -0.1660
   9923SM   O1313385   6.149   3.471  12.559  0.4403 -0.2497  0.3235
   9923SM   O1413386   5.908   3.463  12.560  0.7851 -0.4547 -0.5724
   9923SM   O1113387   6.014   3.342  12.745 -0.0492  0.0541  0.0292
   9923SM   O1213388   6.025   3.257  12.503  0.4389 -0.3833  0.3830
   9923SM   C1S13389   6.085   3.414  12.856 -1.2066 -0.0060  0.4800
   9923SM   H1S13390   6.097   3.521  12.828 -1.4325 -0.1378 -0.1469
   9923SM   H1T13391   6.186   3.370  12.873 -0.5205  0.8711 -1.0986
   9923SM    NF13392   6.065   3.473  13.097  0.2499 -0.5922  0.3761
   9923SM   HNF13393   6.112   3.440  13.178  0.9877  1.7165  0.9733
   9923SM   C2S13394   6.015   3.389  12.994  0.0213 -0.3789  0.7140
   9923SM   H2S13395   5.907   3.412  12.985  0.0243 -0.4826  0.4062
   9923SM   C3S13396   6.031   3.244  13.023  0.5537  0.0583 -0.8015
   9923SM   H3S13397   6.137   3.227  13.051  0.8065 -0.1274 -1.8423
   9923SM    O313398   5.993   3.154  12.914  0.4842 -0.6339  0.5745
   9923SM   HO313399   5.976   3.217  12.844 -1.0392 -1.0350  0.5571
   9923SM   C4S13400   5.944   3.214  13.151 -0.7023  0.4032  0.3790
   9923SM   H4S13401   6.005   3.226  13.242  1.4727 -0.1885 -0.9232
   9923SM   C5S13402   5.820   3.163  13.164 -0.1542 -0.5103  1.0310
   9923SM   H5S13403   5.766   3.123  13.077  1.9379  0.1352 -0.6375
   9923SM   C6S13404   5.757   3.125  13.290 -0.0770 -0.1203 -0.5225
   9923SM   H6S13405   5.720   3.020  13.280  1.9120 -0.8576 -0.6051
   9923SM   H6T13406   5.667   3.190  13.297 -0.9222 -0.8989 -3.0105
   9923SM   C7S13407   5.844   3.126  13.422  0.3826 -0.1510 -0.0412
   9923SM   H7S13408   5.885   3.227  13.444  1.4396 -0.5366 -0.2122
   9923SM   H7T13409   5.928   3.056  13.405  0.7539  0.1822  0.3798
   9923SM   C8S13410   5.759   3.082  13.541  0.0380  0.3187 -0.1053
   9923SM   H8S13411   5.708   2.988  13.510  0.5302 -0.3486  1.0307
   9923SM   H8T13412   5.680   3.156  13.565 -0.5084 -0.0771 -0.6394
   9923SM   C9S13413   5.850   3.073  13.659 -0.0025  0.2709 -0.0798
   9923SM   H9S13414   5.906   3.169  13.657 -0.1609  0.3612 -0.1484
   9923SM   H9T13415   5.922   2.988  13.652 -0.3172 -0.1054  1.1240
   9923SM  C10S13416   5.772   3.058  13.781 -0.0605 -0.0311 -0.0215
   9923SM  H10S13417   5.717   2.962  13.774 -1.0032  0.5898 -1.8251
   9923SM  H10T13418   5.686   3.128  13.792 -1.3850 -1.7929  1.6328
   9923SM  C11S13419   5.853   3.079  13.914  0.1461 -0.2633 -0.7176
   9923SM  H11S13420   5.897   3.181  13.908 -2.7828  1.2281  0.8170
   9923SM  H11T13421   5.933   3.002  13.914  0.2621 -0.1411 -0.2741
   9923SM  C12S13422   5.766   3.047  14.041 -0.8911  0.2015  0.7820
   9923SM  H12S13423   5.705   2.954  14.038 -0.9253  0.0348  3.6427
   9923SM  H12T13424   5.696   3.134  14.037  0.7974  1.5498 -1.1001
   9923SM  C13S13425   5.842   3.057  14.178 -0.2540 -0.7706  0.8159
   9923SM  H13S13426   5.910   3.145  14.174 -2.3005  0.9922  2.4107
   9923SM  H13T13427   5.902   2.964  14.188 -1.1025 -1.4060  0.1560
   9923SM  C14S13428   5.738   3.076  14.291 -0.3855 -0.4032 -0.1822
   9923SM  H14S13429   5.657   2.999  14.291  0.5036 -1.3698 -1.5368
   9923SM  H14T13430   5.697   3.179  14.290 -1.9689 -0.9321 -3.4650
   9923SM  C15S13431   5.809   3.067  14.426  0.6349 -0.5772  0.5425
   9923SM  H15S13432   5.909   3.113  14.433  0.7606 -1.0305  2.2251
   9923SM  H15T13433   5.828   2.959  14.447  2.7496 -0.4594 -0.4824
   9923SM  C16S13434   5.730   3.127  14.542 -0.0787  0.4415 -0.2217
   9923SM  H16S13435   5.630   3.081  14.550  0.8006 -1.5422 -0.0931
   9923SM  H16T13436   5.727   3.238  14.540  0.5741  0.4630 -0.2978
   9923SM  C17S13437   5.805   3.092  14.672 -0.5497 -0.5515 -0.0342
   9923SM  H17S13438   5.905   3.138  14.656 -1.0177  0.8361  0.8589
   9923SM  H17T13439   5.818   2.982  14.685  2.4668 -0.0342  2.5093
   9923SM  C18S13440   5.746   3.156  14.798  0.5958  0.0642  0.1289
   9923SM  H18S13441   5.643   3.115  14.804 -0.2365  1.8452 -1.1266
   9923SM  H18T13442   5.741   3.267  14.792 -0.2205  0.2612  2.9278
   9923SM  H18U13443   5.805   3.135  14.889 -1.4282 -1.7525  1.1188
   9923SM   C1F13444   6.064   3.604  13.080  0.2605 -0.1355 -0.5421
   9923SM    OF13445   5.999   3.661  12.993  0.1972 -0.2160  0.1677
   9923SM   C2F13446   6.141   3.688  13.184 -0.1276  0.3121 -0.5705
   9923SM   H2F13447   6.155   3.790  13.143 -0.1659  1.1926  1.5129
   9923SM   H2G13448   6.237   3.635  13.200  0.4470  1.8802  1.4919
   9923SM   C3F13449   6.070   3.711  13.317  0.4843  0.3919 -0.2962
   9923SM   H3F13450   6.041   3.609  13.350 -0.9286  1.4924  2.0967
   9923SM   H3G13451   5.975   3.768  13.305  0.5350  0.4263 -0.5365
   9923SM   C4F13452   6.151   3.774  13.429  0.7400  0.1267 -0.3213
   9923SM   H4F13453   6.164   3.881  13.401  0.9441 -0.2393 -1.6943
   9923SM   H4G13454   6.251   3.726  13.433  1.6781  2.0318  0.7077
   9923SM   C5F13455   6.081   3.784  13.568 -1.1239  0.3106 -0.2137
   9923SM   H5F13456   6.054   3.683  13.603 -0.2553  0.3427  0.5684
   9923SM   H5G13457   5.991   3.849  13.570 -0.1764  1.6676  0.5010
   9923SM   C6F13458   6.182   3.825  13.674  0.1914 -0.3541  0.1196
   9923SM   H6F13459   6.208   3.929  13.643  0.0238 -0.0377  1.0023
   9923SM   H6G13460   6.274   3.764  13.661  1.4220  0.6292  3.2617
   9923SM   C7F13461   6.137   3.830  13.819 -0.4677 -0.1546  0.1956
   9923SM   H7F13462   6.070   3.744  13.840 -1.4495  0.6803  0.5557
   9923SM   H7G13463   6.084   3.926  13.835 -1.1204  0.1746 -3.2310
   9923SM   C8F13464   6.254   3.823  13.920  0.3137  0.7268 -0.5037
   9923SM   H8F13465   6.324   3.906  13.894  0.8788 -0.1069 -1.6976
   9923SM   H8G13466   6.312   3.729  13.912  0.9825  1.0940 -0.0709
   9923SM   C9F13467   6.208   3.838  14.067 -0.1136  0.2334  0.3697
   9923SM   H9F13468   6.132   3.760  14.090  2.1601 -2.0515  0.6080
   9923SM   H9G13469   6.177   3.942  14.090  1.1230  0.8373 -0.5785
   9923SM  C10F13470   6.326   3.835  14.165 -0.0840  0.2317 -0.6367
   9923SM  H10F13471   6.407   3.902  14.129  0.3465  0.6779  1.0460
   9923SM  H10G13472   6.374   3.736  14.179  0.6399  0.7395  0.7044
   9923SM  C11F13473   6.281   3.877  14.302  0.1822 -0.6018  0.4216
   9923SM  H11F13474   6.215   3.803  14.351  0.3429 -3.0589 -2.7375
   9923SM  H11G13475   6.235   3.978  14.294 -3.1204 -2.0009  0.1658
   9923SM  C12F13476   6.412   3.904  14.395  0.2258 -0.7408 -0.0809
   9923SM  H12F13477   6.491   3.958  14.339  1.1065  0.4205  2.1845
   9923SM  H12G13478   6.450   3.810  14.439 -1.0606 -2.0735 -1.6710
   9923SM  C13F13479   6.377   4.002  14.513 -0.9045  0.0024  0.5143
   9923SM  H13F13480   6.327   4.085  14.459 -3.0940 -1.7714 -0.3583
   9923SM  H13G13481   6.475   4.036  14.554 -1.0016  0.1271  0.6465
   9923SM  C14F13482   6.298   3.938  14.631 -0.5069  0.3499 -0.2919
   9923SM  H14F13483   6.332   3.834  14.648 -1.6717 -0.2382 -1.3822
   9923SM  H14G13484   6.195   3.919  14.594 -1.1576  0.8973  1.1836
   9923SM  C15F13485   6.317   4.017  14.757  0.3510 -0.6329  0.1357
   9923SM  H15F13486   6.314   4.127  14.740 -2.1951 -0.4101  1.5867
   9923SM  H15G13487   6.416   3.994  14.802  0.3375  0.9547  1.0432
   9923SM  C16F13488   6.213   3.993  14.865 -0.1266  0.4422  0.3680
   9923SM  H16F13489   6.112   4.030  14.840 -0.5741 -1.6021 -1.1962
   9923SM  H16G13490   6.252   4.045  14.955  0.1020  1.0156 -0.0542
   9923SM  C17F13491   6.195   3.844  14.894 -0.5929 -0.0125  0.1997
   9923SM  H17F13492   6.154   3.796  14.802  0.1049 -0.1485 -0.0480
   9923SM  H17G13493   6.122   3.850  14.977  0.1305  0.6750  0.8006
   9923SM  C18F13494   6.324   3.769  14.932  0.2526 -0.0255 -0.5138
   9923SM  H18F13495   6.413   3.795  14.870  0.1774 -1.7813 -1.4233
   9923SM  H18G13496   6.319   3.662  14.902 -1.4977  0.4180 -1.9597
   9923SM  C19F13497   6.353   3.791  15.083  0.2650 -0.1428  0.6539
   9923SM  H19F13498   6.267   3.761  15.146  0.6261  0.7556  1.6036
   9923SM  H19G13499   6.361   3.900  15.106  0.3506  0.2894 -1.2163
   9923SM  C20F13500   6.480   3.714  15.141 -0.1093 -0.2325 -0.3254
   9923SM  H20F13501   6.552   3.728  15.057  0.8705  1.1730  0.7007
   9923SM  H20G13502   6.448   3.608  15.135 -3.2520  0.6712 -2.5415
   9923SM  C21F13503   6.532   3.765  15.275 -0.4212 -0.5759  0.2215
   9923SM  H21F13504   6.479   3.712  15.357  0.3106 -0.9243  0.4772
   9923SM  H21G13505   6.517   3.875  15.283 -3.6896 -1.0037  1.3627
   9923SM  C22F13506   6.680   3.725  15.297  0.3851  0.7582  0.0386
   9923SM  H22F13507   6.749   3.757  15.216 -0.4694  1.6911 -0.3318
   9923SM  H22G13508   6.687   3.614  15.303  1.4911  0.8592  1.0831
   9923SM  C23F13509   6.743   3.779  15.423 -0.3165  1.0458  0.1260
   9923SM  H23F13510   6.710   3.735  15.520  1.8354 -1.0283  0.0129
   9923SM  H23G13511   6.724   3.888  15.431 -1.9415  0.8797 -1.1078
   9923SM  H23H13512   6.853   3.767  15.422 -0.3884  0.4191 -0.5020
  10023SM     N13513   0.956   3.989  12.864 -0.4131 -0.4576 -0.4092
  10023SM   C1513514   0.879   3.865  12.910  0.4491 -0.0003  0.0265
  10023SM  H15A13515   0.773   3.877  12.892  0.3427 -0.2013  0.5156
  10023SM  H15B13516   0.882   3.845  13.016 -3.1942  0.9935  0.4707
  10023SM  H15C13517   0.918   3.775  12.865  0.6446 -0.4424  1.0503
  10023SM   C1413518   1.103   3.960  12.897 -0.0894  0.0082  0.3703
  10023SM  H14A13519   1.160   4.051  12.894 -1.2622  0.7446 -1.6250
  10023SM  H14B13520   1.143   3.893  12.822  0.8695  2.4620 -1.4730
  10023SM  H14C13521   1.113   3.905  12.989  1.2299 -1.3859 -0.5440
  10023SM   C1313522   0.945   4.013  12.712 -0.5182 -0.3700 -0.3200
  10023SM  H13A13523   0.857   4.073  12.696 -0.3553  0.2445  0.9325
  10023SM  H13B13524   0.949   3.920  12.657  1.2613 -0.0430 -0.8128
  10023SM  H13C13525   1.037   4.059  12.677 -1.0758  0.4569 -0.7185
  10023SM   C1213526   0.916   4.116  12.937 -0.0572  0.6811  0.3520
  10023SM  H12A13527   0.992   4.190  12.916  1.1969 -0.7418 -0.3005
  10023SM  H12B13528   0.916   4.095  13.043 -0.2020 -1.2750  0.0007
  10023SM   C1113529   0.783   4.190  12.900 -1.0326  0.3041 -0.3362
  10023SM  H11A13530   0.790   4.232  12.797 -0.8864 -0.1140 -0.4987
  10023SM  H11B13531   0.762   4.270  12.974 -0.2007 -0.3640  0.6458
  10023SM     P13532   0.589   4.059  13.013  0.1172 -0.0895 -0.0325
  10023SM   O1313533   0.464   4.140  13.009  0.3014 -0.3626  0.0849
  10023SM   O1413534   0.578   3.912  13.031 -0.4249 -0.0629  0.6312
  10023SM   O1113535   0.668   4.125  13.135  0.3012  0.1106 -0.6919
  10023SM   O1213536   0.679   4.091  12.888  0.4438  0.5579 -0.0783
  10023SM   C1S13537   0.634   4.079  13.269  0.2270  0.2100  0.5571
  10023SM   H1S13538   0.666   3.973  13.280 -0.7437 -0.0743  0.7800
  10023SM   H1T13539   0.524   4.082  13.288 -0.0491  3.0658 -0.9710
  10023SM    NF13540   0.692   4.107  13.510  0.3842  0.3775 -0.1535
  10023SM   HNF13541   0.625   4.148  13.572  2.4095  3.4926  0.1908
  10023SM   C2S13542   0.703   4.169  13.379 -0.2639  0.1810  0.6268
  10023SM   H2S13543   0.813   4.175  13.365 -0.0420 -1.8652  1.1805
  10023SM   C3S13544   0.659   4.320  13.363  0.0886  0.1637 -0.3081
  10023SM   H3S13545   0.549   4.322  13.379  0.2202 -2.8126  1.9205
  10023SM    O313546   0.705   4.380  13.238  0.6809  0.4277  0.0017
  10023SM   HO313547   0.729   4.298  13.194  2.3842  1.1031 -0.3852
  10023SM   C4S13548   0.713   4.411  13.472 -0.7913 -0.5808 -0.6550
  10023SM   H4S13549   0.804   4.469  13.454 -2.1409  2.5566  1.6892
  10023SM   C5S13550   0.634   4.450  13.578 -0.5213  0.7232  0.4735
  10023SM   H5S13551   0.541   4.391  13.589 -1.4103  1.9773 -0.0384
  10023SM   C6S13552   0.688   4.539  13.683  0.6170 -0.2054 -0.3394
  10023SM   H6S13553   0.664   4.501  13.784  4.1248  1.5387  1.3252
  10023SM   H6T13554   0.627   4.631  13.679  0.3068 -0.3317  1.1775
  10023SM   C7S13555   0.839   4.578  13.679 -0.2083 -0.0955  0.1439
  10023SM   H7S13556   0.877   4.613  13.581 -0.8030  1.8904  0.5862
  10023SM   H7T13557   0.892   4.484  13.707 -1.1932 -0.4340  0.9340
  10023SM   C8S13558   0.878   4.677  13.794 -0.4593  0.0621  0.1905
  10023SM   H8S13559   0.820   4.765  13.762  0.9748  1.4675  1.3127
  10023SM   H8T13560   0.987   4.699  13.784 -0.0106 -1.1716  1.8620
  10023SM   C9S13561   0.849   4.628  13.938 -0.1730 -0.2084  0.0160
  10023SM   H9S13562   0.919   4.544  13.958 -0.0486 -0.0639  0.2071
  10023SM   H9T13563   0.752   4.575  13.948 -0.9944  1.2591  0.1685
  10023SM  C10S13564   0.884   4.737  14.045  0.4839 -0.2498 -0.2276
  10023SM  H10S13565   0.836   4.834  14.022 -0.5545 -0.9122 -0.9431
  10023SM  H10T13566   0.994   4.755  14.049  0.3481  0.4500  0.4359
  10023SM  C11S13567   0.863   4.687  14.189 -0.0233 -0.8194 -0.1778
  10023SM  H11S13568   0.943   4.619  14.225 -1.7037 -1.8523  1.7983
  10023SM  H11T13569   0.772   4.624  14.192  0.2051 -1.1878 -0.9232
  10023SM  C12S13570   0.854   4.812  14.277 -0.3628  0.5590 -0.3050
  10023SM  H12S13571   0.763   4.872  14.255  0.0194  0.7138 -1.5093
  10023SM  H12T13572   0.942   4.871  14.244  1.7205 -0.8720  2.2627
  10023SM  C13S13573   0.858   4.758  14.425  0.3951 -0.8746  0.0845
  10023SM  H13S13574   0.946   4.692  14.444  2.0160  0.8121 -1.2275
  10023SM  H13T13575   0.761   4.703  14.429  0.7543 -1.6024 -0.7594
  10023SM  C14S13576   0.852   4.868  14.532  0.0652  0.5425 -0.2026
  10023SM  H14S13577   0.763   4.932  14.515  1.1276  2.0524 -0.3892
  10023SM  H14T13578   0.942   4.933  14.521 -0.4754  1.3114 -0.1323
  10023SM  C15S13579   0.847   4.812  14.681  0.3763  0.4581  0.6207
  10023SM  H15S13580   0.933   4.742  14.684 -0.4121 -0.7581 -1.9020
  10023SM  H15T13581   0.755   4.750  14.687  2.5525 -3.1816 -0.2304
  10023SM  C16S13582   0.858   4.923  14.791  0.2935  1.1125  0.0408
  10023SM  H16S13583   0.784   5.002  14.766 -0.6497  0.8904  1.9434
  10023SM  H16T13584   0.963   4.959  14.798  0.0920  1.4286  1.9557
  10023SM  C17S13585   0.806   4.869  14.920  0.4275 -0.0406 -0.4285
  10023SM  H17S13586   0.699   4.838  14.913  0.2844 -0.0665  1.3640
  10023SM  H17T13587   0.808   4.951  14.995  0.8613  2.5183 -3.0584
  10023SM  C18S13588   0.889   4.754  14.965  0.4694  0.0166 -0.3248
  10023SM  H18S13589   0.876   4.670  14.894 -1.1754 -1.2668  1.4003
  10023SM  H18T13590   0.856   4.710  15.061  0.2620  0.7389 -0.0526
  10023SM  H18U13591   0.995   4.781  14.985  0.0559  1.3019  0.2602
  10023SM   C1F13592   0.756   3.998  13.548 -0.4419 -0.4355  0.2380
  10023SM    OF13593   0.835   3.947  13.466 -0.6749 -0.2750 -0.6853
  10023SM   C2F13594   0.723   3.938  13.679  0.0550  0.2900 -0.0294
  10023SM   H2F13595   0.616   3.910  13.689  0.5593 -1.9053 -0.3880
  10023SM   H2G13596   0.752   4.012  13.758 -0.4970  0.4606  0.0173
  10023SM   C3F13597   0.806   3.810  13.698  0.2920  0.4850  0.1927
  10023SM   H3F13598   0.911   3.849  13.698  0.9949 -1.3176  0.3009
  10023SM   H3G13599   0.794   3.739  13.613  0.3788 -0.1061  0.6700
  10023SM   C4F13600   0.782   3.728  13.825 -0.2753  0.8058  0.0673
  10023SM   H4F13601   0.836   3.633  13.809 -2.2480 -0.8936  2.7497
  10023SM   H4G13602   0.673   3.709  13.822 -0.0277 -0.6607 -0.6461
  10023SM   C5F13603   0.823   3.799  13.946 -0.2320  0.3514 -0.1631
  10023SM   H5F13604   0.754   3.886  13.952  1.4697  1.9521 -2.2640
  10023SM   H5G13605   0.922   3.842  13.919 -1.3231  2.2775 -1.3784
  10023SM   C6F13606   0.818   3.715  14.073 -0.4560 -0.3193  0.5510
  10023SM   H6F13607   0.894   3.635  14.063  0.7534  1.0117 -1.5364
  10023SM   H6G13608   0.720   3.663  14.079  0.2101 -1.6866 -0.0310
  10023SM   C7F13609   0.858   3.800  14.197 -0.6403  0.1494  0.4820
  10023SM   H7F13610   0.787   3.885  14.208 -0.3275  0.4027  0.5705
  10023SM   H7G13611   0.957   3.848  14.184  0.4802 -2.4594 -1.5253
  10023SM   C8F13612   0.847   3.737  14.336 -0.3190  0.1457  0.6988
  10023SM   H8F13613   0.909   3.645  14.336 -0.3034  0.1012  2.7728
  10023SM   H8G13614   0.739   3.712  14.344 -0.5531  0.2265 -1.5960
  10023SM   C9F13615   0.895   3.843  14.433  0.8607  0.1965 -0.3213
  10023SM   H9F13616   0.832   3.935  14.434  1.2633  0.4682  0.1880
  10023SM   H9G13617   0.993   3.885  14.402  0.3221  0.2503 -2.0663
  10023SM  C10F13618   0.903   3.787  14.580 -0.3027 -0.6818 -0.0005
  10023SM  H10F13619   0.956   3.689  14.578 -0.9906 -1.0766  0.5663
  10023SM  H10G13620   0.803   3.755  14.616 -0.3841 -1.6268 -0.9935
  10023SM  C11F13621   0.956   3.886  14.680  0.6505  0.2538 -0.0934
  10023SM  H11F13622   0.891   3.975  14.681 -0.3403 -0.4067 -1.9821
  10023SM  H11G13623   1.064   3.904  14.660  1.4878 -3.9627 -0.4170
  10023SM  C12F13624   0.953   3.834  14.826 -0.0623  0.5630 -0.2459
  10023SM  H12F13625   1.006   3.737  14.838 -1.0296 -0.0666 -0.9766
  10023SM  H12G13626   0.849   3.830  14.865 -0.5772 -0.9315 -1.7091
  10023SM  C13F13627   1.029   3.925  14.929 -0.3844  0.0025 -0.1180
  10023SM  H13F13628   0.992   4.029  14.916  2.5051  0.9919 -1.4026
  10023SM  H13G13629   1.135   3.927  14.895 -0.6018 -2.1529 -1.0995
  10023SM  C14F13630   1.016   3.880  15.077  0.0879 -0.6367  0.0799
  10023SM  H14F13631   1.043   3.773  15.086  1.2947 -0.2659  1.2987
  10023SM  H14G13632   0.909   3.888  15.105 -0.0693 -0.8452 -0.4515
  10023SM  C15F13633   1.097   3.960  15.173 -0.6583  0.4186 -0.1259
  10023SM  H15F13634   1.067   4.066  15.181  0.0560  0.6184  0.0285
  10023SM  H15G13635   1.200   3.963  15.132 -0.9420  2.0611 -0.7823
  10023SM  C16F13636   1.104   3.909  15.318  0.6953  0.1087  0.0115
  10023SM  H16F13637   1.178   3.970  15.375  1.0446 -0.4789  0.1893
  10023SM  H16G13638   1.148   3.808  15.323 -1.2036 -0.7695 -0.1535
  10023SM  C17F13639   0.973   3.917  15.393  0.1035  0.3166  0.1512
  10023SM  H17F13640   0.976   3.894  15.501  0.9173 -0.0571  0.0509
  10023SM  H17G13641   0.897   3.844  15.357 -1.7659  1.9551  0.5680
  10023SM  C18F13642   0.893   4.054  15.376 -0.5405  0.3632 -0.2135
  10023SM  H18F13643   0.860   4.062  15.270  1.2825  4.0821 -0.6736
  10023SM  H18G13644   0.967   4.135  15.392  0.1422  0.1846 -2.2795
  10023SM  C19F13645   0.776   4.080  15.471  0.2561  0.4579  0.0309
  10023SM  H19F13646   0.824   4.086  15.571 -0.3828 -1.6609  0.5014
  10023SM  H19G13647   0.712   3.990  15.469  0.2963  0.4055  0.9546
  10023SM  C20F13648   0.692   4.204  15.448 -0.2917 -0.3770  0.3941
  10023SM  H20F13649   0.744   4.302  15.450 -1.7716  0.4726 -0.6329
  10023SM  H20G13650   0.608   4.206  15.521  1.0807  1.9376  2.0517
  10023SM  C21F13651   0.609   4.201  15.311  0.1863 -0.5165  0.2757
  10023SM  H21F13652   0.540   4.115  15.300 -2.1158  1.4487 -2.2996
  10023SM  H21G13653   0.677   4.204  15.224  0.9933 -0.1815  0.9064
  10023SM  C22F13654   0.533   4.332  15.303 -0.0553  0.4838 -0.4187
  10023SM  H22F13655   0.598   4.421  15.310  0.5235  0.0250  0.1779
  10023SM  H22G13656   0.462   4.331  15.389  0.4010 -2.1294  0.0168
  10023SM  C23F13657   0.454   4.355  15.171 -0.4635  0.1607  0.5632
  10023SM  H23F13658   0.360   4.297  15.181  0.5216 -1.5480  0.2468
  10023SM  H23G13659   0.506   4.327  15.077  0.3420  1.2707  0.6562
  10023SM  H23H13660   0.426   4.462  15.167  0.2543  0.3558  0.6344
  101CHL1    C313661   4.627   0.110  17.038  0.1335  0.3526  0.2089
  101CHL1    H313662   4.595   0.004  17.030 -0.6974  0.5910  0.2474
  101CHL1    O313663   4.604   0.131  17.178  0.2455 -0.1525  0.6264
  101CHL1   H3'13664   4.689   0.159  17.214  0.1635  3.5382 -1.5615
  101CHL1    C413665   4.774   0.158  16.994 -0.1274  0.0709  0.3323
  101CHL1   H4A13666   4.791   0.260  17.035  3.1569 -0.1096 -0.3116
  101CHL1   H4B13667   4.848   0.096  17.049  1.7130  1.5536 -0.3687
  101CHL1    C513668   4.795   0.149  16.843  0.0478  0.0900  0.4637
  101CHL1    C613669   4.900   0.071  16.796  0.0167  0.6473 -0.7444
  101CHL1    H613670   4.979   0.029  16.859 -1.4098 -2.3389 -0.7554
  101CHL1    C713671   4.920   0.051  16.650 -0.5603  0.2777 -0.1876
  101CHL1   H7A13672   5.026   0.065  16.619 -1.6456  4.7968 -2.7136
  101CHL1   H7B13673   4.889  -0.053  16.626 -0.7836  0.5417 -1.0669
  101CHL1    C813674   4.836   0.140  16.554 -0.2270 -0.4931  0.0357
  101CHL1    H813675   4.885   0.239  16.558  0.2846 -0.7129 -0.6085
  101CHL1   C1413676   4.851   0.078  16.412 -0.1422  0.4804  0.1166
  101CHL1   H1413677   4.803  -0.023  16.415 -0.4801  0.5814 -1.3110
  101CHL1   C1513678   4.997   0.050  16.357  0.1239 -0.4771 -0.9036
  101CHL1  H15A13679   5.061   0.134  16.390 -1.9394  0.1796  1.7937
  101CHL1  H15B13680   5.037  -0.038  16.412 -2.1059 -0.5505  0.7767
  101CHL1   C1613681   4.968   0.034  16.209 -0.9779 -0.5928  0.7362
  101CHL1  H16A13682   5.029   0.100  16.143 -2.9107  0.6808  0.1244
  101CHL1  H16B13683   4.996  -0.069  16.180 -0.7288 -0.1477 -0.6964
  101CHL1   C1713684   4.819   0.053  16.182 -0.9048  0.5710  0.1336
  101CHL1   H1713685   4.773  -0.046  16.202 -1.5409  1.1625  1.7669
  101CHL1   C1313686   4.773   0.143  16.301  0.5918 -0.0658  0.4064
  101CHL1   C1813687   4.823   0.292  16.287  0.0215 -0.6348 -0.4447
  101CHL1  H18A13688   4.829   0.338  16.388 -2.0676 -3.1499  0.9549
  101CHL1  H18B13689   4.912   0.296  16.221  1.2502  2.4447  1.1591
  101CHL1  H18C13690   4.743   0.344  16.229  0.8286 -0.1741 -1.1599
  101CHL1   C1213691   4.624   0.139  16.354  0.2498  0.1813  0.3712
  101CHL1  H12A13692   4.572   0.201  16.278 -0.6042 -0.3351  0.5195
  101CHL1  H12B13693   4.580   0.037  16.355 -1.8833  1.0596  1.7569
  101CHL1   C1113694   4.606   0.218  16.484 -0.4973 -0.3630 -0.2233
  101CHL1  H11A13695   4.616   0.327  16.467  2.1470 -0.6652 -1.0273
  101CHL1  H11B13696   4.499   0.202  16.512 -0.7154  0.9405 -0.2299
  101CHL1    C913697   4.692   0.156  16.599  0.3374  0.6446 -0.1403
  101CHL1    H913698   4.652   0.052  16.602 -0.0717  0.7664 -0.9297
  101CHL1   C1013699   4.678   0.216  16.747  0.8215  0.1022 -0.8478
  101CHL1   C1913700   4.693   0.366  16.739  0.3774  0.0896 -0.3223
  101CHL1  H19A13701   4.613   0.419  16.683 -0.8430 -0.3070  0.9805
  101CHL1  H19B13702   4.689   0.403  16.844  0.4298 -2.2567  0.5726
  101CHL1  H19C13703   4.797   0.392  16.708 -0.1113  2.2429 -0.3139
  101CHL1    C113704   4.535   0.176  16.815  0.6921  0.3190  0.3840
  101CHL1   H1A13705   4.454   0.228  16.759 -0.4759 -1.2681  0.5133
  101CHL1   H1B13706   4.503   0.073  16.788 -0.9016  0.2005  2.5387
  101CHL1    C213707   4.529   0.194  16.963  0.1204 -0.7282 -0.5140
  101CHL1   H2A13708   4.426   0.168  16.994  0.4682 -3.6530 -1.4941
  101CHL1   H2B13709   4.540   0.297  17.001 -2.5662 -1.0154  1.3133
  101CHL1   C2013710   4.784   0.091  16.037  0.4427  0.0452  0.9217
  101CHL1   H2013711   4.839   0.186  16.020  1.6499 -0.6742  0.7322
  101CHL1   C2113712   4.637   0.123  16.028  0.0612 -0.5005  0.2559
  101CHL1  H21A13713   4.610   0.156  15.925 -1.1241  1.2313  1.0730
  101CHL1  H21B13714   4.619   0.213  16.091  1.3023  2.7823 -3.6179
  101CHL1  H21C13715   4.572   0.035  16.045  0.0119 -0.6844 -0.8043
  101CHL1   C2213716   4.831  -0.005  15.926  0.2315  0.6060  0.1431
  101CHL1  H22A13717   4.937  -0.035  15.942  0.5564  0.8294 -1.4120
  101CHL1  H22B13718   4.780  -0.104  15.920  1.1768  0.1582 -0.9525
  101CHL1   C2313719   4.833   0.051  15.781 -0.1828 -0.2295  0.5874
  101CHL1  H23A13720   4.729   0.083  15.759  0.9043  1.0817 -3.7579
  101CHL1  H23B13721   4.888   0.148  15.783  0.7135 -0.6396 -1.3577
  101CHL1   C2413722   4.894  -0.048  15.679 -0.3272  0.8593 -0.2368
  101CHL1  H24A13723   4.976  -0.102  15.732 -1.3658 -0.3590  0.1782
  101CHL1  H24B13724   4.814  -0.119  15.648  0.0704  0.1552  0.3335
  101CHL1   C2513725   4.939   0.019  15.545 -0.1905  0.8327 -0.5449
  101CHL1   H2513726   4.989   0.112  15.579 -0.8393  0.4374  1.7026
  101CHL1   C2613727   5.018  -0.068  15.457 -0.6489 -0.0114  0.5616
  101CHL1  H26A13728   5.074  -0.003  15.386 -1.6221 -0.5605 -0.7361
  101CHL1  H26B13729   5.095  -0.112  15.524  1.5902  1.8709 -0.5951
  101CHL1  H26C13730   4.954  -0.144  15.407  1.0694 -1.1730  0.0355
  101CHL1   C2713731   4.822   0.075  15.463 -0.1173 -0.2509  0.3453
  101CHL1  H27A13732   4.862   0.126  15.372 -0.1818 -0.6784  0.0763
  101CHL1  H27B13733   4.752  -0.004  15.431  2.1710 -2.0313 -0.5418
  101CHL1  H27C13734   4.765   0.159  15.508 -2.4109 -0.7625 -1.3880
  102CHL1    C313735   3.362   0.299  17.105  0.4326 -0.1080  0.4944
  102CHL1    H313736   3.392   0.405  17.116 -2.7839  1.1509 -1.3880
  102CHL1    O313737   3.342   0.235  17.237 -0.0273 -0.5265  0.4988
  102CHL1   H3'13738   3.321   0.143  17.221 -2.6789 -0.0405  0.7807
  102CHL1    C413739   3.228   0.290  17.031 -0.5049  0.1110 -0.2255
  102CHL1   H4A13740   3.196   0.183  17.034  0.9497 -0.3178  1.2611
  102CHL1   H4B13741   3.152   0.347  17.089 -0.0190 -2.1843  2.9025
  102CHL1    C513742   3.249   0.341  16.886 -0.1348 -0.4418  0.0239
  102CHL1    C613743   3.185   0.449  16.836 -0.1001 -0.1055 -0.8666
  102CHL1    H613744   3.100   0.497  16.886 -2.1755 -1.2022 -3.0930
  102CHL1    C713745   3.210   0.511  16.696  0.0731 -0.1029 -0.7783
  102CHL1   H7A13746   3.125   0.556  16.641  0.0296 -0.9155 -1.3948
  102CHL1   H7B13747   3.289   0.588  16.708  0.3231 -0.4475 -0.1370
  102CHL1    C813748   3.276   0.405  16.605  0.3030  0.2852  0.2009
  102CHL1    H813749   3.189   0.337  16.588 -1.6081  2.5387  0.4112
  102CHL1   C1413750   3.322   0.459  16.465  0.3553 -0.3786 -0.1608
  102CHL1   H1413751   3.395   0.537  16.496 -0.1442 -0.1640  0.5068
  102CHL1   C1513752   3.231   0.529  16.372 -0.4286  0.2485  0.2904
  102CHL1  H15A13753   3.136   0.473  16.363 -1.3046  1.5723  1.0745
  102CHL1  H15B13754   3.201   0.632  16.400 -0.9758  0.1919 -0.0813
  102CHL1   C1613755   3.303   0.536  16.238 -0.3332  0.5092  0.7140
  102CHL1  H16A13756   3.231   0.496  16.164 -0.9108 -0.5841  1.8206
  102CHL1  H16B13757   3.340   0.639  16.219 -1.4575  0.9877  0.9981
  102CHL1   C1713758   3.427   0.443  16.244  0.0172  0.0037  0.9347
  102CHL1   H1713759   3.507   0.519  16.261 -1.0344  0.9099  1.9788
  102CHL1   C1313760   3.407   0.362  16.381 -0.0092 -0.2601  0.0586
  102CHL1   C1813761   3.315   0.251  16.357  1.1986 -0.2197  0.2247
  102CHL1  H18A13762   3.358   0.168  16.297 -1.5188 -1.2452 -0.4107
  102CHL1  H18B13763   3.276   0.192  16.442  0.0981 -0.9175 -0.7337
  102CHL1  H18C13764   3.225   0.281  16.300  0.7318 -0.0279  1.0548
  102CHL1   C1213765   3.535   0.334  16.459 -0.1060 -0.0532 -0.1373
  102CHL1  H12A13766   3.611   0.270  16.410 -0.4815 -1.4086  0.9855
  102CHL1  H12B13767   3.568   0.438  16.479 -2.0118  0.8853 -1.5656
  102CHL1   C1113768   3.493   0.263  16.595 -0.2289 -0.1102  0.0207
  102CHL1  H11A13769   3.456   0.162  16.570 -0.7335 -0.3028  1.4516
  102CHL1  H11B13770   3.584   0.254  16.659  0.1371 -1.5716 -0.6652
  102CHL1    C913771   3.394   0.338  16.680 -0.7404  0.0114  0.0625
  102CHL1    H913772   3.445   0.428  16.720 -0.4784 -0.4174  0.7133
  102CHL1   C1013773   3.359   0.268  16.811 -0.2507  0.0026  0.8984
  102CHL1   C1913774   3.301   0.131  16.778 -0.1422  0.7227  0.8367
  102CHL1  H19A13775   3.267   0.074  16.867  0.0911  0.8805  1.0283
  102CHL1  H19B13776   3.212   0.143  16.712 -1.4429 -0.1541  2.3796
  102CHL1  H19C13777   3.379   0.070  16.727 -1.9154  0.0424 -1.2203
  102CHL1    C113778   3.492   0.251  16.890  0.3889 -0.6958 -0.6582
  102CHL1   H1A13779   3.554   0.167  16.853  0.3434 -0.7542 -0.6020
  102CHL1   H1B13780   3.549   0.346  16.879 -0.1302 -0.4770 -1.5371
  102CHL1    C213781   3.465   0.213  17.034 -0.6577 -1.4408  0.1626
  102CHL1   H2A13782   3.555   0.203  17.098 -0.9447 -2.6788  0.3952
  102CHL1   H2B13783   3.434   0.107  17.031  2.5632 -2.4541 -0.4991
  102CHL1   C2013784   3.452   0.374  16.112  0.4680 -0.5225 -0.9680
  102CHL1   H2013785   3.367   0.306  16.090  0.8964 -2.4411  2.5832
  102CHL1   C2113786   3.591   0.304  16.114 -0.5004  0.3058  0.6077
  102CHL1  H21A13787   3.655   0.378  16.166  0.7596  0.3342 -0.9082
  102CHL1  H21B13788   3.626   0.285  16.010  0.7155  0.4725  0.9717
  102CHL1  H21C13789   3.589   0.211  16.175 -1.6206  0.1074  0.3028
  102CHL1   C2213790   3.449   0.475  15.997  0.3637 -0.0908  0.9003
  102CHL1  H22A13791   3.364   0.547  15.998  0.5848  0.1677  1.3782
  102CHL1  H22B13792   3.540   0.535  16.018  0.9039 -0.9714  1.1407
  102CHL1   C2313793   3.456   0.415  15.856  0.0938  0.8873  0.3168
  102CHL1  H23A13794   3.526   0.329  15.851  1.6113  2.0992 -4.5513
  102CHL1  H23B13795   3.358   0.370  15.831  0.1955  1.3917 -1.0698
  102CHL1   C2413796   3.492   0.517  15.742  0.4019 -0.0581 -0.2879
  102CHL1  H24A13797   3.405   0.586  15.740  0.7089  0.3204 -0.7535
  102CHL1  H24B13798   3.582   0.579  15.760 -0.4219  1.0325  0.1384
  102CHL1   C2513799   3.507   0.459  15.599  0.3901 -0.1564  1.0746
  102CHL1   H2513800   3.583   0.379  15.587  0.4188 -0.2237  1.6990
  102CHL1   C2613801   3.371   0.396  15.560 -0.0606  0.4996 -0.0341
  102CHL1  H26A13802   3.364   0.394  15.449 -2.7312 -0.7467  0.0588
  102CHL1  H26B13803   3.365   0.294  15.603  0.5092  0.2859 -0.4541
  102CHL1  H26C13804   3.285   0.456  15.597 -0.2513  1.0430 -1.2944
  102CHL1   C2713805   3.541   0.569  15.498 -0.6245  0.8039 -0.1200
  102CHL1  H27A13806   3.571   0.521  15.403 -0.9461 -1.2337  0.7724
  102CHL1  H27B13807   3.458   0.635  15.465  0.3037  0.7608 -2.7682
  102CHL1  H27C13808   3.621   0.632  15.543 -0.4207 -0.0920  0.8077
  103CHL1    C313809   4.265   6.214  17.093 -0.3390  0.5774  0.2573
  103CHL1    H313810   4.370   6.180  17.098 -0.3872  0.3657 -0.1222
  103CHL1    O313811   4.211   6.243  17.228 -0.0386  0.2279  0.3281
  103CHL1   H3'13812   4.248   6.178  17.288 -0.3878 -0.0830  0.2062
  103CHL1    C413813   4.262   6.349  17.018 -0.2007 -0.2495  0.0850
  103CHL1   H4A13814   4.155   6.374  17.034  0.1573  0.2282  1.8754
  103CHL1   H4B13815   4.329   6.421  17.069  1.8033 -0.9540 -1.4082
  103CHL1    C513816   4.284   6.344  16.870 -0.2170  0.1762  0.7656
  103CHL1    C613817   4.383   6.421  16.821 -0.3650  0.1197 -0.3985
  103CHL1    H613818   4.440   6.495  16.879  1.1312  1.1031 -2.9517
  103CHL1    C713819   4.417   6.405  16.676  0.3004  0.4584  0.5851
  103CHL1   H7A13820   4.447   6.505  16.636 -0.4988  1.4081  2.2165
  103CHL1   H7B13821   4.506   6.339  16.677  0.7691  1.0381 -0.8022
  103CHL1    C813822   4.302   6.337  16.592  0.1789  0.2916 -0.0710
  103CHL1    H813823   4.220   6.411  16.581  1.6477  2.2859  1.6522
  103CHL1   C1413824   4.352   6.303  16.452 -0.0309 -0.4630  0.7978
  103CHL1   H1413825   4.435   6.230  16.464  1.1064  0.3744 -1.4437
  103CHL1   C1513826   4.411   6.416  16.366 -0.6501 -0.0669 -0.4735
  103CHL1  H15A13827   4.348   6.507  16.376 -1.6064 -0.7895  0.2277
  103CHL1  H15B13828   4.519   6.425  16.394 -1.1022 -0.6663  1.7208
  103CHL1   C1613829   4.396   6.371  16.219 -0.3900  0.4648 -0.9538
  103CHL1  H16A13830   4.329   6.447  16.173 -1.4093  1.2591  1.6715
  103CHL1  H16B13831   4.490   6.373  16.159  0.6727  0.2192  0.6378
  103CHL1   C1713832   4.329   6.234  16.229  0.1552  0.0412  0.1298
  103CHL1   H1713833   4.399   6.152  16.255 -1.3157 -1.2958  0.0328
  103CHL1   C1313834   4.247   6.239  16.355  0.1471 -0.0943  0.4620
  103CHL1   C1813835   4.135   6.348  16.332 -0.4558  0.3022  0.2687
  103CHL1  H18A13836   4.173   6.450  16.308 -1.7619  0.2141 -2.5049
  103CHL1  H18B13837   4.061   6.317  16.256 -1.0514 -0.0337  0.9797
  103CHL1  H18C13838   4.083   6.359  16.430 -0.6623 -2.4908  0.5506
  103CHL1   C1213839   4.198   6.109  16.415 -0.4862  0.3257 -0.6048
  103CHL1  H12A13840   4.117   6.072  16.347 -1.1476  0.1649  0.2599
  103CHL1  H12B13841   4.279   6.033  16.408 -0.6023 -0.0331  1.5261
  103CHL1   C1113842   4.145   6.130  16.551 -0.1509 -0.4215 -0.0412
  103CHL1  H11A13843   4.047   6.183  16.545  0.3471  0.4876 -0.4287
  103CHL1  H11B13844   4.113   6.034  16.596 -3.9457 -0.8362 -3.0951
  103CHL1    C913845   4.247   6.207  16.649  0.0075  0.7631  0.6988
  103CHL1    H913846   4.331   6.135  16.659 -0.4932  0.2646  1.4571
  103CHL1   C1013847   4.197   6.235  16.790 -0.7419 -0.3563  0.2630
  103CHL1   C1913848   4.055   6.286  16.784 -0.5422 -0.0668 -0.1305
  103CHL1  H19A13849   3.987   6.215  16.732 -3.4591  1.6784  1.0575
  103CHL1  H19B13850   4.019   6.308  16.887  2.5762  1.5393  0.7363
  103CHL1  H19C13851   4.049   6.383  16.731 -1.3334  0.4336  0.8352
  103CHL1    C113852   4.191   6.105  16.870  0.3014  0.0348  0.3823
  103CHL1   H1A13853   4.108   6.048  16.823  0.6495  0.0968 -0.3197
  103CHL1   H1B13854   4.285   6.050  16.847 -0.1635  0.2037 -2.1965
  103CHL1    C213855   4.170   6.110  17.023  0.3524 -0.2193  1.0114
  103CHL1   H2A13856   4.175   6.010  17.072 -1.5305 -0.1023  1.5114
  103CHL1   H2B13857   4.064   6.141  17.037  0.8776  0.9028  2.8563
  103CHL1   C2013858   4.265   6.185  16.103  0.0611  0.6674 -0.2705
  103CHL1   H2013859   4.157   6.211  16.104 -0.2719 -0.6596 -0.2634
  103CHL1   C2113860   4.268   6.033  16.092 -0.2579 -0.3103 -0.0596
  103CHL1  H21A13861   4.225   5.984  16.182  0.8207 -0.8206  0.1933
  103CHL1  H21B13862   4.372   5.993  16.094 -0.4240 -0.7320  2.2952
  103CHL1  H21C13863   4.216   6.000  15.999  0.0186 -1.4334  0.1699
  103CHL1   C2213864   4.334   6.249  15.972  0.1086 -0.2773 -0.2224
  103CHL1  H22A13865   4.303   6.355  15.964 -0.1666 -0.3622 -0.2806
  103CHL1  H22B13866   4.444   6.253  15.990 -0.1149 -2.0618  2.1375
  103CHL1   C2313867   4.308   6.186  15.832 -0.3595  0.9892 -0.7149
  103CHL1  H23A13868   4.328   6.077  15.821 -2.6941  0.2404  1.4849
  103CHL1  H23B13869   4.197   6.190  15.826 -0.6891 -1.9224  1.2205
  103CHL1   C2413870   4.371   6.255  15.711 -0.2858  0.3967  0.5501
  103CHL1  H24A13871   4.313   6.350  15.714  0.2526  0.7259  0.7496
  103CHL1  H24B13872   4.478   6.281  15.730 -1.0512  3.6398  1.0770
  103CHL1   C2513873   4.356   6.181  15.571  0.1886 -0.3873  0.1746
  103CHL1   H2513874   4.405   6.082  15.587  0.9174  0.3400  2.9174
  103CHL1   C2613875   4.212   6.163  15.523 -0.1397  0.1214 -0.0301
  103CHL1  H26A13876   4.217   6.071  15.461 -0.2512 -1.2614  1.9027
  103CHL1  H26B13877   4.140   6.156  15.607 -1.0478  2.1135 -0.5878
  103CHL1  H26C13878   4.176   6.236  15.448 -0.4066 -2.6525 -2.7597
  103CHL1   C2713879   4.436   6.246  15.459 -0.2123  0.2072  0.4049
  103CHL1  H27A13880   4.419   6.195  15.362 -2.7021  2.7421 -0.6423
  103CHL1  H27B13881   4.406   6.350  15.435  0.7889  0.1718 -1.1379
  103CHL1  H27C13882   4.542   6.262  15.487 -0.4130  1.5865  0.4667
  104CHL1    C313883   0.517   0.293  17.403  0.4379  0.2525  0.1119
  104CHL1    H313884   0.597   0.215  17.402  0.5653  0.3882 -1.1216
  104CHL1    O313885   0.495   0.347  17.536 -0.3565 -0.0668  0.5445
  104CHL1   H3'13886   0.407   0.384  17.532  0.1556  1.2383  0.6746
  104CHL1    C413887   0.553   0.405  17.300 -0.2101  0.7541  0.1667
  104CHL1   H4A13888   0.486   0.494  17.308  2.3682  2.6548  2.5977
  104CHL1   H4B13889   0.654   0.440  17.329 -0.6028  2.3017 -0.1984
  104CHL1    C513890   0.569   0.360  17.155 -0.3596 -0.4228 -0.1647
  104CHL1    C613891   0.681   0.376  17.080 -0.0870  0.0588  0.0923
  104CHL1    H613892   0.768   0.429  17.122  0.8805 -2.1243  0.9905
  104CHL1    C713893   0.687   0.325  16.942  0.0921 -0.8791 -0.0239
  104CHL1   H7A13894   0.710   0.404  16.867 -2.2655 -0.6351 -0.5794
  104CHL1   H7B13895   0.763   0.244  16.936 -0.4813 -1.5150  0.9676
  104CHL1    C813896   0.548   0.290  16.878 -0.9130 -0.8666 -0.6117
  104CHL1    H813897   0.499   0.387  16.853 -1.3886 -1.1502 -0.8017
  104CHL1   C1413898   0.578   0.209  16.749  0.8869 -0.5868  0.0105
  104CHL1   H1413899   0.634   0.116  16.774  1.0112 -0.4154  0.3655
  104CHL1   C1513900   0.670   0.259  16.636  0.1983  0.1325 -0.8867
  104CHL1  H15A13901   0.639   0.366  16.629 -1.6223 -0.3469 -0.5243
  104CHL1  H15B13902   0.778   0.245  16.660 -0.2500  1.8020  2.9000
  104CHL1   C1613903   0.616   0.185  16.517 -0.2352 -0.6487 -0.4462
  104CHL1  H16A13904   0.579   0.269  16.454 -0.4168  0.0804  0.6177
  104CHL1  H16B13905   0.692   0.126  16.461 -1.5857 -0.0784 -3.0296
  104CHL1   C1713906   0.499   0.097  16.559  0.3502 -0.3581 -0.1437
  104CHL1   H1713907   0.537  -0.002  16.591 -1.9890 -0.7725  1.6114
  104CHL1   C1313908   0.445   0.164  16.684 -0.0584  0.6421  0.3382
  104CHL1   C1813909   0.359   0.285  16.644 -0.2293 -0.2858 -0.2496
  104CHL1  H18A13910   0.260   0.269  16.597 -0.4683  0.0939  0.1269
  104CHL1  H18B13911   0.344   0.348  16.734 -0.0901 -1.4354  0.5867
  104CHL1  H18C13912   0.411   0.351  16.571 -0.6778 -0.0861 -0.3915
  104CHL1   C1213913   0.369   0.079  16.782  0.6404 -0.0934 -0.0169
  104CHL1  H12A13914   0.275   0.041  16.739  0.5283 -2.3056  1.9886
  104CHL1  H12B13915   0.420  -0.018  16.801  1.0316  0.4578  2.0443
  104CHL1   C1113916   0.341   0.152  16.910 -0.5466 -0.1149 -0.4517
  104CHL1  H11A13917   0.274   0.236  16.885 -0.7990 -0.3428 -0.5471
  104CHL1  H11B13918   0.287   0.092  16.987 -0.4528 -0.2700 -0.5061
  104CHL1    C913919   0.469   0.208  16.978  0.4727 -0.1922 -0.6432
  104CHL1    H913920   0.534   0.120  16.994 -0.7138 -1.5319 -2.7075
  104CHL1   C1013921   0.443   0.283  17.114 -0.2422  0.0383  0.7512
  104CHL1   C1913922   0.324   0.386  17.096  0.1628  0.0122 -0.3275
  104CHL1  H19A13923   0.345   0.448  17.006 -0.1939 -2.0751 -1.9261
  104CHL1  H19B13924   0.223   0.346  17.075  0.8612 -1.0066 -1.9291
  104CHL1  H19C13925   0.311   0.452  17.185  2.2652  0.1227 -0.0568
  104CHL1    C113926   0.406   0.168  17.222  0.2778 -0.3305  0.5753
  104CHL1   H1A13927   0.308   0.132  17.187 -0.2390  1.9290 -0.4593
  104CHL1   H1B13928   0.494   0.100  17.218  1.3153  0.9678  0.5156
  104CHL1    C213929   0.390   0.225  17.361  0.3844 -1.0836  0.1174
  104CHL1   H2A13930   0.346   0.154  17.433  0.2402  0.3089  1.4589
  104CHL1   H2B13931   0.312   0.305  17.357  0.4842 -0.9933 -0.0533
  104CHL1   C2013932   0.407   0.069  16.435 -0.6622  0.3413  0.6632
  104CHL1   H2013933   0.376   0.167  16.392 -1.3178  0.5910  1.6789
  104CHL1   C2113934   0.286  -0.004  16.484  0.0277 -0.0408 -0.6431
  104CHL1  H21A13935   0.222  -0.041  16.401  0.3459  1.6098 -1.6745
  104CHL1  H21B13936   0.227   0.069  16.542 -0.4777  0.6434 -1.9693
  104CHL1  H21C13937   0.315  -0.097  16.538  0.7745  1.5921  1.9119
  104CHL1   C2213938   0.483  -0.016  16.319  0.2609 -0.1085 -0.7418
  104CHL1  H22A13939   0.561   0.049  16.274  0.6219  0.2342  0.3582
  104CHL1  H22B13940   0.537  -0.098  16.372  0.5956 -0.2764 -1.3230
  104CHL1   C2313941   0.398  -0.078  16.211 -0.2622 -0.5852  0.3260
  104CHL1  H23A13942   0.321  -0.146  16.254  0.8342 -1.8134  0.4049
  104CHL1  H23B13943   0.337   0.004  16.170  2.0779  1.3075  0.4025
  104CHL1   C2413944   0.476  -0.163  16.108 -0.4818  0.5215 -0.2603
  104CHL1  H24A13945   0.562  -0.108  16.064  0.3584 -2.7984 -3.2098
  104CHL1  H24B13946   0.544  -0.236  16.157  1.5211  2.5217  0.1036
  104CHL1   C2513947   0.397  -0.232  15.996  0.0984 -0.3657  0.3106
  104CHL1   H2513948   0.309  -0.284  16.040 -0.3196  0.3404  0.3367
  104CHL1   C2613949   0.333  -0.143  15.894 -0.2967 -0.7376  1.0338
  104CHL1  H26A13950   0.249  -0.088  15.942  0.1505 -0.0100  1.0018
  104CHL1  H26B13951   0.410  -0.071  15.859 -1.3123 -0.3727 -0.5311
  104CHL1  H26C13952   0.295  -0.200  15.807  2.8320  0.7946 -1.5608
  104CHL1   C2713953   0.473  -0.346  15.935  0.7618 -0.0198 -0.4210
  104CHL1  H27A13954   0.573  -0.318  15.895  1.1490  0.5426  0.8921
  104CHL1  H27B13955   0.498  -0.418  16.015 -0.1077  0.7674  0.5856
  104CHL1  H27C13956   0.413  -0.391  15.852  1.1184  1.0171 -1.2578
  105CHL1    C313957   6.620   6.608  17.785  0.2098  0.0348  0.4675
  105CHL1    H313958   6.549   6.680  17.740  2.4335  0.9681 -1.7987
  105CHL1    O313959   6.621   6.628  17.926  0.1413  0.5177 -0.0860
  105CHL1   H3'13960   6.706   6.594  17.954  1.5203  0.5732 -3.6374
  105CHL1    C413961   6.577   6.466  17.747  0.5411 -0.0397 -1.1963
  105CHL1   H4A13962   6.647   6.396  17.798  0.2304  0.3490 -0.2099
  105CHL1   H4B13963   6.474   6.455  17.788  1.3837 -0.2697  0.9893
  105CHL1    C513964   6.588   6.439  17.604 -0.8804  0.3740 -0.1801
  105CHL1    C613965   6.483   6.389  17.542  0.2505  0.6621  0.0038
  105CHL1    H613966   6.394   6.375  17.604  0.4571  0.0128  0.1643
  105CHL1    C713967   6.482   6.350  17.399  0.4201 -0.6475 -0.2485
  105CHL1   H7A13968   6.425   6.255  17.398 -1.7314  0.4825  2.4251
  105CHL1   H7B13969   6.434   6.432  17.342  0.5521  1.0569  1.9622
  105CHL1    C813970   6.625   6.341  17.340 -0.0913 -0.5100  0.8890
  105CHL1    H813971   6.674   6.247  17.373  0.8793 -0.8836 -1.4635
  105CHL1   C1413972   6.610   6.344  17.191 -0.2668 -0.2050 -0.5925
  105CHL1   H1413973   6.569   6.445  17.174  3.3716  1.6789  0.7258
  105CHL1   C1513974   6.514   6.240  17.134 -0.0187 -1.0655 -0.4566
  105CHL1  H15A13975   6.547   6.138  17.164  0.1441 -1.2082 -1.1076
  105CHL1  H15B13976   6.408   6.268  17.150  0.0108 -0.9654 -0.4307
  105CHL1   C1613977   6.550   6.246  16.988  0.7380  0.2340  0.1040
  105CHL1  H16A13978   6.567   6.144  16.945 -0.3184  0.4438 -0.8406
  105CHL1  H16B13979   6.475   6.300  16.927  1.4999  2.2923  0.9262
  105CHL1   C1713980   6.682   6.321  16.970  0.5544 -0.0370  0.1897
  105CHL1   H1713981   6.658   6.426  16.942 -0.0559 -0.1960  0.1058
  105CHL1   C1313982   6.736   6.342  17.113  0.6251 -0.3660  0.4374
  105CHL1   C1813983   6.816   6.209  17.136  0.1241  0.3283  0.1022
  105CHL1  H18A13984   6.916   6.215  17.087 -0.4115  0.4324 -1.0109
  105CHL1  H18B13985   6.824   6.188  17.245 -0.0296  0.9324  0.2367
  105CHL1  H18C13986   6.764   6.122  17.092 -0.9346  0.8109  0.3649
  105CHL1   C1213987   6.812   6.473  17.150 -0.1320  0.2527 -0.0361
  105CHL1  H12A13988   6.910   6.476  17.098  0.8648  0.6515  1.7935
  105CHL1  H12B13989   6.758   6.563  17.115 -0.8901 -0.0643  0.2836
  105CHL1   C1113990   6.835   6.473  17.294 -0.0673  0.9152  0.3902
  105CHL1  H11A13991   6.914   6.400  17.324  0.2220  1.4375  0.9189
  105CHL1  H11B13992   6.879   6.572  17.318  1.5508  0.3226  0.0252
  105CHL1    C913993   6.706   6.461  17.380 -0.1796  0.2133  0.6024
  105CHL1    H913994   6.648   6.552  17.354  2.1272  0.6548 -4.0432
  105CHL1   C1013995   6.721   6.468  17.535  0.2904 -0.1019  0.0862
  105CHL1   C1913996   6.826   6.366  17.579  0.5113 -0.4869 -0.3644
  105CHL1  H19A13997   6.806   6.261  17.549  1.8566 -0.5856 -0.9816
  105CHL1  H19B13998   6.919   6.390  17.524 -0.7608  2.8919 -1.2603
  105CHL1  H19C13999   6.841   6.370  17.689 -0.0521 -0.0730 -0.3013
  105CHL1    C114000   6.768   6.606  17.576  0.7445  0.4018  0.0121
  105CHL1   H1A14001   6.876   6.608  17.548  0.7648  0.2321  0.0733
  105CHL1   H1B14002   6.710   6.680  17.517  1.5493  0.6170 -0.5220
  105CHL1    C214003   6.762   6.630  17.726 -0.0436 -0.1929 -0.5279
  105CHL1   H2A14004   6.792   6.733  17.756 -1.8815 -0.3689  2.3465
  105CHL1   H2B14005   6.830   6.562  17.781  1.0021 -1.3988 -3.1583
  105CHL1   C2014006   6.778   6.273  16.859 -0.5910  0.7536 -0.0442
  105CHL1   H2014007   6.802   6.165  16.874  0.4996  0.9443 -0.4063
  105CHL1   C2114008   6.904   6.355  16.852 -1.3907  0.5955  1.0547
  105CHL1  H21A14009   6.871   6.461  16.845 -0.7785  0.6746 -2.3764
  105CHL1  H21B14010   6.982   6.331  16.777  0.0751  2.8582  1.7400
  105CHL1  H21C14011   6.962   6.361  16.946 -1.0199 -1.9670  1.0509
  105CHL1   C2214012   6.703   6.270  16.720  0.2828  0.4333 -0.4823
  105CHL1  H22A14013   6.613   6.206  16.735  0.8189 -0.2562 -0.1177
  105CHL1  H22B14014   6.662   6.371  16.699  0.0791  0.4389 -0.0620
  105CHL1   C2314015   6.785   6.235  16.600  0.3172 -0.7588 -0.3013
  105CHL1  H23A14016   6.868   6.309  16.594 -1.4457  1.2138 -1.8872
  105CHL1  H23B14017   6.816   6.131  16.622 -2.5705 -1.4601  0.9514
  105CHL1   C2414018   6.700   6.235  16.467 -0.6095  0.2806  0.2326
  105CHL1  H24A14019   6.608   6.178  16.488 -0.8741 -0.0482 -1.6489
  105CHL1  H24B14020   6.673   6.343  16.465 -2.3157 -0.0270  2.6891
  105CHL1   C2514021   6.780   6.178  16.342 -0.5372 -0.4261  0.5205
  105CHL1   H2514022   6.874   6.237  16.341 -2.0671  2.4450 -3.9484
  105CHL1   C2614023   6.806   6.026  16.353 -0.5269  0.3078  0.4091
  105CHL1  H26A14024   6.708   5.974  16.349 -0.0986 -0.5263  0.5592
  105CHL1  H26B14025   6.848   5.981  16.260 -1.6465 -0.8620  0.4432
  105CHL1  H26C14026   6.861   5.998  16.445  2.5017  2.0016 -0.7325
  105CHL1   C2714027   6.721   6.211  16.202 -0.8386  0.3805 -0.0622
  105CHL1  H27A14028   6.697   6.319  16.195 -1.4046  0.2250 -0.6110
  105CHL1  H27B14029   6.792   6.162  16.133  0.1726 -0.5560  1.5695
  105CHL1  H27C14030   6.630   6.151  16.181 -1.6645  1.8882 -0.9287
  106CHL1    C314031   4.745   5.854  17.348 -0.1869 -1.0400  0.3205
  106CHL1    H314032   4.764   5.963  17.339  1.7320 -1.2306  1.4388
  106CHL1    O314033   4.735   5.821  17.483 -0.3047  0.3144  0.0113
  106CHL1   H3'14034   4.643   5.799  17.501  0.4248 -2.0380  1.1455
  106CHL1    C414035   4.616   5.819  17.280  0.3479 -0.0077 -0.4746
  106CHL1   H4A14036   4.598   5.711  17.297  0.6504 -0.2103 -1.3819
  106CHL1   H4B14037   4.528   5.877  17.315 -1.9669 -2.6797 -1.4700
  106CHL1    C514038   4.625   5.834  17.128 -0.2962  0.1196 -0.0981
  106CHL1    C614039   4.529   5.903  17.068 -0.6034  0.6390  0.1831
  106CHL1    H614040   4.450   5.956  17.125 -0.4696  0.9518  0.0801
  106CHL1    C714041   4.514   5.915  16.921  0.3358  1.0378  0.1543
  106CHL1   H7A14042   4.409   5.887  16.899  0.4360  0.7133  0.0780
  106CHL1   H7B14043   4.533   6.021  16.897 -2.3510  1.7497  0.8882
  106CHL1    C814044   4.604   5.810  16.848  0.0093  0.5305  0.2844
  106CHL1    H814045   4.558   5.709  16.847  1.4402 -0.1485  0.3242
  106CHL1   C1414046   4.607   5.840  16.699  0.1578 -0.3048  0.2162
  106CHL1   H1414047   4.661   5.937  16.697  0.8815 -0.6842  0.6489
  106CHL1   C1514048   4.471   5.850  16.623  0.0490  0.5357 -0.3542
  106CHL1  H15A14049   4.401   5.765  16.633 -0.6284  0.9108 -1.6477
  106CHL1  H15B14050   4.421   5.945  16.653 -0.6978 -0.5078  1.9952
  106CHL1   C1614051   4.518   5.848  16.478  0.9959  0.2165 -1.2302
  106CHL1  H16A14052   4.474   5.756  16.434 -1.3159  0.8217 -0.3316
  106CHL1  H16B14053   4.496   5.947  16.433 -1.6184 -0.7051 -2.1554
  106CHL1   C1714054   4.667   5.806  16.471 -0.7335  0.2756  0.2752
  106CHL1   H1714055   4.724   5.901  16.467 -1.5152  0.7046 -1.8234
  106CHL1   C1314056   4.695   5.750  16.612  0.3022 -0.3579  0.3755
  106CHL1   C1814057   4.647   5.609  16.609  0.5919 -0.0568  0.3437
  106CHL1  H18A14058   4.715   5.545  16.549  1.9511 -0.6972  2.4349
  106CHL1  H18B14059   4.624   5.567  16.709  0.4723 -0.3525  0.1920
  106CHL1  H18C14060   4.553   5.596  16.552  1.2242 -1.8992 -0.3483
  106CHL1   C1214061   4.837   5.758  16.668  0.3554 -0.0956 -0.0173
  106CHL1  H12A14062   4.906   5.693  16.610  0.1918 -0.9933  0.7872
  106CHL1  H12B14063   4.879   5.859  16.646 -0.1789  0.7929  2.6678
  106CHL1   C1114064   4.837   5.712  16.818  0.3580 -0.4634  0.1049
  106CHL1  H11A14065   4.814   5.603  16.813  0.6013 -0.5182  0.1837
  106CHL1  H11B14066   4.942   5.721  16.852  0.2235  0.2383  0.3511
  106CHL1    C914067   4.741   5.797  16.907  0.6392 -0.7676  0.4524
  106CHL1    H914068   4.782   5.900  16.901 -1.2203 -0.0380 -0.3666
  106CHL1   C1014069   4.734   5.760  17.050  0.0671 -0.0172  0.0597
  106CHL1   C1914070   4.711   5.610  17.059  0.0634  0.1120 -0.5588
  106CHL1  H19A14071   4.785   5.544  17.009  1.0069  0.7424 -0.0275
  106CHL1  H19B14072   4.712   5.577  17.165  0.3643  2.7092  0.3253
  106CHL1  H19C14073   4.611   5.569  17.033 -0.6376  0.0805  1.8860
  106CHL1    C114074   4.864   5.797  17.127 -0.4755 -0.3948 -0.5649
  106CHL1   H1A14075   4.948   5.741  17.078  1.3517  1.8026 -0.1049
  106CHL1   H1B14076   4.874   5.903  17.098 -1.3653 -0.9216 -3.0791
  106CHL1    C214077   4.863   5.783  17.278  0.0487 -0.4414 -0.3049
  106CHL1   H2A14078   4.955   5.812  17.333 -0.3548 -1.4968  0.9918
  106CHL1   H2B14079   4.860   5.673  17.294 -0.7074 -0.3647  0.1423
  106CHL1   C2014080   4.697   5.734  16.338 -0.1278 -0.0822  0.5138
  106CHL1   H2014081   4.638   5.639  16.342  2.0644 -1.4736  2.4696
  106CHL1   C2114082   4.846   5.701  16.329  0.4693 -0.1327  0.5470
  106CHL1  H21A14083   4.872   5.622  16.404  0.2405  0.3425  1.1333
  106CHL1  H21B14084   4.908   5.792  16.337  1.9244 -1.1007  0.5676
  106CHL1  H21C14085   4.867   5.653  16.231 -0.8978 -1.2174  0.7323
  106CHL1   C2214086   4.638   5.808  16.214 -0.2424 -0.0620  0.2743
  106CHL1  H22A14087   4.529   5.799  16.232  0.2520 -1.1244  3.4488
  106CHL1  H22B14088   4.663   5.916  16.208  0.7008 -0.3501 -3.7375
  106CHL1   C2314089   4.671   5.748  16.078 -0.0571  0.6382  0.7328
  106CHL1  H23A14090   4.780   5.754  16.058 -0.2108 -0.7253 -0.6846
  106CHL1  H23B14091   4.645   5.640  16.087 -1.5886  1.1319  3.1556
  106CHL1   C2414092   4.583   5.817  15.977  0.7781  1.2874  0.3815
  106CHL1  H24A14093   4.476   5.801  16.004  1.2774 -2.1500  0.7281
  106CHL1  H24B14094   4.578   5.928  15.980 -2.5445  1.2643 -0.0060
  106CHL1   C2514095   4.619   5.771  15.834  0.1274  0.0247 -0.1756
  106CHL1   H2514096   4.729   5.785  15.827  0.0805  0.4211 -0.1694
  106CHL1   C2614097   4.565   5.632  15.798  0.5908  0.7844 -0.0491
  106CHL1  H26A14098   4.576   5.606  15.691  1.9740  0.1051  0.2233
  106CHL1  H26B14099   4.625   5.556  15.853  1.3185  2.1309  1.0957
  106CHL1  H26C14100   4.459   5.624  15.830  1.1513 -1.8380  1.5793
  106CHL1   C2714101   4.562   5.874  15.733  0.9871  0.6154 -0.0886
  106CHL1  H27A14102   4.454   5.893  15.748  0.4295 -0.8514 -1.8219
  106CHL1  H27B14103   4.600   5.976  15.756  3.9226 -0.5634  0.7133
  106CHL1  H27C14104   4.585   5.857  15.625  1.2884  0.9683 -0.0853
  107CHL1    C314105   6.475   3.087  17.470 -0.0487 -0.5486 -0.1022
  107CHL1    H314106   6.407   2.999  17.477  0.7273 -1.0362  2.4439
  107CHL1    O314107   6.514   3.121  17.605 -0.2719  0.5995  0.5210
  107CHL1   H3'14108   6.563   3.043  17.631  1.0764 -0.1191 -3.4785
  107CHL1    C414109   6.600   3.061  17.395  0.2558  0.1158  0.2370
  107CHL1   H4A14110   6.653   3.159  17.398 -0.5405  0.5401  1.7411
  107CHL1   H4B14111   6.669   2.986  17.439  0.2040 -1.2305 -1.8590
  107CHL1    C514112   6.582   3.028  17.248  0.0905  0.1896  0.2181
  107CHL1    C614113   6.622   2.909  17.189  0.2534 -0.0566 -0.1389
  107CHL1    H614114   6.686   2.830  17.231 -0.0964 -0.7960 -0.9526
  107CHL1    C714115   6.600   2.883  17.040 -0.0629  0.2845 -0.3636
  107CHL1   H7A14116   6.688   2.837  16.990  0.0402  1.3293 -1.2042
  107CHL1   H7B14117   6.510   2.819  17.042 -0.9607  1.4925  1.9260
  107CHL1    C814118   6.557   3.002  16.951  0.0303 -0.0795 -0.3704
  107CHL1    H814119   6.645   3.068  16.934 -0.8228  0.8811 -1.1736
  107CHL1   C1414120   6.494   2.950  16.825 -0.1178 -0.5000  0.2364
  107CHL1   H1414121   6.401   2.894  16.845 -0.1995 -0.7294 -0.7305
  107CHL1   C1514122   6.583   2.863  16.728 -0.0189  0.1743  0.3301
  107CHL1  H15A14123   6.686   2.905  16.727 -0.8067  2.2679  0.7777
  107CHL1  H15B14124   6.590   2.759  16.764 -2.0902  0.1510  0.7470
  107CHL1   C1614125   6.519   2.880  16.589  0.3657  0.3855  0.1400
  107CHL1  H16A14126   6.594   2.889  16.508 -0.7818 -0.0569 -1.0068
  107CHL1  H16B14127   6.459   2.789  16.570  0.5737 -0.7251  3.9954
  107CHL1   C1714128   6.415   3.004  16.599  0.0441 -0.3103  0.3077
  107CHL1   H1714129   6.317   2.958  16.624 -0.0310  1.3548  3.5349
  107CHL1   C1314130   6.452   3.072  16.732  0.2185  0.8560  0.0398
  107CHL1   C1814131   6.575   3.162  16.694  0.2790  0.0716 -0.3164
  107CHL1  H18A14132   6.656   3.098  16.652  0.1357  0.7159 -1.6030
  107CHL1  H18B14133   6.543   3.248  16.631 -0.2011  0.6441  0.6848
  107CHL1  H18C14134   6.619   3.213  16.782 -0.0905 -0.3664  0.1307
  107CHL1   C1214135   6.336   3.150  16.803  0.2752 -0.4456  0.6856
  107CHL1  H12A14136   6.318   3.231  16.729 -1.0584 -2.1509 -0.9743
  107CHL1  H12B14137   6.246   3.086  16.813 -0.6108  0.5844 -0.4606
  107CHL1   C1114138   6.388   3.195  16.941  1.0314  0.2016  0.2357
  107CHL1  H11A14139   6.459   3.278  16.920  1.2936 -0.1089 -0.1283
  107CHL1  H11B14140   6.297   3.229  16.995 -1.5078 -4.1513 -0.8608
  107CHL1    C914141   6.454   3.088  17.029  0.6858  0.1912  0.1780
  107CHL1    H914142   6.364   3.025  17.045 -2.5655  3.9326 -1.7078
  107CHL1   C1014143   6.500   3.134  17.171 -0.4171  0.7161 -0.4675
  107CHL1   C1914144   6.598   3.245  17.136  0.5770  1.2095 -0.2299
  107CHL1  H19A14145   6.657   3.270  17.227 -0.2903  0.0178  0.6907
  107CHL1  H19B14146   6.668   3.217  17.055 -0.5601 -2.1010 -0.2093
  107CHL1  H19C14147   6.535   3.336  17.119 -0.9636  0.0051 -1.2853
  107CHL1    C114148   6.374   3.177  17.258  0.1294  0.0308  0.2259
  107CHL1   H1A14149   6.325   3.269  17.219 -0.9239 -1.6046 -2.5900
  107CHL1   H1B14150   6.299   3.095  17.250  0.0886  0.0034  0.8802
  107CHL1    C214151   6.397   3.202  17.412  0.5638 -0.3606  0.9972
  107CHL1   H2A14152   6.297   3.225  17.456 -0.3362  0.6921 -1.4040
  107CHL1   H2B14153   6.452   3.297  17.429 -0.7250  0.0020  3.6865
  107CHL1   C2014154   6.414   3.077  16.469 -0.1486 -0.0167 -0.4991
  107CHL1   H2014155   6.516   3.118  16.448 -0.4900  0.7192 -0.7546
  107CHL1   C2114156   6.328   3.202  16.476 -0.4696  0.2295 -0.6297
  107CHL1  H21A14157   6.304   3.241  16.375  1.5596  2.2353 -0.4277
  107CHL1  H21B14158   6.381   3.288  16.523  0.3470  0.3692 -1.7641
  107CHL1  H21C14159   6.230   3.190  16.528  0.4011  0.6959  1.2186
  107CHL1   C2214160   6.367   2.986  16.347 -0.1470 -0.4498 -0.3935
  107CHL1  H22A14161   6.388   2.879  16.369  0.4641 -0.8792 -2.7851
  107CHL1  H22B14162   6.257   3.001  16.343 -0.3518 -0.9332  1.8051
  107CHL1   C2314163   6.446   3.026  16.228  0.4392  0.2512 -0.3857
  107CHL1  H23A14164   6.433   3.134  16.205  1.8112 -0.2041 -3.8597
  107CHL1  H23B14165   6.553   3.019  16.258  0.3914  1.0544 -0.0022
  107CHL1   C2414166   6.408   2.932  16.117 -0.1988  0.0200  0.5956
  107CHL1  H24A14167   6.428   2.827  16.148 -3.3012 -1.0055 -0.4693
  107CHL1  H24B14168   6.300   2.920  16.092 -0.8187  1.6197  2.2240
  107CHL1   C2514169   6.500   2.952  15.990 -0.1542 -0.0040 -0.0164
  107CHL1   H2514170   6.603   2.942  16.029 -0.4036 -2.4805  0.1448
  107CHL1   C2614171   6.470   2.842  15.887 -0.3879  0.3424  0.4587
  107CHL1  H26A14172   6.508   2.743  15.923 -0.6130 -0.1311 -0.5713
  107CHL1  H26B14173   6.359   2.841  15.886 -0.3957  0.5752  0.9043
  107CHL1  H26C14174   6.524   2.866  15.793 -0.9387  1.8104  0.5036
  107CHL1   C2714175   6.496   3.096  15.929  0.1390  0.4337 -0.5228
  107CHL1  H27A14176   6.556   3.162  15.996  0.0189 -1.3318  1.4354
  107CHL1  H27B14177   6.538   3.084  15.827  1.0217 -2.4863  0.0847
  107CHL1  H27C14178   6.394   3.140  15.936  0.7834  1.6915  3.4414
  108CHL1    C314179   0.428   5.920  17.771  0.2962  0.0312 -0.2729
  108CHL1    H314180   0.332   5.867  17.762 -0.0680  0.5939  0.1716
  108CHL1    O314181   0.463   5.956  17.904 -0.0747  0.6056  0.1858
  108CHL1   H3'14182   0.405   6.032  17.917 -1.6690 -0.2724 -1.4175
  108CHL1    C414183   0.535   5.825  17.714 -0.3602 -0.4783 -0.1267
  108CHL1   H4A14184   0.627   5.880  17.745 -1.4332  0.8469  0.8173
  108CHL1   H4B14185   0.523   5.726  17.763 -1.3416 -1.4995 -2.2925
  108CHL1    C514186   0.523   5.801  17.566 -0.2645  0.5100 -0.1139
  108CHL1    C614187   0.535   5.680  17.505  0.5075 -0.3956  0.0024
  108CHL1    H614188   0.551   5.583  17.554  0.1258  0.2437  1.4403
  108CHL1    C714189   0.523   5.646  17.361 -0.4271 -0.2667  0.2788
  108CHL1   H7A14190   0.590   5.563  17.332  0.0335  0.2446 -0.1504
  108CHL1   H7B14191   0.417   5.621  17.340 -1.1927  2.2117  0.8796
  108CHL1    C814192   0.546   5.775  17.273  0.5065  0.6090  0.1003
  108CHL1    H814193   0.655   5.795  17.278  0.3042  1.4147  3.2696
  108CHL1   C1414194   0.496   5.752  17.133 -0.8104  1.0555  0.1565
  108CHL1   H1414195   0.386   5.746  17.147 -0.5205 -1.6200  1.8816
  108CHL1   C1514196   0.530   5.624  17.059  0.7868  0.1385 -0.3674
  108CHL1  H15A14197   0.640   5.617  17.072  0.8162 -2.5135 -1.3005
  108CHL1  H15B14198   0.482   5.534  17.103 -0.1294 -0.4337 -2.4090
  108CHL1   C1614199   0.488   5.645  16.920 -0.8473 -0.3439  0.3640
  108CHL1  H16A14200   0.570   5.613  16.852  0.1322  0.2264  1.2377
  108CHL1  H16B14201   0.397   5.585  16.901 -0.0649 -1.4914  0.1040
  108CHL1   C1714202   0.457   5.798  16.907  0.5248 -0.9508 -0.0290
  108CHL1   H1714203   0.348   5.803  16.923  0.1462 -1.9591 -2.0028
  108CHL1   C1314204   0.515   5.862  17.031  0.9929 -0.8711 -0.5355
  108CHL1   C1814205   0.665   5.887  17.005  1.5955 -0.4565  0.2607
  108CHL1  H18A14206   0.702   5.807  16.937 -0.5636  0.6606 -2.3910
  108CHL1  H18B14207   0.669   5.977  16.941  0.7356  0.6446  1.7177
  108CHL1  H18C14208   0.719   5.899  17.102  1.0170  0.3752  0.4876
  108CHL1   C1214209   0.434   5.979  17.092 -0.4501  0.1909  0.5199
  108CHL1  H12A14210   0.459   6.070  17.033  1.9212 -0.8158 -0.1381
  108CHL1  H12B14211   0.324   5.965  17.085 -0.6047  1.0351  1.0653
  108CHL1   C1114212   0.478   6.015  17.235 -0.0074  0.6286 -0.9382
  108CHL1  H11A14213   0.586   6.039  17.229  0.2409 -0.1238  0.2948
  108CHL1  H11B14214   0.426   6.110  17.263  0.1454  1.1164 -2.2471
  108CHL1    C914215   0.467   5.895  17.336  0.1475 -0.0625 -0.7845
  108CHL1    H914216   0.358   5.877  17.335  0.1878 -0.2941 -1.1977
  108CHL1   C1014217   0.504   5.929  17.480 -0.4764  0.2588  0.6747
  108CHL1   C1914218   0.639   5.997  17.475 -0.0524  0.3975 -0.0997
  108CHL1  H19A14219   0.709   5.937  17.412  0.3913  0.9708 -0.1657
  108CHL1  H19B14220   0.631   6.104  17.446  0.5256  0.2587 -0.8127
  108CHL1  H19C14221   0.679   6.000  17.578  2.0017 -0.0274 -0.8387
  108CHL1    C114222   0.395   6.020  17.539  0.0078  1.1994 -0.1484
  108CHL1   H1A14223   0.395   6.114  17.480  1.9301  0.4931 -1.3691
  108CHL1   H1B14224   0.295   5.973  17.526 -0.6571  2.5377 -0.0494
  108CHL1    C214225   0.417   6.053  17.686  1.0136  0.3513 -0.0132
  108CHL1   H2A14226   0.330   6.116  17.716  2.2662  1.3691  1.6664
  108CHL1   H2B14227   0.507   6.117  17.692  0.5193  1.0544  0.1264
  108CHL1   C2014228   0.483   5.868  16.779 -0.1987 -0.4334  0.2069
  108CHL1   H2014229   0.592   5.886  16.773  0.2055 -2.1298  1.8913
  108CHL1   C2114230   0.404   5.997  16.771 -0.5936  0.7469  0.0066
  108CHL1  H21A14231   0.447   6.079  16.833  1.8232  0.7807 -1.5971
  108CHL1  H21B14232   0.294   5.982  16.776 -0.5118  0.3556  0.8809
  108CHL1  H21C14233   0.428   6.049  16.676  3.1961  1.1406  1.0154
  108CHL1   C2214234   0.451   5.792  16.648  0.8694 -0.4484 -0.2778
  108CHL1  H22A14235   0.480   5.686  16.660 -0.2374 -0.5478  2.0831
  108CHL1  H22B14236   0.344   5.798  16.619  1.6650  0.8064 -3.3157
  108CHL1   C2314237   0.534   5.854  16.529 -0.1025 -0.5913 -0.3451
  108CHL1  H23A14238   0.496   5.956  16.509 -1.0534 -0.9327 -0.3448
  108CHL1  H23B14239   0.636   5.852  16.572 -0.9570  0.0526  1.8647
  108CHL1   C2414240   0.531   5.762  16.403 -0.0713  0.1528 -0.3879
  108CHL1  H24A14241   0.576   5.665  16.430 -1.2630 -0.3546 -0.1413
  108CHL1  H24B14242   0.424   5.739  16.384 -0.1446 -1.2097  1.4303
  108CHL1   C2514243   0.588   5.823  16.283  0.0744 -0.1764 -0.0782
  108CHL1   H2514244   0.677   5.875  16.323  0.0449 -2.0200  2.6366
  108CHL1   C2614245   0.627   5.709  16.183 -0.3223  0.5188  0.2124
  108CHL1  H26A14246   0.540   5.649  16.148  0.6025  0.3283 -1.9358
  108CHL1  H26B14247   0.675   5.760  16.096  1.1507 -0.1640  0.6091
  108CHL1  H26C14248   0.693   5.631  16.227 -0.5004 -0.1665 -0.6927
  108CHL1   C2714249   0.501   5.935  16.212 -1.0954 -0.1718  0.3265
  108CHL1  H27A14250   0.462   6.013  16.281  0.1214  1.0024 -0.2417
  108CHL1  H27B14251   0.559   6.001  16.143 -0.7691 -1.0327 -0.2300
  108CHL1  H27C14252   0.422   5.889  16.149 -1.2040 -0.4076  0.6350
  109CHL1    C314253   0.757   3.600  17.429 -0.8922  0.4370  0.3564
  109CHL1    H314254   0.675   3.526  17.425  0.1266 -0.7676  1.0809
  109CHL1    O314255   0.780   3.621  17.566 -0.0491  0.5376  0.1623
  109CHL1   H3'14256   0.809   3.533  17.591  1.8206  0.9236 -0.4227
  109CHL1    C414257   0.882   3.529  17.369  0.2527 -0.0318 -0.4068
  109CHL1   H4A14258   0.963   3.600  17.395 -0.6889  0.3670  1.6345
  109CHL1   H4B14259   0.894   3.438  17.431 -1.3011 -0.4114 -0.5972
  109CHL1    C514260   0.872   3.502  17.219  0.1405 -0.3392 -0.0764
  109CHL1    C614261   0.892   3.379  17.162  0.0609  0.4395  0.6691
  109CHL1    H614262   0.901   3.294  17.231 -0.4592  0.0159  0.2206
  109CHL1    C714263   0.884   3.345  17.015 -0.7968  0.5124  0.7383
  109CHL1   H7A14264   0.962   3.277  16.977 -0.3524 -1.2353  4.3687
  109CHL1   H7B14265   0.789   3.294  16.987 -0.1625 -1.0733  1.3694
  109CHL1    C814266   0.886   3.479  16.935 -0.2699 -0.4495  0.3300
  109CHL1    H814267   0.988   3.522  16.939 -1.2601  2.2517 -0.9066
  109CHL1   C1414268   0.855   3.456  16.782 -0.1020 -0.2469  0.3364
  109CHL1   H1414269   0.749   3.424  16.795  0.5701 -2.4433  0.8915
  109CHL1   C1514270   0.930   3.357  16.693  0.7002 -0.7823 -0.4932
  109CHL1  H15A14271   1.033   3.353  16.735  1.4701 -0.4144 -2.2606
  109CHL1  H15B14272   0.881   3.259  16.713  1.8216 -1.1933  0.3682
  109CHL1   C1614273   0.908   3.397  16.550 -0.0362 -0.4177 -0.1733
  109CHL1  H16A14274   1.011   3.418  16.513  0.2748  1.7924  1.7459
  109CHL1  H16B14275   0.865   3.311  16.493 -0.1281  0.0265 -0.7891
  109CHL1   C1714276   0.817   3.519  16.550 -0.1318 -0.0719  0.2679
  109CHL1   H1714277   0.710   3.489  16.561  0.1360 -1.4290 -0.5300
  109CHL1   C1314278   0.844   3.577  16.693 -0.7855 -0.2006  0.2216
  109CHL1   C1814279   0.984   3.645  16.688  0.0332  0.7947 -0.2383
  109CHL1  H18A14280   1.006   3.708  16.777  0.0349 -2.3207  2.1375
  109CHL1  H18B14281   1.059   3.564  16.680  0.8310  1.4730  0.2161
  109CHL1  H18C14282   0.988   3.708  16.597 -1.0765 -1.3576 -1.8679
  109CHL1   C1214283   0.741   3.671  16.755  0.6881  0.1741 -0.1036
  109CHL1  H12A14284   0.728   3.770  16.706  1.5486  1.2946  1.8292
  109CHL1  H12B14285   0.646   3.614  16.760 -0.0867  1.2913 -1.2568
  109CHL1   C1114286   0.768   3.711  16.900  0.1441  0.6398 -1.1013
  109CHL1  H11A14287   0.860   3.773  16.896 -0.9530  2.2851 -1.4145
  109CHL1  H11B14288   0.685   3.771  16.942 -1.0218 -1.6358  0.0515
  109CHL1    C914289   0.798   3.588  16.993 -0.0141 -0.3200 -0.1872
  109CHL1    H914290   0.694   3.548  16.997 -0.9067  1.8457 -0.4127
  109CHL1   C1014291   0.830   3.626  17.138  0.4585  0.0579 -0.3936
  109CHL1   C1914292   0.959   3.711  17.125  0.3643 -0.4586 -0.4769
  109CHL1  H19A14293   0.926   3.804  17.074  0.9804  0.0692  0.0652
  109CHL1  H19B14294   0.996   3.738  17.226 -0.4311 -1.0850 -0.0044
  109CHL1  H19C14295   1.037   3.657  17.066 -0.1056 -1.3027 -0.3486
  109CHL1    C114296   0.713   3.710  17.202  0.6331  0.0747 -0.0291
  109CHL1   H1A14297   0.700   3.810  17.154 -0.3941  0.4015  0.8801
  109CHL1   H1B14298   0.617   3.659  17.178  0.3348  1.0553 -1.0046
  109CHL1    C214299   0.720   3.726  17.359  0.0192  0.0501  0.1129
  109CHL1   H2A14300   0.619   3.763  17.386  0.2537  2.0641 -1.5637
  109CHL1   H2B14301   0.791   3.805  17.391  0.1220 -0.8824  2.3960
  109CHL1   C2014302   0.818   3.600  16.417 -0.2098 -0.7411 -0.5985
  109CHL1   H2014303   0.910   3.661  16.407  0.1509 -1.2323 -0.3380
  109CHL1   C2114304   0.699   3.692  16.415 -0.3085  0.2577  0.4145
  109CHL1  H21A14305   0.607   3.630  16.403  0.3530 -0.5717 -0.5510
  109CHL1  H21B14306   0.706   3.750  16.321  0.0077  0.9964  0.8898
  109CHL1  H21C14307   0.692   3.767  16.497 -0.0276  2.0444 -1.1508
  109CHL1   C2214308   0.817   3.507  16.287  0.0696 -0.7553  0.1091
  109CHL1  H22A14309   0.832   3.571  16.196  2.6611 -0.4818  0.6346
  109CHL1  H22B14310   0.907   3.444  16.302 -0.6240 -1.6946  0.3926
  109CHL1   C2314311   0.699   3.411  16.263  0.0171  0.4455 -0.1620
  109CHL1  H23A14312   0.680   3.357  16.358  0.1779  0.2036 -0.2664
  109CHL1  H23B14313   0.610   3.472  16.239 -1.9296 -1.4092  1.8954
  109CHL1   C2414314   0.719   3.311  16.146  0.3427 -0.1837  0.2181
  109CHL1  H24A14315   0.807   3.256  16.186  1.4807  1.4901  0.1142
  109CHL1  H24B14316   0.629   3.245  16.153 -0.8481  1.5219  1.8999
  109CHL1   C2514317   0.738   3.377  16.008  0.0220  0.1613 -0.2191
  109CHL1   H2514318   0.832   3.436  16.015  2.0626 -2.8700 -0.0432
  109CHL1   C2614319   0.770   3.284  15.892  0.1126  0.1835  0.4756
  109CHL1  H26A14320   0.860   3.219  15.893  1.4798  2.0006  0.1959
  109CHL1  H26B14321   0.679   3.226  15.868  0.2544  1.1105 -2.9051
  109CHL1  H26C14322   0.789   3.332  15.793  2.0693 -2.1604 -0.4142
  109CHL1   C2714323   0.615   3.465  15.976  0.5099 -0.0068 -0.5434
  109CHL1  H27A14324   0.515   3.418  15.971  0.2687  0.4132  0.2795
  109CHL1  H27B14325   0.608   3.538  16.059 -0.9251  0.7015 -1.2673
  109CHL1  H27C14326   0.633   3.518  15.880  0.0342  2.8550  0.8483
  110CHL1    C314327   2.500   1.078  17.324  0.2708 -0.4372 -0.1077
  110CHL1    H314328   2.460   0.975  17.308 -1.8765  0.0847  1.3324
  110CHL1    O314329   2.513   1.102  17.465 -0.5852  0.4488 -0.0650
  110CHL1   H3'14330   2.570   1.178  17.473  3.6760 -2.0979 -2.3895
  110CHL1    C414331   2.631   1.106  17.258 -0.0771 -0.0783 -0.1595
  110CHL1   H4A14332   2.654   1.213  17.279 -1.8889  0.9515 -2.9382
  110CHL1   H4B14333   2.714   1.047  17.302 -0.8046 -0.3897  0.8292
  110CHL1    C514334   2.623   1.089  17.109  0.0898  0.1889 -0.2251
  110CHL1    C614335   2.696   1.004  17.034  0.2914  0.1274 -0.8920
  110CHL1    H614336   2.767   0.945  17.093  0.8799  1.0294 -0.6676
  110CHL1    C714337   2.675   0.968  16.897  0.0563  0.1644  0.2220
  110CHL1   H7A14338   2.767   0.947  16.838  0.2663  1.2192  0.1553
  110CHL1   H7B14339   2.618   0.873  16.886 -1.9830  1.5376 -2.3205
  110CHL1    C814340   2.599   1.084  16.820 -0.3435 -0.0912  0.1288
  110CHL1    H814341   2.676   1.164  16.825 -0.1654 -0.2133 -0.5253
  110CHL1   C1414342   2.572   1.044  16.678  0.3516 -0.1890  0.5058
  110CHL1   H1414343   2.492   0.966  16.684 -3.1044  3.1066  1.2591
  110CHL1   C1514344   2.690   0.996  16.594 -0.2205  0.1122  0.0152
  110CHL1  H15A14345   2.772   1.070  16.607 -0.4014  0.2281  0.5240
  110CHL1  H15B14346   2.733   0.895  16.612  0.1815  0.3791  0.5885
  110CHL1   C1614347   2.637   0.996  16.446  1.1301  0.1152 -0.3483
  110CHL1  H16A14348   2.722   1.034  16.386  1.1510 -0.3312 -0.6075
  110CHL1  H16B14349   2.614   0.891  16.416  2.8290 -0.1971 -0.6429
  110CHL1   C1714350   2.513   1.088  16.457 -0.0647 -0.4392 -0.5303
  110CHL1   H1714351   2.426   1.019  16.456 -0.4814 -0.0595  2.0950
  110CHL1   C1314352   2.513   1.160  16.595  0.1255  0.3172 -0.1978
  110CHL1   C1814353   2.601   1.289  16.586 -0.1331 -0.0545 -0.0892
  110CHL1  H18A14354   2.692   1.258  16.531 -0.1771  1.6714 -1.1998
  110CHL1  H18B14355   2.549   1.371  16.533 -0.9877 -0.1642  0.5561
  110CHL1  H18C14356   2.607   1.331  16.689 -0.2763 -1.2282  0.4200
  110CHL1   C1214357   2.369   1.185  16.658  0.0295 -0.5519 -0.1946
  110CHL1  H12A14358   2.311   1.263  16.604 -0.6642 -0.3233  0.8599
  110CHL1  H12B14359   2.309   1.092  16.647  2.5747 -2.0650 -2.2761
  110CHL1   C1114360   2.384   1.226  16.813  0.2756  0.5330 -0.0275
  110CHL1  H11A14361   2.426   1.328  16.805  0.3354  0.7974  2.8370
  110CHL1  H11B14362   2.282   1.237  16.855 -0.2973  0.7588 -1.4139
  110CHL1    C914363   2.474   1.121  16.893  0.6119  0.0286 -0.4447
  110CHL1    H914364   2.418   1.025  16.886  0.6311  0.0699 -1.2702
  110CHL1   C1014365   2.506   1.165  17.043 -0.3670  0.1901  0.6483
  110CHL1   C1914366   2.544   1.319  17.035  0.4651  0.1011 -0.0157
  110CHL1  H19A14367   2.620   1.326  16.954  0.4989 -0.9540 -0.0900
  110CHL1  H19B14368   2.451   1.375  17.014  1.1782  0.8580 -1.2803
  110CHL1  H19C14369   2.585   1.356  17.132 -0.7914  0.0882  0.5430
  110CHL1    C114370   2.374   1.147  17.122 -0.6738 -0.2881  0.1739
  110CHL1   H1A14371   2.301   1.224  17.093 -0.6827 -0.4369 -0.2034
  110CHL1   H1B14372   2.325   1.049  17.106 -0.5790 -1.0325  3.5797
  110CHL1    C214373   2.384   1.160  17.275  0.0648 -0.0780  0.4213
  110CHL1   H2A14374   2.293   1.126  17.329  0.3304 -0.1760  0.8117
  110CHL1   H2B14375   2.398   1.269  17.294  2.1705 -0.2072 -0.1316
  110CHL1   C2014376   2.490   1.166  16.324 -0.3302  0.9138 -0.7888
  110CHL1   H2014377   2.573   1.239  16.317  1.4758 -0.9559 -0.0484
  110CHL1   C2114378   2.362   1.242  16.337 -0.8794  0.9635  0.1250
  110CHL1  H21A14379   2.272   1.179  16.330 -1.1362  1.4748 -1.7559
  110CHL1  H21B14380   2.358   1.315  16.253 -1.9047  0.0311 -0.6497
  110CHL1  H21C14381   2.366   1.302  16.430 -0.4196 -2.0975  2.2343
  110CHL1   C2214382   2.494   1.067  16.198  0.6572  0.1244  0.1625
  110CHL1  H22A14383   2.589   1.010  16.188  0.5673  0.1522 -0.9102
  110CHL1  H22B14384   2.417   0.988  16.208  0.4325  0.4484  1.1578
  110CHL1   C2314385   2.476   1.152  16.069  0.1646  0.0592  0.2121
  110CHL1  H23A14386   2.389   1.222  16.073 -0.1142 -0.2817  0.1905
  110CHL1  H23B14387   2.560   1.224  16.058 -0.5396  0.9845  0.7196
  110CHL1   C2414388   2.454   1.073  15.940 -0.0780  0.2918 -0.1802
  110CHL1  H24A14389   2.533   1.001  15.909  1.1103  0.2810  2.6219
  110CHL1  H24B14390   2.360   1.017  15.960 -0.4591 -0.2164 -2.9401
  110CHL1   C2514391   2.430   1.154  15.815  0.6430 -0.0078  0.2378
  110CHL1   H2514392   2.523   1.214  15.807  2.5462 -2.7667  0.0964
  110CHL1   C2614393   2.432   1.069  15.686  0.8521  0.1893 -0.8418
  110CHL1  H26A14394   2.428   1.123  15.589 -0.6933  1.0782 -0.3249
  110CHL1  H26B14395   2.531   1.020  15.689  1.5509  1.5678 -0.9132
  110CHL1  H26C14396   2.354   0.989  15.694  1.0156  0.2028  1.6536
  110CHL1   C2714397   2.293   1.227  15.808 -0.2560  0.0865 -1.1274
  110CHL1  H27A14398   2.212   1.153  15.825  0.6534 -0.0983  3.6743
  110CHL1  H27B14399   2.290   1.301  15.892  0.2259 -2.0583  0.8690
  110CHL1  H27C14400   2.278   1.286  15.715  0.3922  3.2736  0.6356
  111CHL1    C314401   3.715   2.544  16.700 -0.4267  0.4246 -0.1711
  111CHL1    H314402   3.691   2.649  16.727 -0.7567 -0.0793  1.5822
  111CHL1    O314403   3.725   2.472  16.819  0.0616  0.0918  0.1460
  111CHL1   H3'14404   3.720   2.379  16.795  0.0988 -0.5549  2.3759
  111CHL1    C414405   3.599   2.475  16.628  0.3246 -0.5742 -0.3653
  111CHL1   H4A14406   3.621   2.366  16.626 -1.9755 -1.1013 -0.1987
  111CHL1   H4B14407   3.501   2.486  16.680  0.9378 -0.5923  0.8429
  111CHL1    C514408   3.587   2.513  16.481  0.5745 -0.2318  0.0535
  111CHL1    C614409   3.474   2.564  16.433  0.6697 -0.1292  0.4967
  111CHL1    H614410   3.381   2.576  16.491 -1.6579  1.1984 -3.2166
  111CHL1    C714411   3.447   2.588  16.286 -0.8173  0.1233 -0.7603
  111CHL1   H7A14412   3.356   2.535  16.251  0.0981 -1.4416 -0.9096
  111CHL1   H7B14413   3.439   2.698  16.280  1.6809  0.4035 -0.1203
  111CHL1    C814414   3.566   2.538  16.204 -0.3035 -0.2880  0.3349
  111CHL1    H814415   3.571   2.428  16.188  1.6398  0.0546 -1.9129
  111CHL1   C1414416   3.559   2.606  16.067  0.3560  0.7197 -0.1766
  111CHL1   H1414417   3.563   2.712  16.101 -1.0121  0.8591 -0.4094
  111CHL1   C1514418   3.432   2.600  15.993  0.2602 -0.1724  0.5267
  111CHL1  H15A14419   3.394   2.498  15.968  0.3873 -0.1143  0.0926
  111CHL1  H15B14420   3.347   2.648  16.046 -0.3460  2.1849 -2.3743
  111CHL1   C1614421   3.458   2.661  15.861 -0.2199  0.1331 -0.1258
  111CHL1  H16A14422   3.401   2.616  15.776 -0.2477 -2.5101  1.1777
  111CHL1  H16B14423   3.415   2.763  15.866  0.9356  0.7982 -2.1861
  111CHL1   C1714424   3.612   2.663  15.849  0.0476  0.1209  0.0505
  111CHL1   H1714425   3.644   2.767  15.871 -1.0522  0.6981 -0.9542
  111CHL1   C1314426   3.668   2.574  15.960 -0.2671 -0.1772  0.3633
  111CHL1   C1814427   3.662   2.426  15.914  0.6666 -0.0387 -0.3073
  111CHL1  H18A14428   3.568   2.410  15.858  0.1368  0.3648  0.4517
  111CHL1  H18B14429   3.756   2.400  15.860  1.2711 -1.0798  1.1894
  111CHL1  H18C14430   3.662   2.358  16.002  0.5461  1.8285  1.1992
  111CHL1   C1214431   3.804   2.612  16.026  0.8341 -0.3862  0.2644
  111CHL1  H12A14432   3.889   2.565  15.971 -0.5726 -1.0142 -1.4748
  111CHL1  H12B14433   3.800   2.721  16.042  1.0604 -0.3280 -0.0480
  111CHL1   C1114434   3.816   2.545  16.165  0.2213  0.0390 -0.0415
  111CHL1  H11A14435   3.838   2.437  16.155  0.3811  0.0028  0.6420
  111CHL1  H11B14436   3.906   2.583  16.217 -0.6224 -1.2267  2.5058
  111CHL1    C914437   3.699   2.570  16.269 -0.5957 -0.6358 -0.1835
  111CHL1    H914438   3.704   2.680  16.289 -0.2728 -0.9608  1.7389
  111CHL1   C1014439   3.724   2.497  16.405  0.5968 -0.6004  0.3811
  111CHL1   C1914440   3.765   2.343  16.379  0.5788  0.7291  0.0441
  111CHL1  H19A14441   3.690   2.285  16.321 -1.4301  3.2035  0.0127
  111CHL1  H19B14442   3.854   2.339  16.312  0.3604 -1.2960 -0.1725
  111CHL1  H19C14443   3.783   2.284  16.471  3.4524 -0.7551 -1.3203
  111CHL1    C114444   3.833   2.575  16.476 -0.5195 -0.1391  0.1091
  111CHL1   H1A14445   3.931   2.547  16.432 -1.4605 -1.3649 -1.3003
  111CHL1   H1B14446   3.826   2.685  16.468  2.8513  0.3183  1.4110
  111CHL1    C214447   3.851   2.531  16.623 -0.5819 -0.1399  0.0407
  111CHL1   H2A14448   3.933   2.580  16.680  0.2786  0.4578 -1.6593
  111CHL1   H2B14449   3.877   2.423  16.631  0.9490  0.0727 -1.4261
  111CHL1   C2014450   3.665   2.652  15.707 -0.0572  0.2735  0.4194
  111CHL1   H2014451   3.643   2.551  15.665  1.6243 -0.5468  1.3707
  111CHL1   C2114452   3.819   2.668  15.712 -0.1856  0.0601 -0.0012
  111CHL1  H21A14453   3.874   2.584  15.759  0.6771  0.4121 -0.3704
  111CHL1  H21B14454   3.849   2.762  15.764  0.9596 -0.0049 -0.5334
  111CHL1  H21C14455   3.852   2.668  15.606 -0.9687  1.6358 -0.2799
  111CHL1   C2214456   3.597   2.753  15.615  0.9660 -0.5023 -0.0023
  111CHL1  H22A14457   3.487   2.741  15.606  0.3307  2.5513  2.0796
  111CHL1  H22B14458   3.607   2.857  15.653 -0.3064 -0.4802  0.3152
  111CHL1   C2314459   3.664   2.771  15.479 -0.0519 -0.1074 -0.1008
  111CHL1  H23A14460   3.751   2.839  15.487  1.1206 -1.7274  1.4844
  111CHL1  H23B14461   3.699   2.667  15.459 -0.2397 -0.3301  0.7130
  111CHL1   C2414462   3.574   2.822  15.368  0.5431  0.5358 -0.3686
  111CHL1  H24A14463   3.484   2.758  15.379 -0.5168  2.1984  1.2782
  111CHL1  H24B14464   3.544   2.927  15.387 -0.4868  0.5457 -1.8262
  111CHL1   C2514465   3.628   2.797  15.225 -0.3492  0.1762 -0.6535
  111CHL1   H2514466   3.549   2.845  15.163  0.6365 -0.1514 -2.2322
  111CHL1   C2614467   3.757   2.871  15.197 -0.1794  0.9895  0.1011
  111CHL1  H26A14468   3.846   2.828  15.247 -0.4125 -0.2900 -0.5281
  111CHL1  H26B14469   3.782   2.875  15.089  0.5816  0.7106  0.2570
  111CHL1  H26C14470   3.757   2.972  15.242  0.0117  0.2530  1.8161
  111CHL1   C2714471   3.629   2.646  15.201  0.8103 -0.6209 -0.0633
  111CHL1  H27A14472   3.649   2.640  15.091  0.6394  0.0094 -0.1355
  111CHL1  H27B14473   3.700   2.589  15.264  0.4469  0.8298  1.7219
  111CHL1  H27C14474   3.522   2.617  15.207  0.5298  0.5421  0.9800
  112CHL1    C314475   5.709   3.772  17.312 -0.0012  0.4108 -0.2910
  112CHL1    H314476   5.818   3.788  17.297  1.2217 -1.8172  4.3295
  112CHL1    O314477   5.692   3.737  17.449  0.6501 -0.1077  0.5812
  112CHL1   H3'14478   5.767   3.771  17.497  1.5535 -2.2091  0.7679
  112CHL1    C414479   5.621   3.885  17.273  0.1112  0.1019 -0.2244
  112CHL1   H4A14480   5.519   3.845  17.290  0.1427 -0.7497 -1.8333
  112CHL1   H4B14481   5.634   3.979  17.332  2.0074  0.8297 -1.6779
  112CHL1    C514482   5.642   3.913  17.123 -1.1255  0.3168  0.3635
  112CHL1    C614483   5.680   4.035  17.082 -0.5794 -1.1842  0.2079
  112CHL1    H614484   5.690   4.117  17.156 -0.6346 -1.0207  0.0349
  112CHL1    C714485   5.708   4.073  16.936  0.3049  0.5957 -0.5259
  112CHL1   H7A14486   5.661   4.171  16.912 -0.2054  0.3504 -0.5561
  112CHL1   H7B14487   5.817   4.065  16.920  0.0449 -1.2562 -1.6578
  112CHL1    C814488   5.643   3.971  16.844 -0.0022  1.3303  0.6270
  112CHL1    H814489   5.532   3.971  16.851 -0.0323 -2.2359  2.0288
  112CHL1   C1414490   5.682   3.991  16.697 -1.1376 -0.4090 -0.4060
  112CHL1   H1414491   5.793   3.996  16.709 -1.0432  0.9551 -1.5773
  112CHL1   C1514492   5.656   4.123  16.629  0.1895  0.0718  0.0473
  112CHL1  H15A14493   5.549   4.152  16.632  0.0703 -0.2936 -0.5411
  112CHL1  H15B14494   5.708   4.204  16.685 -1.3863 -0.3587  2.2484
  112CHL1   C1614495   5.703   4.100  16.490  0.0356  0.0764  0.5139
  112CHL1  H16A14496   5.613   4.117  16.427 -0.3064  0.9370  1.1951
  112CHL1  H16B14497   5.795   4.159  16.469  1.1463 -1.7095  0.1851
  112CHL1   C1714498   5.730   3.950  16.468  0.3765  0.8358  0.2044
  112CHL1   H1714499   5.839   3.945  16.488  0.7300  1.6457 -1.3891
  112CHL1   C1314500   5.657   3.880  16.587  0.1308 -0.7768 -1.0428
  112CHL1   C1814501   5.505   3.874  16.562 -0.4866  0.4625  0.2582
  112CHL1  H18A14502   5.474   3.800  16.485 -1.8638  0.1747  1.0513
  112CHL1  H18B14503   5.456   3.854  16.660  0.7523  0.4017  0.8885
  112CHL1  H18C14504   5.471   3.975  16.529  1.0917 -0.0210 -3.2627
  112CHL1   C1214505   5.704   3.752  16.637  0.1882  0.6940  0.2376
  112CHL1  H12A14506   5.672   3.683  16.556  2.4277 -0.7682  0.5179
  112CHL1  H12B14507   5.815   3.746  16.637  0.1800 -1.1700 -2.0614
  112CHL1   C1114508   5.651   3.715  16.776 -0.6419  0.0002  0.2877
  112CHL1  H11A14509   5.541   3.703  16.769 -0.5035 -1.7388  0.6257
  112CHL1  H11B14510   5.689   3.619  16.817  1.0500 -0.4232 -2.0634
  112CHL1    C914511   5.680   3.826  16.888 -0.3849 -0.2527  0.3916
  112CHL1    H914512   5.791   3.828  16.888 -0.3392  0.7953 -1.9624
  112CHL1   C1014513   5.627   3.795  17.028 -0.0353 -0.5427 -0.5536
  112CHL1   C1914514   5.472   3.769  17.017 -0.1306 -0.1889 -0.5424
  112CHL1  H19A14515   5.429   3.753  17.119  0.2806 -1.5729 -0.5653
  112CHL1  H19B14516   5.411   3.850  16.972  1.6543  1.7893  0.4639
  112CHL1  H19C14517   5.459   3.671  16.965  1.1767 -0.9623  0.5144
  112CHL1    C114518   5.699   3.672  17.088 -0.1913 -0.2874 -0.5213
  112CHL1   H1A14519   5.701   3.582  17.023  3.4659 -0.9129  0.2356
  112CHL1   H1B14520   5.805   3.699  17.070  0.0296 -0.2906  0.7107
  112CHL1    C214521   5.670   3.648  17.238 -0.0413  1.1108  0.9780
  112CHL1   H2A14522   5.712   3.550  17.271  0.5512  0.3622 -1.7277
  112CHL1   H2B14523   5.562   3.633  17.257 -0.7445  1.5524 -2.0834
  112CHL1   C2014524   5.704   3.902  16.319  0.1331  0.2601 -0.1242
  112CHL1   H2014525   5.595   3.890  16.299  0.7407 -1.2781 -3.1367
  112CHL1   C2114526   5.777   3.763  16.305  0.1478 -0.6078  0.2304
  112CHL1  H21A14527   5.882   3.770  16.340 -0.1581  0.9375  0.9304
  112CHL1  H21B14528   5.767   3.728  16.200 -1.3344 -1.8617  0.7539
  112CHL1  H21C14529   5.722   3.689  16.367  0.4185  1.2841  2.8747
  112CHL1   C2214530   5.774   4.000  16.223  0.2359  0.7555 -0.0182
  112CHL1  H22A14531   5.728   4.097  16.248  1.4438  1.0202  1.2650
  112CHL1  H22B14532   5.883   4.010  16.242  0.1162 -0.7080  1.7311
  112CHL1   C2314533   5.748   3.970  16.071  0.6060 -0.3673 -0.3556
  112CHL1  H23A14534   5.778   3.867  16.043  1.1869 -0.1631 -0.5145
  112CHL1  H23B14535   5.639   3.986  16.056  0.5602  0.9838  1.0918
  112CHL1   C2414536   5.821   4.078  15.989  0.6671  0.7014  0.5281
  112CHL1  H24A14537   5.766   4.171  16.012 -1.2674  0.3219 -2.1242
  112CHL1  H24B14538   5.925   4.104  16.019  1.3462  1.7798 -2.4614
  112CHL1   C2514539   5.811   4.073  15.838  0.6177  0.3622 -0.2527
  112CHL1   H2514540   5.854   4.167  15.797 -1.5176  1.0125 -1.0959
  112CHL1   C2614541   5.888   3.951  15.777  0.6966  0.3775  0.2357
  112CHL1  H26A14542   5.989   3.938  15.821  2.4063  1.4714 -2.9480
  112CHL1  H26B14543   5.821   3.863  15.787  0.0089  0.7413 -0.9198
  112CHL1  H26C14544   5.906   3.965  15.668  2.2131 -1.3009  0.2386
  112CHL1   C2714545   5.666   4.066  15.784  0.2722  0.3741  0.4806
  112CHL1  H27A14546   5.608   4.149  15.832 -0.3482 -0.4495  1.1807
  112CHL1  H27B14547   5.675   4.063  15.673  0.9882 -1.3932  0.5511
  112CHL1  H27C14548   5.618   3.970  15.810  1.0084  0.1017  0.8713
  113CHL1    C314549   2.197   0.248  17.167  0.5718  0.0456 -0.2582
  113CHL1    H314550   2.089   0.261  17.142  1.0394  1.0956 -1.9220
  113CHL1    O314551   2.215   0.285  17.299 -0.1268  0.3281 -0.1964
  113CHL1   H3'14552   2.309   0.273  17.310 -0.0806  1.4060  0.7712
  113CHL1    C414553   2.263   0.107  17.153 -0.4798  0.5567 -0.4733
  113CHL1   H4A14554   2.366   0.106  17.195 -0.6529 -0.0770 -0.0481
  113CHL1   H4B14555   2.208   0.034  17.216  1.3287 -1.8670 -1.5785
  113CHL1    C514556   2.257   0.062  17.014 -0.1284  0.1816 -0.2369
  113CHL1    C614557   2.194  -0.053  16.973 -0.7252 -0.1980 -0.5654
  113CHL1    H614558   2.141  -0.116  17.046  0.7585  0.0938  0.8319
  113CHL1    C714559   2.204  -0.112  16.835  0.7271 -0.2360 -0.2361
  113CHL1   H7A14560   2.229  -0.220  16.842 -1.6666 -0.9592 -1.5914
  113CHL1   H7B14561   2.106  -0.107  16.783 -0.3523  3.2633  1.7880
  113CHL1    C814562   2.303  -0.032  16.749  0.5609 -0.0108  0.3010
  113CHL1    H814563   2.403  -0.073  16.777  0.4237  0.6611  1.8670
  113CHL1   C1414564   2.272  -0.054  16.599 -0.0072  0.0594  0.2227
  113CHL1   H1414565   2.173  -0.008  16.582  1.2052  1.7403 -3.2978
  113CHL1   C1514566   2.254  -0.203  16.561 -0.2438 -0.3097  1.1548
  113CHL1  H15A14567   2.340  -0.270  16.586 -1.4920 -3.0257 -1.2371
  113CHL1  H15B14568   2.159  -0.247  16.596 -0.7441 -0.4866 -0.3420
  113CHL1   C1614569   2.265  -0.193  16.402  0.3317  0.3065  0.6784
  113CHL1  H16A14570   2.344  -0.262  16.367  0.6112 -0.1445  2.1265
  113CHL1  H16B14571   2.169  -0.225  16.357  0.2199  1.3570  0.1186
  113CHL1   C1714572   2.302  -0.047  16.362 -0.1818  0.0389 -0.0834
  113CHL1   H1714573   2.207   0.011  16.361  0.3289  0.9115  0.4929
  113CHL1   C1314574   2.367   0.007  16.494  0.0613 -0.0892 -0.1095
  113CHL1   C1814575   2.501  -0.065  16.508  0.1187 -0.3107  0.3497
  113CHL1  H18A14576   2.497  -0.176  16.506 -0.4348 -0.2904 -0.3772
  113CHL1  H18B14577   2.566  -0.035  16.423 -1.3069 -2.0291 -1.4484
  113CHL1  H18C14578   2.557  -0.038  16.600 -0.8373 -0.4104  0.9786
  113CHL1   C1214579   2.376   0.153  16.525  0.1264 -0.3031 -0.2153
  113CHL1  H12A14580   2.448   0.196  16.452 -2.3763  1.2324 -1.9538
  113CHL1  H12B14581   2.274   0.186  16.497  0.1892 -0.8735 -1.1437
  113CHL1   C1114582   2.399   0.181  16.673 -0.7067 -0.2095  0.1189
  113CHL1  H11A14583   2.505   0.156  16.699 -0.9000 -1.2885 -0.0695
  113CHL1  H11B14584   2.392   0.290  16.690 -0.4782 -0.5682  2.9829
  113CHL1    C914585   2.305   0.115  16.775 -0.1642 -0.5189 -0.7776
  113CHL1    H914586   2.203   0.149  16.747  0.1195  1.8081  0.7125
  113CHL1   C1014587   2.329   0.159  16.918  0.7596  0.9449 -0.0285
  113CHL1   C1914588   2.481   0.169  16.945  0.2524 -0.3710 -0.7459
  113CHL1  H19A14589   2.512   0.068  16.910 -1.3787 -0.6661 -1.4538
  113CHL1  H19B14590   2.519   0.258  16.892  0.0152  0.0548 -0.2159
  113CHL1  H19C14591   2.512   0.170  17.052 -0.4547  1.7476 -0.5310
  113CHL1    C114592   2.255   0.301  16.941  0.1833 -0.0866 -0.3803
  113CHL1   H1A14593   2.302   0.376  16.875 -0.7397  1.3893  0.5852
  113CHL1   H1B14594   2.148   0.296  16.911 -0.1382 -3.3333  0.8558
  113CHL1    C214595   2.271   0.349  17.089 -0.1025  0.2948  0.2593
  113CHL1   H2A14596   2.229   0.452  17.087  1.9754  1.3305  2.8091
  113CHL1   H2B14597   2.377   0.356  17.124  0.4378 -0.5662 -1.1396
  113CHL1   C2014598   2.374  -0.025  16.235 -0.4412 -0.8222  0.7401
  113CHL1   H2014599   2.482  -0.043  16.252 -0.2809 -0.2472  0.3790
  113CHL1   C2114600   2.364   0.118  16.187 -0.2129 -0.0839  0.2264
  113CHL1  H21A14601   2.426   0.190  16.245  0.6553 -0.0101 -0.7421
  113CHL1  H21B14602   2.258   0.149  16.197 -0.3149 -0.4935  0.3896
  113CHL1  H21C14603   2.393   0.131  16.080 -2.6963 -2.1690 -0.8030
  113CHL1   C2214604   2.332  -0.132  16.121  0.2537 -0.6712  0.1687
  113CHL1  H22A14605   2.362  -0.236  16.145 -1.0198 -1.3479 -0.9829
  113CHL1  H22B14606   2.221  -0.132  16.111  0.4173  0.6127 -2.5685
  113CHL1   C2314607   2.363  -0.087  15.975 -0.0601  0.1587  0.1000
  113CHL1  H23A14608   2.304   0.006  15.957  1.4046  0.7298 -2.2869
  113CHL1  H23B14609   2.469  -0.056  15.965 -0.3425  0.7738 -1.3221
  113CHL1   C2414610   2.320  -0.195  15.873  0.5606  0.4972  0.2300
  113CHL1  H24A14611   2.396  -0.276  15.870 -0.0782 -0.1225  0.4689
  113CHL1  H24B14612   2.225  -0.244  15.905  0.1247  0.4728 -1.0781
  113CHL1   C2514613   2.311  -0.144  15.723 -0.1241  0.0645  0.0701
  113CHL1   H2514614   2.256  -0.048  15.725  2.0915  1.3881  1.4546
  113CHL1   C2614615   2.446  -0.103  15.677 -0.1605  0.1212 -0.6216
  113CHL1  H26A14616   2.454  -0.111  15.566 -0.3049 -1.2624 -0.5500
  113CHL1  H26B14617   2.475  -0.006  15.722 -1.2120 -0.2751  1.0174
  113CHL1  H26C14618   2.512  -0.182  15.718 -1.6025 -0.7593  0.0861
  113CHL1   C2714619   2.255  -0.251  15.626  0.1602  0.1018  0.0982
  113CHL1  H27A14620   2.323  -0.339  15.620  1.4323  1.0413  0.2295
  113CHL1  H27B14621   2.156  -0.286  15.662 -0.1278  0.9838  0.1987
  113CHL1  H27C14622   2.236  -0.210  15.524 -2.0230  2.3354  1.3084
  114CHL1    C314623   5.380   2.177  16.947  0.6313 -0.0386  0.1708
  114CHL1    H314624   5.343   2.275  16.910 -0.9549 -0.9735 -0.8086
  114CHL1    O314625   5.356   2.167  17.084 -0.5116  0.0490  0.2690
  114CHL1   H3'14626   5.398   2.085  17.111  0.1001  0.3425  0.2338
  114CHL1    C414627   5.293   2.085  16.865 -0.3840  0.8470  0.0428
  114CHL1   H4A14628   5.316   1.982  16.899 -0.1443  0.4323 -1.3007
  114CHL1   H4B14629   5.189   2.105  16.899 -0.2052  0.6120  0.7295
  114CHL1    C514630   5.324   2.088  16.715  0.2807 -0.7498 -0.2340
  114CHL1    C614631   5.230   2.117  16.624 -0.0314 -0.3891 -0.5801
  114CHL1    H614632   5.125   2.130  16.657  0.7002  1.5206  1.1802
  114CHL1    C714633   5.245   2.136  16.474 -0.1283  0.0264  0.1936
  114CHL1   H7A14634   5.159   2.093  16.417  0.4779 -1.4155  0.3337
  114CHL1   H7B14635   5.244   2.245  16.454  0.0302  0.0279  0.1994
  114CHL1    C814636   5.375   2.079  16.435  0.4112 -0.6901 -0.1762
  114CHL1    H814637   5.368   1.968  16.435 -0.0861 -0.6610 -0.2022
  114CHL1   C1414638   5.401   2.110  16.286 -0.2337 -0.2862 -0.2318
  114CHL1   H1414639   5.408   2.221  16.278  0.2714 -0.1609  1.5014
  114CHL1   C1514640   5.290   2.060  16.189  0.4225 -1.0117 -0.0960
  114CHL1  H15A14641   5.249   1.962  16.223  0.1008 -0.2633  1.7904
  114CHL1  H15B14642   5.201   2.127  16.191 -0.6206 -2.3404 -0.1757
  114CHL1   C1614643   5.360   2.062  16.053 -0.3700  0.4061  0.1792
  114CHL1  H16A14644   5.344   1.960  16.013  0.9959  0.0694  0.4320
  114CHL1  H16B14645   5.318   2.143  15.990 -1.7316 -1.2237 -1.0805
  114CHL1   C1714646   5.510   2.097  16.089 -0.5605 -0.2880  0.2806
  114CHL1   H1714647   5.520   2.207  16.092  1.5125 -0.4692  1.5382
  114CHL1   C1314648   5.531   2.051  16.233  0.3954 -0.1552  0.4558
  114CHL1   C1814649   5.537   1.902  16.241  0.2905  1.1565  0.7563
  114CHL1  H18A14650   5.630   1.862  16.195 -0.3602 -0.6454  0.8927
  114CHL1  H18B14651   5.540   1.867  16.347  4.9582  0.6897  0.6827
  114CHL1  H18C14652   5.458   1.847  16.185 -0.7963  2.6620  0.7658
  114CHL1   C1214653   5.645   2.118  16.309  0.2996  0.0495  0.0125
  114CHL1  H12A14654   5.748   2.084  16.285  0.4971  0.0981  0.7715
  114CHL1  H12B14655   5.637   2.229  16.300 -0.1187  0.1715  1.6126
  114CHL1   C1114656   5.644   2.097  16.469 -0.3296  0.4405  0.1395
  114CHL1  H11A14657   5.669   1.991  16.490  1.5009  0.8771  0.2959
  114CHL1  H11B14658   5.723   2.154  16.522  0.1727  0.3901 -0.5405
  114CHL1    C914659   5.492   2.129  16.520 -0.2479 -0.5980 -0.5939
  114CHL1    H914660   5.477   2.238  16.505  1.5106 -0.5571 -2.5525
  114CHL1   C1014661   5.477   2.094  16.674 -0.5514  0.3034  0.5540
  114CHL1   C1914662   5.522   1.949  16.700  0.3933  0.1411  0.1843
  114CHL1  H19A14663   5.483   1.872  16.630  0.9276 -0.5359  0.6195
  114CHL1  H19B14664   5.630   1.929  16.679  0.1568  1.3186 -2.5944
  114CHL1  H19C14665   5.500   1.909  16.801 -2.2824  0.7597 -0.0971
  114CHL1    C114666   5.554   2.193  16.763  0.5316 -0.7088 -0.1884
  114CHL1   H1A14667   5.662   2.181  16.741  0.8274  0.3045  0.6354
  114CHL1   H1B14668   5.533   2.298  16.735  3.3210  0.3809  1.3822
  114CHL1    C214669   5.528   2.175  16.916 -0.3666 -0.3296 -0.2830
  114CHL1   H2A14670   5.582   2.245  16.984 -0.5972 -2.2386  1.9763
  114CHL1   H2B14671   5.560   2.073  16.944 -1.0980 -1.1843 -2.3667
  114CHL1   C2014672   5.612   2.064  15.981 -0.1262 -0.0778 -0.4254
  114CHL1   H2014673   5.708   2.047  16.034  0.3922  2.0822 -0.6050
  114CHL1   C2114674   5.639   2.179  15.887 -0.6241 -0.8771 -0.2170
  114CHL1  H21A14675   5.732   2.166  15.829 -0.4057 -1.0325  0.1671
  114CHL1  H21B14676   5.654   2.269  15.950 -0.2030 -0.1546 -1.3261
  114CHL1  H21C14677   5.550   2.205  15.825 -0.9248  0.8733  0.8797
  114CHL1   C2214678   5.595   1.930  15.905  0.1247 -1.2913  0.3469
  114CHL1  H22A14679   5.579   1.849  15.979  2.9494 -1.1645  1.1939
  114CHL1  H22B14680   5.506   1.951  15.842  0.9029  0.1089 -0.3460
  114CHL1   C2314681   5.702   1.887  15.812 -0.0325 -0.0070  0.2423
  114CHL1  H23A14682   5.695   1.949  15.720 -0.5221 -2.2342 -1.3005
  114CHL1  H23B14683   5.803   1.906  15.855 -0.4854  2.1330  0.4898
  114CHL1   C2414684   5.683   1.745  15.754 -0.1333 -0.0895 -0.0844
  114CHL1  H24A14685   5.673   1.674  15.839 -3.5684 -1.9514 -1.8234
  114CHL1  H24B14686   5.578   1.746  15.716 -0.8534  2.7121  1.6176
  114CHL1   C2514687   5.784   1.705  15.655 -1.0721 -0.6019 -0.4762
  114CHL1   H2514688   5.782   1.782  15.575  2.1579  0.8575  0.6593
  114CHL1   C2614689   5.929   1.722  15.720  0.5356 -0.4199  0.0111
  114CHL1  H26A14690   5.940   1.684  15.824 -0.5751 -1.4743 -0.2258
  114CHL1  H26B14691   6.002   1.662  15.661 -0.0490 -0.5017 -0.6467
  114CHL1  H26C14692   5.964   1.826  15.702  0.4993 -0.2563  0.8363
  114CHL1   C2714693   5.776   1.561  15.609  0.6538  0.0145  0.3139
  114CHL1  H27A14694   5.849   1.541  15.528  0.8606  3.3930 -0.4825
  114CHL1  H27B14695   5.799   1.490  15.691  0.1451  1.9689  2.2339
  114CHL1  H27C14696   5.671   1.547  15.576  0.7455 -0.6386  0.2873
  115CHL1    C314697   3.773   3.041  16.592  0.0136  0.3273 -0.0469
  115CHL1    H314698   3.849   2.970  16.554  0.7960 -0.3402  2.5411
  115CHL1    O314699   3.772   3.045  16.734  0.2345 -0.0755  0.5258
  115CHL1   H3'14700   3.864   3.061  16.755 -0.2250  2.5346  0.9396
  115CHL1    C414701   3.790   3.181  16.538 -0.6980  0.0049 -0.2498
  115CHL1   H4A14702   3.726   3.258  16.588  2.2567  1.9996  0.7375
  115CHL1   H4B14703   3.889   3.220  16.571 -1.9944  2.9246  0.5514
  115CHL1    C514704   3.792   3.179  16.387 -0.2643 -0.4463  0.4180
  115CHL1    C614705   3.895   3.220  16.311  0.4707 -0.2370 -0.5921
  115CHL1    H614706   3.991   3.248  16.356  0.5123  0.1369 -0.9049
  115CHL1    C714707   3.885   3.227  16.163  0.5173  0.0017  0.2130
  115CHL1   H7A14708   3.938   3.318  16.126 -0.0628 -0.0217 -0.7074
  115CHL1   H7B14709   3.939   3.138  16.124  0.8479 -0.2352  1.1747
  115CHL1    C814710   3.739   3.217  16.111  0.4677 -0.7009  0.2973
  115CHL1    H814711   3.703   3.321  16.125  0.8240 -0.7781  1.9691
  115CHL1   C1414712   3.745   3.187  15.956  0.5123 -0.0703  0.2140
  115CHL1   H1414713   3.784   3.083  15.952  0.2461 -0.1613 -0.0673
  115CHL1   C1514714   3.843   3.265  15.872  0.0952  0.5642  0.3996
  115CHL1  H15A14715   3.848   3.367  15.916 -1.3866  0.8101  0.0468
  115CHL1  H15B14716   3.946   3.222  15.864  0.0457  0.1346  1.8935
  115CHL1   C1614717   3.784   3.263  15.732 -0.0537 -0.1277 -0.5444
  115CHL1  H16A14718   3.755   3.365  15.701 -2.6251 -0.2578  1.1541
  115CHL1  H16B14719   3.854   3.220  15.657 -0.3530 -2.1970  0.2963
  115CHL1   C1714720   3.654   3.180  15.739 -0.2374  0.1883  0.4501
  115CHL1   H1714721   3.687   3.074  15.727  0.0881  0.2565  0.7183
  115CHL1   C1314722   3.603   3.192  15.889 -0.5239 -0.6498 -0.1257
  115CHL1   C1814723   3.539   3.334  15.897 -0.6781 -1.2513 -0.6724
  115CHL1  H18A14724   3.513   3.365  16.001  1.4228 -0.9569 -0.1852
  115CHL1  H18B14725   3.602   3.420  15.865 -0.3897 -1.4742 -0.7164
  115CHL1  H18C14726   3.445   3.349  15.841 -0.8911  3.0120  0.4704
  115CHL1   C1214727   3.518   3.083  15.946 -0.1910 -0.4205 -0.2787
  115CHL1  H12A14728   3.413   3.080  15.910 -0.4559  1.5732  0.2031
  115CHL1  H12B14729   3.554   2.981  15.920 -1.0774 -0.5392 -1.1337
  115CHL1   C1114730   3.512   3.091  16.103 -0.5383  0.5907  0.3022
  115CHL1  H11A14731   3.457   3.181  16.137 -0.8825  0.0149  1.3285
  115CHL1  H11B14732   3.468   2.998  16.147  1.7476  0.1772  1.9303
  115CHL1    C914733   3.655   3.105  16.173  0.6579 -0.0895 -0.6026
  115CHL1    H914734   3.712   3.012  16.152 -0.2779 -0.7207 -0.4107
  115CHL1   C1014735   3.662   3.112  16.322 -0.0572  0.5563 -0.9348
  115CHL1   C1914736   3.548   3.210  16.372 -0.2886  0.1330  0.3053
  115CHL1  H19A14737   3.550   3.249  16.476  0.4803 -1.8320  1.0747
  115CHL1  H19B14738   3.549   3.305  16.313 -1.0826 -0.1220 -0.1410
  115CHL1  H19C14739   3.445   3.177  16.347 -0.4880 -0.3253  1.6831
  115CHL1    C114740   3.629   2.970  16.390  0.0545 -0.6590 -0.7553
  115CHL1   H1A14741   3.527   2.935  16.366 -0.0237 -0.8040 -0.2300
  115CHL1   H1B14742   3.704   2.898  16.351  1.5202  0.4717 -0.1407
  115CHL1    C214743   3.637   2.982  16.544 -0.2251  0.1885 -0.4983
  115CHL1   H2A14744   3.630   2.879  16.586  2.2857 -0.0040 -0.3844
  115CHL1   H2B14745   3.551   3.035  16.589 -0.5800  0.9685 -2.0309
  115CHL1   C2014746   3.569   3.220  15.613 -0.4480  0.3268 -0.0436
  115CHL1   H2014747   3.541   3.326  15.631 -1.3436  0.2118 -0.6637
  115CHL1   C2114748   3.446   3.127  15.619  0.1104 -0.5480  0.1443
  115CHL1  H21A14749   3.396   3.117  15.718 -0.4041  1.0547  0.0720
  115CHL1  H21B14750   3.491   3.029  15.591 -0.7599 -0.7884 -0.4514
  115CHL1  H21C14751   3.366   3.147  15.545  0.5715 -3.6376 -1.3793
  115CHL1   C2214752   3.648   3.212  15.477  0.2749 -0.0111 -1.5159
  115CHL1  H22A14753   3.737   3.278  15.469  0.4650 -0.1776 -0.8113
  115CHL1  H22B14754   3.688   3.108  15.481 -1.2320 -0.5642  0.7695
  115CHL1   C2314755   3.562   3.233  15.358  0.4712  0.3333 -0.1484
  115CHL1  H23A14756   3.492   3.150  15.336  0.6386  0.2768 -0.4815
  115CHL1  H23B14757   3.500   3.324  15.376  0.3940  0.3231 -0.3626
  115CHL1   C2414758   3.641   3.246  15.228  0.8132  0.4822 -0.2769
  115CHL1  H24A14759   3.725   3.319  15.238  0.7332  0.3492  1.7738
  115CHL1  H24B14760   3.677   3.146  15.196 -1.0293 -0.6584  1.0459
  115CHL1   C2514761   3.555   3.289  15.107 -0.0150 -0.0848  0.0002
  115CHL1   H2514762   3.461   3.230  15.110 -0.2068  0.1912 -0.5179
  115CHL1   C2614763   3.503   3.436  15.103  0.6226  0.2489 -0.2766
  115CHL1  H26A14764   3.425   3.447  15.182  0.1182 -1.6352 -0.4524
  115CHL1  H26B14765   3.577   3.518  15.116 -0.7870  1.5516 -0.0802
  115CHL1  H26C14766   3.449   3.454  15.007  0.7381 -3.3973 -1.1674
  115CHL1   C2714767   3.624   3.253  14.976 -0.1597 -0.1232 -0.7814
  115CHL1  H27A14768   3.727   3.295  14.980 -0.3033  0.1720  0.1874
  115CHL1  H27B14769   3.635   3.142  14.968  0.0743 -0.1967  0.3511
  115CHL1  H27C14770   3.576   3.297  14.887 -1.3550 -0.0937 -0.1309
  116CHL1    C314771   4.398   3.393  16.530 -0.4054 -0.1003 -0.3069
  116CHL1    H314772   4.392   3.502  16.508 -0.8623 -0.4852 -2.2542
  116CHL1    O314773   4.383   3.373  16.674 -0.1164  0.1300  0.0523
  116CHL1   H3'14774   4.372   3.280  16.691  1.0223  0.2015  1.3245
  116CHL1    C414775   4.283   3.332  16.444 -0.0286  0.3335 -0.7360
  116CHL1   H4A14776   4.280   3.224  16.468  2.1939  0.6721  1.4715
  116CHL1   H4B14777   4.186   3.376  16.474  0.0805  0.5764 -0.7349
  116CHL1    C514778   4.300   3.346  16.293 -0.5291  0.4051  0.2667
  116CHL1    C614779   4.207   3.407  16.216 -0.2347 -0.0433 -0.3383
  116CHL1    H614780   4.111   3.430  16.265  0.6419 -0.1508  1.5368
  116CHL1    C714781   4.223   3.431  16.067  0.1844  0.5269  0.1195
  116CHL1   H7A14782   4.133   3.390  16.016 -0.0800 -2.5454  2.7275
  116CHL1   H7B14783   4.222   3.540  16.048 -2.3680  0.1367 -2.7089
  116CHL1    C814784   4.347   3.359  16.004 -0.1084  0.1408  0.1527
  116CHL1    H814785   4.311   3.255  15.990 -3.9414  0.9194  2.5094
  116CHL1   C1414786   4.371   3.403  15.857 -0.2510  0.6555  0.0391
  116CHL1   H1414787   4.412   3.506  15.864  0.8807  0.6250 -3.7626
  116CHL1   C1514788   4.253   3.417  15.763 -0.4002 -0.5903  0.0363
  116CHL1  H15A14789   4.189   3.327  15.775  2.9994 -3.4370 -1.2721
  116CHL1  H15B14790   4.203   3.511  15.796 -0.8980 -0.8609  0.0595
  116CHL1   C1614791   4.318   3.420  15.617 -0.5722 -0.0572  0.0448
  116CHL1  H16A14792   4.278   3.340  15.550  1.1136  0.4100 -1.6427
  116CHL1  H16B14793   4.303   3.515  15.561 -1.4952 -0.0175  0.3515
  116CHL1   C1714794   4.475   3.400  15.640 -0.6199  0.1233 -0.1730
  116CHL1   H1714795   4.522   3.500  15.650  1.8193 -1.0203  0.5681
  116CHL1   C1314796   4.485   3.333  15.786 -0.1166 -0.3462 -0.8466
  116CHL1   C1814797   4.458   3.187  15.768 -0.1106  0.5362  0.5392
  116CHL1  H18A14798   4.426   3.145  15.866  0.8178  4.0897  2.5259
  116CHL1  H18B14799   4.370   3.175  15.701 -0.1230  1.5545  0.3612
  116CHL1  H18C14800   4.544   3.129  15.727  1.3149  2.3464  0.8499
  116CHL1   C1214801   4.616   3.359  15.873 -0.5475 -0.5268  0.5679
  116CHL1  H12A14802   4.709   3.323  15.824 -1.8225 -0.1395 -2.3603
  116CHL1  H12B14803   4.626   3.470  15.876 -2.7457 -0.2795  0.5514
  116CHL1   C1114804   4.599   3.300  16.015  0.1302 -0.6990  0.6492
  116CHL1  H11A14805   4.596   3.189  16.014  0.4571 -0.7120  0.8279
  116CHL1  H11B14806   4.689   3.327  16.075  1.4216 -2.7108 -0.2894
  116CHL1    C914807   4.473   3.363  16.092  0.4425 -0.2109  0.1785
  116CHL1    H914808   4.491   3.471  16.109 -0.0552 -0.4030  2.2006
  116CHL1   C1014809   4.450   3.316  16.238 -0.0546  0.4273 -0.6860
  116CHL1   C1914810   4.468   3.163  16.250  0.5499 -0.6679  0.7340
  116CHL1  H19A14811   4.445   3.119  16.350  1.0969 -2.6386  0.0410
  116CHL1  H19B14812   4.403   3.118  16.173  0.9642  0.0231 -0.0341
  116CHL1  H19C14813   4.572   3.132  16.226  0.2986 -0.9056 -0.0633
  116CHL1    C114814   4.552   3.387  16.331 -0.1387  1.0216 -0.0960
  116CHL1   H1A14815   4.658   3.366  16.303 -0.6546  0.5312 -1.8008
  116CHL1   H1B14816   4.534   3.497  16.323 -0.4816  0.9719  0.0083
  116CHL1    C214817   4.532   3.349  16.479 -0.0701 -0.2985 -0.8778
  116CHL1   H2A14818   4.620   3.393  16.530 -0.9511  0.6007 -0.0903
  116CHL1   H2B14819   4.551   3.240  16.494  0.1008 -0.0604  0.8107
  116CHL1   C2014820   4.546   3.334  15.517 -0.1509 -0.5250 -0.1144
  116CHL1   H2014821   4.509   3.231  15.502 -0.2730 -1.1062  3.3260
  116CHL1   C2114822   4.696   3.335  15.539 -0.4161  0.9107 -0.2609
  116CHL1  H21A14823   4.744   3.294  15.447  0.7023 -2.6777  1.7091
  116CHL1  H21B14824   4.722   3.268  15.624 -0.1950 -1.2620 -1.9578
  116CHL1  H21C14825   4.724   3.438  15.568 -2.9561  1.8862 -1.0421
  116CHL1   C2214826   4.525   3.421  15.384  0.2282 -0.3024  0.3341
  116CHL1  H22A14827   4.422   3.433  15.345  0.9532 -2.5413 -2.6574
  116CHL1  H22B14828   4.570   3.519  15.410  1.9581 -0.7936 -0.6630
  116CHL1   C2314829   4.589   3.376  15.256 -0.1308  0.2575 -0.4129
  116CHL1  H23A14830   4.698   3.391  15.272 -0.1919 -0.4628  0.8033
  116CHL1  H23B14831   4.580   3.268  15.232  2.2322  0.0343 -0.5108
  116CHL1   C2414832   4.548   3.465  15.138 -0.1967  0.0885 -0.5053
  116CHL1  H24A14833   4.443   3.445  15.107  0.0341 -1.8119 -0.1685
  116CHL1  H24B14834   4.550   3.570  15.175  0.0382  0.1207 -0.6081
  116CHL1   C2514835   4.634   3.451  15.017  0.1117  0.8875  0.0035
  116CHL1   H2514836   4.736   3.471  15.055  0.1348  0.2341  0.2922
  116CHL1   C2614837   4.624   3.298  14.960  0.4909 -0.4464 -0.2104
  116CHL1  H26A14838   4.515   3.283  14.951  0.2866 -0.5513  1.8179
  116CHL1  H26B14839   4.683   3.282  14.868  0.6000  0.5137 -0.3194
  116CHL1  H26C14840   4.663   3.226  15.036 -1.2205 -0.6979  0.4685
  116CHL1   C2714841   4.608   3.556  14.916  0.1147 -0.0579 -0.1024
  116CHL1  H27A14842   4.682   3.532  14.837 -0.0492 -0.3132 -0.1817
  116CHL1  H27B14843   4.509   3.531  14.873  0.2589 -2.0824  0.6347
  116CHL1  H27C14844   4.629   3.656  14.958  0.1654  0.1945 -0.7119
  117CHL1    C314845   4.737   2.865  16.432 -0.3043 -0.2371  0.4146
  117CHL1    H314846   4.691   2.965  16.419  2.5219  0.9645 -1.3537
  117CHL1    O314847   4.722   2.821  16.565 -0.4361  0.6080  0.1154
  117CHL1   H3'14848   4.788   2.754  16.582 -0.7842 -0.3868 -2.1238
  117CHL1    C414849   4.657   2.769  16.340 -1.0249 -0.1428 -0.1754
  117CHL1   H4A14850   4.670   2.666  16.377 -2.6087 -0.2285  0.1977
  117CHL1   H4B14851   4.553   2.798  16.364 -0.7384  1.9491 -1.1603
  117CHL1    C514852   4.677   2.797  16.194 -0.5505  0.1579  0.1719
  117CHL1    C614853   4.574   2.813  16.111  0.1210 -0.1487 -0.0405
  117CHL1    H614854   4.476   2.809  16.161  0.0449  2.4526  0.1845
  117CHL1    C714855   4.568   2.837  15.962 -0.6801 -0.0232 -0.3042
  117CHL1   H7A14856   4.491   2.770  15.918 -0.9649 -0.7221  1.2199
  117CHL1   H7B14857   4.530   2.940  15.943 -0.8163  0.8292  3.7040
  117CHL1    C814858   4.714   2.810  15.910 -0.1468 -0.1999  1.5238
  117CHL1    H814859   4.711   2.700  15.894 -0.8813 -0.2346  1.8457
  117CHL1   C1414860   4.721   2.877  15.776 -0.1119  0.1631 -0.0693
  117CHL1   H1414861   4.710   2.986  15.793  2.4718  0.4262  0.2525
  117CHL1   C1514862   4.609   2.854  15.674  0.4000  0.2206  0.3903
  117CHL1  H15A14863   4.593   2.745  15.657  0.3883  0.1031  1.1175
  117CHL1  H15B14864   4.516   2.909  15.699  0.4095  0.6437 -0.4872
  117CHL1   C1614865   4.668   2.893  15.536 -0.2812 -0.0422 -0.4673
  117CHL1  H16A14866   4.673   2.806  15.467  0.7263 -0.7876  0.5149
  117CHL1  H16B14867   4.626   2.984  15.488 -0.9526 -0.8596 -1.4578
  117CHL1   C1714868   4.824   2.932  15.572  0.0357 -0.0217  0.0152
  117CHL1   H1714869   4.819   3.038  15.603  0.5225 -0.6589  2.4432
  117CHL1   C1314870   4.849   2.856  15.703 -0.4283  0.4611  0.5984
  117CHL1   C1814871   4.861   2.699  15.676  0.4466  0.4588 -0.3855
  117CHL1  H18A14872   4.885   2.645  15.770 -0.5220 -1.0882 -0.9894
  117CHL1  H18B14873   4.777   2.644  15.628 -0.4789  1.3839  0.1457
  117CHL1  H18C14874   4.949   2.673  15.612  1.3474  0.0074  0.9909
  117CHL1   C1214875   4.963   2.917  15.794  0.0166  0.5642  0.7166
  117CHL1  H12A14876   5.065   2.893  15.758  0.5784  0.6469  2.1872
  117CHL1  H12B14877   4.935   3.024  15.806 -0.2427  0.5874 -0.0631
  117CHL1   C1114878   4.961   2.855  15.934  0.4752 -0.0129 -0.3693
  117CHL1  H11A14879   4.997   2.750  15.936 -2.0371 -0.9263  0.6399
  117CHL1  H11B14880   5.031   2.908  16.002  0.9307 -0.3507 -0.5669
  117CHL1    C914881   4.822   2.867  15.999  0.2273  0.7566 -0.6213
  117CHL1    H914882   4.800   2.976  16.003 -2.2730  0.3004 -0.2397
  117CHL1   C1014883   4.811   2.812  16.145  0.3162 -0.0056 -0.6413
  117CHL1   C1914884   4.873   2.669  16.146  0.0068  0.5927 -0.0468
  117CHL1  H19A14885   4.827   2.610  16.064  0.8357  0.4134 -0.3928
  117CHL1  H19B14886   4.982   2.681  16.129 -0.1917  3.5444  0.1890
  117CHL1  H19C14887   4.860   2.614  16.241 -0.1801  1.6701  0.5764
  117CHL1    C114888   4.900   2.902  16.241  0.7937  0.1342 -0.0795
  117CHL1   H1A14889   5.009   2.892  16.223  0.5657 -1.0989 -0.8819
  117CHL1   H1B14890   4.864   3.007  16.246  0.1500 -0.0366 -0.9169
  117CHL1    C214891   4.885   2.861  16.394 -0.1729  0.0756  0.2869
  117CHL1   H2A14892   4.949   2.921  16.463 -0.0547 -0.7187  0.8845
  117CHL1   H2B14893   4.918   2.755  16.398  0.4465  0.2537  0.0212
  117CHL1   C2014894   4.917   2.921  15.454 -0.5749 -1.1456  0.6476
  117CHL1   H2014895   4.933   2.815  15.424  0.7774 -0.0731 -2.9887
  117CHL1   C2114896   5.055   2.971  15.492 -0.2651  0.0579 -0.7229
  117CHL1  H21A14897   5.119   2.986  15.403 -1.2363  0.3705 -1.3854
  117CHL1  H21B14898   5.109   2.895  15.552 -0.3049  0.6525  0.0883
  117CHL1  H21C14899   5.046   3.064  15.552 -0.2575  0.2154 -0.9668
  117CHL1   C2214900   4.873   2.998  15.322 -0.2168  0.1975  0.1189
  117CHL1  H22A14901   4.775   3.050  15.325  0.6880  2.0448 -0.6094
  117CHL1  H22B14902   4.942   3.084  15.311  0.6006 -0.4338  0.2056
  117CHL1   C2314903   4.875   2.898  15.201  0.2898  0.3108 -0.4376
  117CHL1  H23A14904   4.976   2.853  15.202 -0.6566 -1.9660  0.8222
  117CHL1  H23B14905   4.804   2.818  15.232  1.2600 -1.0339 -1.5736
  117CHL1   C2414906   4.813   2.959  15.070 -0.7251  0.0410 -0.3175
  117CHL1  H24A14907   4.708   2.983  15.098 -1.0798 -1.3094 -0.4225
  117CHL1  H24B14908   4.873   3.052  15.058  0.7028 -0.7309  0.5673
  117CHL1   C2514909   4.839   2.873  14.945  0.0731  0.0359  0.4093
  117CHL1   H2514910   4.950   2.878  14.947  0.0145  1.4007  0.8047
  117CHL1   C2614911   4.781   2.729  14.957 -0.6130  0.3398 -0.8241
  117CHL1  H26A14912   4.673   2.741  14.976 -0.5092 -1.0122  0.8453
  117CHL1  H26B14913   4.799   2.672  14.863 -3.9920  1.6108 -2.4162
  117CHL1  H26C14914   4.838   2.682  15.040 -1.2754 -0.2695 -0.7036
  117CHL1   C2714915   4.779   2.950  14.818 -0.6333 -0.0370 -0.6739
  117CHL1  H27A14916   4.787   2.879  14.733 -0.9945  2.1056 -2.5872
  117CHL1  H27B14917   4.673   2.972  14.841 -0.3403  0.4404  0.2571
  117CHL1  H27C14918   4.831   3.041  14.783  1.1894 -0.8273 -0.1449
  118CHL1    C314919   1.104   5.024  17.357  0.2181 -0.0779  0.4951
  118CHL1    H314920   1.128   4.915  17.363 -0.3187 -0.2671 -0.5541
  118CHL1    O314921   1.114   5.077  17.489  0.1327  0.2834 -0.2550
  118CHL1   H3'14922   1.137   5.170  17.486  0.6165  0.2185  0.9562
  118CHL1    C414923   1.227   5.080  17.285  0.0108  0.7667  0.0555
  118CHL1   H4A14924   1.241   5.186  17.314  1.6203  0.3500  0.9188
  118CHL1   H4B14925   1.310   5.016  17.323 -0.0693  0.3739 -0.4099
  118CHL1    C514926   1.222   5.056  17.135 -0.0003  0.0506 -0.0957
  118CHL1    C614927   1.329   5.015  17.072  0.3623 -0.7102 -0.2178
  118CHL1    H614928   1.420   4.997  17.131  0.2692 -1.0933 -0.1892
  118CHL1    C714929   1.347   4.997  16.923 -0.4287 -0.2803 -0.3784
  118CHL1   H7A14930   1.447   5.034  16.890 -0.6977  0.7317 -0.0896
  118CHL1   H7B14931   1.334   4.890  16.897 -2.9591  0.2553 -1.6657
  118CHL1    C814932   1.231   5.061  16.840 -0.2601  0.7998  0.0790
  118CHL1    H814933   1.254   5.169  16.850  1.6195  0.4226  0.2405
  118CHL1   C1414934   1.237   5.021  16.699  0.5988  0.2644  0.0501
  118CHL1   H1414935   1.218   4.912  16.699 -0.1449  0.3861 -0.2117
  118CHL1   C1514936   1.366   5.026  16.622  0.3742  0.3970  0.3161
  118CHL1  H15A14937   1.424   5.116  16.651  0.9867  0.7526 -1.8410
  118CHL1  H15B14938   1.420   4.933  16.650 -1.9553 -1.9392 -2.3417
  118CHL1   C1614939   1.324   5.042  16.476  0.7995  0.2789  0.0331
  118CHL1  H16A14940   1.373   5.137  16.447  0.7725  1.1323  2.5216
  118CHL1  H16B14941   1.357   4.961  16.408  1.4538 -0.1700  0.8567
  118CHL1   C1714942   1.173   5.046  16.473  0.0602 -1.0877 -0.0772
  118CHL1   H1714943   1.144   4.940  16.461  1.7090 -1.5283 -0.3498
  118CHL1   C1314944   1.126   5.084  16.614 -0.0454  0.3921  0.1415
  118CHL1   C1814945   1.140   5.237  16.622  0.4435  0.6063 -0.3232
  118CHL1  H18A14946   1.240   5.278  16.596  0.1438  1.3410 -0.3467
  118CHL1  H18B14947   1.058   5.282  16.562 -0.1897 -1.7031 -1.3099
  118CHL1  H18C14948   1.118   5.262  16.728  1.6069 -2.4935  0.7509
  118CHL1   C1214949   0.994   5.034  16.668  0.5065  0.5479  0.1248
  118CHL1  H12A14950   0.921   5.086  16.602  1.1845 -0.3802 -1.4377
  118CHL1  H12B14951   0.996   4.924  16.649 -0.7095  0.4731  0.3329
  118CHL1   C1114952   0.977   5.072  16.819  0.0089  0.5061  0.3311
  118CHL1  H11A14953   0.958   5.181  16.827  1.5704  1.0043 -1.8923
  118CHL1  H11B14954   0.884   5.020  16.854  0.2459 -1.3443 -1.5966
  118CHL1    C914955   1.097   5.027  16.911 -0.3196 -0.4738 -0.6158
  118CHL1    H914956   1.091   4.917  16.919  0.6266 -0.5532 -0.7741
  118CHL1   C1014957   1.090   5.080  17.058  1.1100 -0.1427  0.7432
  118CHL1   C1914958   1.071   5.231  17.052 -0.2477 -0.8226  0.2074
  118CHL1  H19A14959   0.986   5.267  16.991  0.7167  2.4847  0.5959
  118CHL1  H19B14960   1.058   5.276  17.153 -0.2032 -0.9510  0.2691
  118CHL1  H19C14961   1.156   5.288  17.009 -2.7569  1.9759 -1.4486
  118CHL1    C114962   0.974   5.011  17.137 -0.2628 -0.1296 -0.0454
  118CHL1   H1A14963   0.879   5.042  17.089  0.0681 -0.8482 -1.2215
  118CHL1   H1B14964   0.994   4.902  17.134  1.1860 -0.0541  3.0637
  118CHL1    C214965   0.972   5.051  17.287  1.4615  0.4989  0.7875
  118CHL1   H2A14966   0.888   5.002  17.340  1.6257  0.4653  1.0199
  118CHL1   H2B14967   0.959   5.161  17.289 -2.4064  0.2111 -0.7637
  118CHL1   C2014968   1.127   5.122  16.347 -0.0253  0.0647 -0.1744
  118CHL1   H2014969   1.148   5.228  16.376 -0.5701  0.0074  0.4447
  118CHL1   C2114970   0.973   5.097  16.336 -0.1346 -0.4272 -0.2020
  118CHL1  H21A14971   0.922   5.167  16.406 -0.5581 -0.8220 -0.1103
  118CHL1  H21B14972   0.949   4.993  16.367  0.8109 -1.2283 -2.0200
  118CHL1  H21C14973   0.934   5.101  16.232 -0.0937 -0.9079 -0.2429
  118CHL1   C2214974   1.201   5.103  16.215  0.6292  0.0538  0.5567
  118CHL1  H22A14975   1.155   5.171  16.140 -1.1506  0.3711  1.8679
  118CHL1  H22B14976   1.308   5.131  16.220  0.9669 -1.1071  0.0628
  118CHL1   C2314977   1.170   4.971  16.147  0.5434 -0.3801 -0.2066
  118CHL1  H23A14978   1.188   4.888  16.219  3.5262  1.1816  1.0427
  118CHL1  H23B14979   1.063   4.977  16.117  1.1231  1.7718 -2.0984
  118CHL1   C2414980   1.254   4.944  16.019 -0.2039  0.1635  0.0242
  118CHL1  H24A14981   1.362   4.952  16.046 -0.8086 -0.9379  3.2306
  118CHL1  H24B14982   1.243   4.838  15.989 -1.3439 -0.3098  1.9285
  118CHL1   C2514983   1.239   5.042  15.910  1.2962 -0.1105 -0.1739
  118CHL1   H2514984   1.253   5.144  15.953 -2.4786 -0.8225  3.4356
  118CHL1   C2614985   1.352   5.020  15.805 -0.3717  0.4539  0.9039
  118CHL1  H26A14986   1.357   5.103  15.731 -0.8761 -0.6702 -0.4369
  118CHL1  H26B14987   1.457   5.019  15.842  0.6857  3.3767 -1.5463
  118CHL1  H26C14988   1.328   4.929  15.747 -2.2588  0.6950  1.2516
  118CHL1   C2714989   1.096   5.038  15.848 -0.1189  0.0683  0.5428
  118CHL1  H27A14990   1.071   5.106  15.764 -0.1194 -3.9017 -3.0096
  118CHL1  H27B14991   1.076   4.930  15.828  1.4924  0.0408 -1.2518
  118CHL1  H27C14992   1.030   5.065  15.933  0.8439 -0.1735  1.3779
  119CHL1    C314993   2.647   3.127  17.399 -0.5358 -0.9426 -1.0442
  119CHL1    H314994   2.608   3.023  17.394 -1.0583 -0.7398 -1.3133
  119CHL1    O314995   2.663   3.177  17.533  0.2288 -0.2336 -0.3488
  119CHL1   H3'14996   2.575   3.180  17.572 -0.9858  1.0405 -2.9704
  119CHL1    C414997   2.778   3.151  17.324 -0.4388  0.3993 -0.2437
  119CHL1   H4A14998   2.825   3.250  17.346  0.4987  0.2120 -1.2712
  119CHL1   H4B14999   2.849   3.073  17.358 -0.1045  0.9614  0.3681
  119CHL1    C515000   2.763   3.144  17.171 -0.0520 -0.1761 -0.3398
  119CHL1    C615001   2.836   3.059  17.098 -0.3807 -0.4189 -0.0821
  119CHL1    H615002   2.916   3.006  17.151  0.8904  2.2078  0.8214
  119CHL1    C715003   2.832   3.051  16.953  0.3501  0.8991 -0.4663
  119CHL1   H7A15004   2.935   3.037  16.914 -0.1363 -1.1940 -1.1702
  119CHL1   H7B15005   2.782   2.958  16.916  1.8515 -0.2491  0.2792
  119CHL1    C815006   2.758   3.170  16.885  0.3737  1.1990  0.3743
  119CHL1    H815007   2.835   3.249  16.876  1.8770 -0.2646  0.0620
  119CHL1   C1415008   2.734   3.139  16.738  0.0097 -0.0291  0.3183
  119CHL1   H1415009   2.665   3.053  16.750  1.6424 -1.5551 -0.7445
  119CHL1   C1515010   2.851   3.093  16.652  0.1043  0.3350 -0.5299
  119CHL1  H15A15011   2.941   3.154  16.672  0.3576 -0.6436  1.5796
  119CHL1  H15B15012   2.880   2.988  16.673 -0.0263  0.1170 -1.4020
  119CHL1   C1615013   2.798   3.103  16.507  0.2235 -0.8147  0.3597
  119CHL1  H16A15014   2.867   3.174  16.455  1.0252  0.6525  3.2244
  119CHL1  H16B15015   2.797   3.000  16.466  0.1160 -0.6036 -0.1793
  119CHL1   C1715016   2.655   3.175  16.515  0.0778 -0.0995 -0.3350
  119CHL1   H1715017   2.588   3.087  16.528  1.7722 -1.3237  0.5275
  119CHL1   C1315018   2.668   3.251  16.648  0.4463 -0.2283 -0.1338
  119CHL1   C1815019   2.763   3.372  16.634 -0.6280  0.5741  0.3718
  119CHL1  H18A15020   2.867   3.353  16.601 -1.1643 -0.9678 -0.5571
  119CHL1  H18B15021   2.710   3.446  16.570 -0.7830  1.6788  1.7274
  119CHL1  H18C15022   2.772   3.421  16.733  0.7825 -1.6364  1.4055
  119CHL1   C1215023   2.536   3.278  16.724 -0.0407  0.6244 -0.3893
  119CHL1  H12A15024   2.475   3.355  16.671 -0.7104  1.0384  0.9452
  119CHL1  H12B15025   2.487   3.178  16.723 -2.1483  1.5951 -1.5677
  119CHL1   C1115026   2.556   3.312  16.873 -0.0319  0.8299  0.3187
  119CHL1  H11A15027   2.625   3.399  16.872  0.5508  0.3901  1.0210
  119CHL1  H11B15028   2.455   3.348  16.904 -0.6910 -0.0399 -0.7581
  119CHL1    C915029   2.626   3.198  16.958  0.4832  0.3269 -0.6593
  119CHL1    H915030   2.566   3.105  16.948  1.1279 -0.2400  0.5082
  119CHL1   C1015031   2.645   3.230  17.110  0.0347  0.8160  0.0077
  119CHL1   C1915032   2.678   3.381  17.126  0.7822 -0.3022 -0.9780
  119CHL1  H19A15033   2.763   3.400  17.058  0.7879 -2.0686 -1.5166
  119CHL1  H19B15034   2.595   3.450  17.099  2.0316  0.6876 -2.4165
  119CHL1  H19C15035   2.713   3.401  17.230 -1.2806  0.6977 -0.4253
  119CHL1    C115036   2.519   3.197  17.183 -0.1894  0.1157 -0.1550
  119CHL1   H1A15037   2.443   3.266  17.141 -0.1036 -0.1331 -0.7233
  119CHL1   H1B15038   2.470   3.100  17.163 -0.8859  0.4382 -0.0265
  119CHL1    C215039   2.530   3.208  17.337 -0.6388 -0.2209  0.4659
  119CHL1   H2A15040   2.436   3.170  17.383  0.1333 -0.0580  2.2173
  119CHL1   H2B15041   2.543   3.315  17.364  2.9240 -1.2580  3.4910
  119CHL1   C2015042   2.605   3.246  16.386 -0.8417  0.3008 -0.1361
  119CHL1   H2015043   2.640   3.352  16.393 -1.9497  0.6251  0.7412
  119CHL1   C2115044   2.452   3.249  16.386 -0.9374 -0.2532  0.1990
  119CHL1  H21A15045   2.436   3.318  16.472  1.4827  0.0967  0.4522
  119CHL1  H21B15046   2.421   3.144  16.401 -0.3150 -1.0839 -3.4020
  119CHL1  H21C15047   2.416   3.298  16.293  0.3426  1.7217  0.6787
  119CHL1   C2215048   2.672   3.190  16.258 -0.3282  0.3539 -0.2322
  119CHL1  H22A15049   2.782   3.184  16.277 -0.7782 -1.1356  2.4161
  119CHL1  H22B15050   2.633   3.086  16.248 -1.0105  0.5023  0.7333
  119CHL1   C2315051   2.643   3.262  16.132  0.3477 -0.2834  0.2903
  119CHL1  H23A15052   2.532   3.268  16.136  0.4008  0.5385  0.6318
  119CHL1  H23B15053   2.679   3.367  16.136 -1.8027  0.4603  1.3607
  119CHL1   C2415054   2.704   3.193  16.005  0.3176  0.3522 -0.5894
  119CHL1  H24A15055   2.814   3.189  16.018  0.0942 -2.8309  1.3632
  119CHL1  H24B15056   2.663   3.089  16.004 -0.4914  0.6671 -1.6453
  119CHL1   C2515057   2.678   3.260  15.871  0.1344  0.1529 -0.3925
  119CHL1   H2515058   2.763   3.332  15.871  1.7662 -1.6269  2.0015
  119CHL1   C2615059   2.688   3.160  15.756  0.5174 -0.4287  0.0838
  119CHL1  H26A15060   2.599   3.093  15.767 -1.1961  1.8619  0.8589
  119CHL1  H26B15061   2.679   3.215  15.660  1.9644  0.0430  0.1966
  119CHL1  H26C15062   2.780   3.098  15.751  0.3412 -0.9097  1.9849
  119CHL1   C2715063   2.552   3.337  15.845 -0.1472  0.0523 -0.2288
  119CHL1  H27A15064   2.466   3.268  15.828  0.6165 -0.8643 -0.4594
  119CHL1  H27B15065   2.532   3.410  15.926 -0.3662  1.8935 -1.8552
  119CHL1  H27C15066   2.560   3.393  15.749  1.2742 -2.3786 -1.6443
  120CHL1    C315067   0.244   3.362  17.450 -0.8791  0.0153  1.1379
  120CHL1    H315068   0.142   3.355  17.407 -0.6671  1.7622  0.2606
  120CHL1    O315069   0.244   3.377  17.589  0.8568  0.3308 -0.3048
  120CHL1   H3'15070   0.336   3.394  17.610  0.8837  2.5898 -1.8876
  120CHL1    C415071   0.321   3.232  17.420 -0.1256 -0.4866 -0.1647
  120CHL1   H4A15072   0.420   3.232  17.470  0.5457 -2.8304 -1.3668
  120CHL1   H4B15073   0.262   3.154  17.472 -0.7485 -0.0092 -0.1424
  120CHL1    C515074   0.339   3.204  17.274  0.3331  0.7257 -0.1601
  120CHL1    C615075   0.300   3.090  17.220  0.0868 -0.1311  0.0851
  120CHL1    H615076   0.253   3.013  17.283  0.4211  0.6045  1.2715
  120CHL1    C715077   0.311   3.052  17.078  0.2321  0.1296  0.3978
  120CHL1   H7A15078   0.370   2.959  17.081  0.3929  0.1428 -1.2243
  120CHL1   H7B15079   0.213   3.026  17.032  2.0052 -1.0051 -3.1451
  120CHL1    C815080   0.385   3.151  16.984 -0.4364  0.5293  0.4105
  120CHL1    H815081   0.495   3.135  16.992 -0.5916 -0.6743  0.3197
  120CHL1   C1415082   0.341   3.135  16.841  0.0970  0.3444  0.6370
  120CHL1   H1415083   0.237   3.172  16.844  0.6843  2.2207 -0.2278
  120CHL1   C1515084   0.346   2.996  16.783  0.0428 -0.0263 -0.4933
  120CHL1  H15A15085   0.445   2.954  16.811 -1.0064 -0.5549  3.0261
  120CHL1  H15B15086   0.258   2.936  16.817  0.9915 -0.2996  1.6643
  120CHL1   C1615087   0.348   3.022  16.631  0.5066  0.1216 -0.4496
  120CHL1  H16A15088   0.446   2.996  16.585  0.7189 -0.2045  0.1761
  120CHL1  H16B15089   0.257   2.975  16.587  1.4491 -0.3354 -2.0245
  120CHL1   C1715090   0.340   3.179  16.607  0.3984  0.5136  0.3446
  120CHL1   H1715091   0.232   3.206  16.604 -0.2161 -1.7955 -0.0425
  120CHL1   C1315092   0.409   3.229  16.737 -0.6684 -0.6584  0.5508
  120CHL1   C1815093   0.562   3.209  16.730  0.9059 -0.0359  0.2352
  120CHL1  H18A15094   0.586   3.105  16.698 -2.1759 -0.5229 -0.8556
  120CHL1  H18B15095   0.612   3.284  16.666  1.3261  0.1635  0.7888
  120CHL1  H18C15096   0.602   3.227  16.832 -0.5303  1.7099  0.5359
  120CHL1   C1215097   0.377   3.375  16.789  0.0208  0.0782 -0.2777
  120CHL1  H12A15098   0.422   3.461  16.735  1.0767 -0.6713 -0.6261
  120CHL1  H12B15099   0.267   3.387  16.790  0.0419  0.2817  1.3577
  120CHL1   C1115100   0.426   3.391  16.939  0.2760 -0.0759 -0.0173
  120CHL1  H11A15101   0.535   3.374  16.951  0.7971  1.7140 -1.6704
  120CHL1  H11B15102   0.411   3.498  16.966 -1.1394 -0.3414  0.3257
  120CHL1    C915103   0.355   3.294  17.036 -0.5131 -0.4745  0.9557
  120CHL1    H915104   0.246   3.308  17.021 -0.6390 -1.0361  1.3384
  120CHL1   C1015105   0.391   3.315  17.186 -0.4251  0.3335 -0.0599
  120CHL1   C1915106   0.544   3.321  17.198 -0.0985 -0.2065 -0.0125
  120CHL1  H19A15107   0.594   3.408  17.148 -1.1769 -0.4442 -1.5975
  120CHL1  H19B15108   0.577   3.332  17.303 -1.5120 -0.1221  0.4477
  120CHL1  H19C15109   0.600   3.231  17.165 -0.1505  0.6271 -2.6199
  120CHL1    C115110   0.331   3.455  17.228 -0.2805  0.7084  0.3803
  120CHL1   H1A15111   0.402   3.525  17.180  1.3721 -0.7241  0.6513
  120CHL1   H1B15112   0.231   3.474  17.184  0.8410  3.9810 -1.0320
  120CHL1    C215113   0.326   3.478  17.379  0.0985  1.0829 -1.0077
  120CHL1   H2A15114   0.290   3.579  17.408 -0.9920  0.2115  0.8671
  120CHL1   H2B15115   0.427   3.474  17.423 -1.0727 -0.9657  1.8698
  120CHL1   C2015116   0.393   3.224  16.471  0.4413  0.6174  0.2492
  120CHL1   H2015117   0.485   3.175  16.433 -0.9651 -0.9383 -1.3508
  120CHL1   C2115118   0.404   3.378  16.470 -0.2884 -0.7784  0.0638
  120CHL1  H21A15119   0.326   3.435  16.524  2.5417  1.7235  1.8337
  120CHL1  H21B15120   0.416   3.424  16.370 -2.6919  1.8936  0.8813
  120CHL1  H21C15121   0.504   3.397  16.515 -0.0248  2.9742 -1.7807
  120CHL1   C2215122   0.301   3.168  16.358  0.7579  0.4046  0.6356
  120CHL1  H22A15123   0.267   3.065  16.381 -0.4288  0.4519 -0.7448
  120CHL1  H22B15124   0.211   3.233  16.367 -0.1258 -0.7187  0.1859
  120CHL1   C2315125   0.373   3.160  16.216 -0.5089 -0.0068  0.0246
  120CHL1  H23A15126   0.435   3.251  16.200 -0.4437  0.0486  0.5754
  120CHL1  H23B15127   0.438   3.072  16.230  0.5960  0.3945 -2.1592
  120CHL1   C2415128   0.273   3.147  16.098 -0.2710 -0.0892 -0.6695
  120CHL1  H24A15129   0.232   3.044  16.101  0.7644 -0.4954  0.5801
  120CHL1  H24B15130   0.188   3.216  16.112  0.2151  0.4537 -0.3246
  120CHL1   C2515131   0.336   3.145  15.955  0.3750 -0.2293  0.5467
  120CHL1   H2515132   0.387   3.243  15.940  0.1525 -0.2373 -0.3305
  120CHL1   C2615133   0.442   3.039  15.941 -0.3242  0.7050  0.1388
  120CHL1  H26A15134   0.520   3.049  16.020  0.0302 -1.3773  0.1240
  120CHL1  H26B15135   0.409   2.933  15.934  0.0343  0.6740 -1.6290
  120CHL1  H26C15136   0.495   3.050  15.844 -0.4371 -1.2416 -0.1872
  120CHL1   C2715137   0.234   3.121  15.842 -0.0325 -0.3716  0.1739
  120CHL1  H27A15138   0.155   3.199  15.841  1.5684  1.3087  0.3756
  120CHL1  H27B15139   0.275   3.123  15.738 -0.5668  1.9314 -0.0379
  120CHL1  H27C15140   0.184   3.022  15.844  0.5948 -0.7165 -0.4467
  121CHL1    C315141   3.348   0.595  13.162  0.0354 -0.4574 -0.1468
  121CHL1    H315142   3.387   0.696  13.185  0.6647 -0.5427 -0.7860
  121CHL1    O315143   3.349   0.591  13.018  0.3382  0.0856  0.3399
  121CHL1   H3'15144   3.304   0.514  12.983  0.6100  0.3425 -0.6083
  121CHL1    C415145   3.446   0.497  13.228 -0.0116 -0.5064 -0.0732
  121CHL1   H4A15146   3.422   0.392  13.199 -1.4487  0.3411 -2.2372
  121CHL1   H4B15147   3.543   0.520  13.177 -0.5108 -1.3532 -1.4623
  121CHL1    C515148   3.446   0.514  13.379  0.6257  0.1986  0.3726
  121CHL1    C615149   3.546   0.565  13.452 -0.7053  0.2561  0.0601
  121CHL1    H615150   3.641   0.591  13.404 -0.6624  1.5425  0.8180
  121CHL1    C715151   3.547   0.580  13.597  0.6944 -0.7201  0.7124
  121CHL1   H7A15152   3.637   0.532  13.641  0.1742 -1.2486  1.2205
  121CHL1   H7B15153   3.551   0.686  13.630  0.7465 -1.0769  1.8895
  121CHL1    C815154   3.434   0.509  13.668  0.3611 -0.2310 -0.4803
  121CHL1    H815155   3.446   0.400  13.655 -0.6026 -0.3161 -0.7303
  121CHL1   C1415156   3.429   0.539  13.818  0.2827  0.2456 -0.5069
  121CHL1   H1415157   3.403   0.646  13.830 -2.4206 -0.5505  1.6815
  121CHL1   C1515158   3.556   0.513  13.902 -0.2107 -0.6690  0.0702
  121CHL1  H15A15159   3.590   0.408  13.888  0.4424 -0.3864 -0.5405
  121CHL1  H15B15160   3.640   0.584  13.884  0.4906 -1.7280 -1.0362
  121CHL1   C1615161   3.506   0.535  14.042 -0.2888  0.1898 -0.1441
  121CHL1  H16A15162   3.549   0.459  14.111 -1.0022  0.4531  0.6049
  121CHL1  H16B15163   3.538   0.632  14.085 -2.6505 -0.0440  2.3782
  121CHL1   C1715164   3.347   0.525  14.032  0.5213  0.5695  0.2986
  121CHL1   H1715165   3.319   0.632  14.037 -2.9348 -0.1477 -0.9775
  121CHL1   C1315166   3.316   0.466  13.889 -0.3717 -0.7791 -0.2083
  121CHL1   C1815167   3.337   0.310  13.872 -0.5476 -0.4713  0.2733
  121CHL1  H18A15168   3.426   0.283  13.933 -0.7225 -2.4824 -0.3116
  121CHL1  H18B15169   3.258   0.250  13.922 -1.4349  0.2321 -0.2505
  121CHL1  H18C15170   3.353   0.267  13.771 -1.7186  0.1191 -0.1797
  121CHL1   C1215171   3.188   0.521  13.828 -0.1182  0.1733  0.9843
  121CHL1  H12A15172   3.097   0.479  13.876  0.1926 -1.1388  0.4569
  121CHL1  H12B15173   3.197   0.632  13.838  2.3550  0.0826  0.4112
  121CHL1   C1115174   3.176   0.483  13.674  0.2716  0.5738 -0.6323
  121CHL1  H11A15175   3.173   0.373  13.663  0.1797  0.4351  0.6512
  121CHL1  H11B15176   3.087   0.526  13.622 -1.1965  0.6016  1.7651
  121CHL1    C915177   3.301   0.539  13.592 -0.2285 -0.3612  0.4303
  121CHL1    H915178   3.294   0.649  13.581 -1.2065 -0.4270  0.3642
  121CHL1   C1015179   3.303   0.495  13.438  0.2116  0.1524 -0.4753
  121CHL1   C1915180   3.266   0.346  13.435  0.0979  0.3449 -0.6599
  121CHL1  H19A15181   3.321   0.278  13.504 -0.3844 -0.1750 -0.7743
  121CHL1  H19B15182   3.160   0.338  13.467  0.2483 -0.7777 -0.3802
  121CHL1  H19C15183   3.290   0.305  13.334  1.0017  1.6114 -0.9826
  121CHL1    C115184   3.200   0.579  13.366  0.7504 -0.0011 -0.0271
  121CHL1   H1A15185   3.100   0.549  13.404 -1.0190  1.0868 -3.4093
  121CHL1   H1B15186   3.215   0.684  13.398 -2.7773  0.4602  0.5234
  121CHL1    C215187   3.205   0.570  13.217 -0.0130  0.3982 -0.1680
  121CHL1   H2A15188   3.132   0.647  13.184  0.2667  0.0110 -1.7864
  121CHL1   H2B15189   3.182   0.466  13.183  2.1871 -0.1825 -0.0575
  121CHL1   C2015190   3.293   0.450  14.156 -0.3796 -0.5198  0.0319
  121CHL1   H2015191   3.333   0.346  14.158  1.7312  0.1998 -1.3951
  121CHL1   C2115192   3.139   0.443  14.141  0.3047 -0.0549 -0.2214
  121CHL1  H21A15193   3.095   0.543  14.120  0.8495  0.4085  0.7646
  121CHL1  H21B15194   3.093   0.397  14.231  2.0361 -2.3312 -0.3967
  121CHL1  H21C15195   3.111   0.381  14.054 -2.8739 -0.0253  0.6665
  121CHL1   C2215196   3.326   0.535  14.290  0.0347  0.6849  1.0940
  121CHL1  H22A15197   3.435   0.554  14.294 -0.0279  1.1321  0.7916
  121CHL1  H22B15198   3.276   0.634  14.281  1.0615  1.0341 -2.1786
  121CHL1   C2315199   3.274   0.464  14.413 -0.9494 -0.1817 -0.0414
  121CHL1  H23A15200   3.163   0.463  14.404 -0.9169  1.9027 -1.3195
  121CHL1  H23B15201   3.311   0.360  14.418  2.0189  0.5950 -2.8214
  121CHL1   C2415202   3.315   0.542  14.543  0.4387  0.1269 -0.0883
  121CHL1  H24A15203   3.423   0.523  14.558  0.3312  0.2422  0.8713
  121CHL1  H24B15204   3.291   0.650  14.527  0.1807  0.1732  0.6097
  121CHL1   C2515205   3.220   0.500  14.658  0.6431 -0.0785 -0.7872
  121CHL1   H2515206   3.135   0.568  14.638  2.0476  1.5141 -1.5380
  121CHL1   C2615207   3.202   0.350  14.658  0.7009  0.1759  0.3618
  121CHL1  H26A15208   3.139   0.312  14.575 -0.7038 -0.1225  1.5325
  121CHL1  H26B15209   3.300   0.297  14.663 -0.3173 -1.7982  0.3649
  121CHL1  H26C15210   3.144   0.326  14.750 -3.3003  3.0439 -1.1674
  121CHL1   C2715211   3.282   0.548  14.797  1.2291 -0.5254  0.4435
  121CHL1  H27A15212   3.362   0.477  14.825  0.4870 -1.2125  0.8476
  121CHL1  H27B15213   3.319   0.653  14.788 -1.6998  0.5957  0.3044
  121CHL1  H27C15214   3.209   0.547  14.880  1.7592  1.2150  0.9857
  122CHL1    C315215   6.581   0.707  13.752 -0.2619  0.5930  0.3477
  122CHL1    H315216   6.478   0.746  13.766 -1.1499 -2.2282  2.5698
  122CHL1    O315217   6.593   0.652  13.622 -0.6609  0.2917  0.0512
  122CHL1   H3'15218   6.669   0.593  13.625 -0.2544  0.8401  1.4312
  122CHL1    C415219   6.688   0.814  13.774  0.3959 -0.1405 -0.8272
  122CHL1   H4A15220   6.786   0.764  13.757  0.6130  0.0859 -0.2892
  122CHL1   H4B15221   6.664   0.897  13.705 -1.8083 -0.7491 -0.8690
  122CHL1    C515222   6.691   0.861  13.922  0.1810  0.2653 -0.3301
  122CHL1    C615223   6.685   0.991  13.952  0.1279  0.1099  0.1769
  122CHL1    H615224   6.670   1.068  13.876  1.1434  0.7962  0.6594
  122CHL1    C715225   6.694   1.042  14.097 -0.7753  0.1131  1.0837
  122CHL1   H7A15226   6.756   1.134  14.100 -0.9817  0.2358  1.7619
  122CHL1   H7B15227   6.594   1.075  14.132 -0.2041  2.7293  0.4210
  122CHL1    C815228   6.751   0.930  14.194  0.1341 -0.2539 -0.2141
  122CHL1    H815229   6.858   0.929  14.165 -0.2789  1.3548 -1.9871
  122CHL1   C1415230   6.725   0.972  14.344  0.3793 -0.3572  0.2205
  122CHL1   H1415231   6.615   0.986  14.346  0.4961  0.6603  0.1105
  122CHL1   C1515232   6.776   1.113  14.383 -0.3138 -0.0708 -0.2426
  122CHL1  H15A15233   6.886   1.117  14.368 -0.2452 -1.3530 -0.2373
  122CHL1  H15B15234   6.733   1.195  14.321  2.3086  0.3090 -1.7168
  122CHL1   C1615235   6.740   1.119  14.532 -0.3327 -0.0217  0.2891
  122CHL1  H16A15236   6.819   1.180  14.580 -0.3060  0.9805 -0.9687
  122CHL1  H16B15237   6.642   1.172  14.536 -0.5207 -0.4482  2.7713
  122CHL1   C1715238   6.721   0.965  14.576  0.1051 -0.0603 -0.0517
  122CHL1   H1715239   6.611   0.956  14.590  0.0657 -0.4988 -0.6234
  122CHL1   C1315240   6.760   0.880  14.457  0.2946 -0.2944  0.2965
  122CHL1   C1815241   6.920   0.846  14.450 -0.0800 -0.4171 -0.3517
  122CHL1  H18A15242   6.980   0.936  14.476 -1.1542  0.7195 -1.6355
  122CHL1  H18B15243   6.934   0.766  14.526  0.3462  0.6722  0.7550
  122CHL1  H18C15244   6.944   0.823  14.344 -1.2415 -0.9968 -0.5010
  122CHL1   C1215245   6.672   0.758  14.422 -0.4301  0.1977 -0.1591
  122CHL1  H12A15246   6.680   0.678  14.498 -0.2816  0.3200 -0.0468
  122CHL1  H12B15247   6.563   0.782  14.420 -0.7810 -1.1654 -3.2161
  122CHL1   C1115248   6.706   0.702  14.278  0.3219 -0.6451 -0.4173
  122CHL1  H11A15249   6.811   0.664  14.283  0.1221 -1.1420  0.1106
  122CHL1  H11B15250   6.642   0.614  14.256  1.6980 -1.8528  0.1987
  122CHL1    C915251   6.676   0.802  14.167 -0.8141 -0.1927  0.6178
  122CHL1    H915252   6.572   0.839  14.169 -0.2979  1.3723 -0.0502
  122CHL1   C1015253   6.696   0.749  14.023  0.1858 -0.5918  0.1619
  122CHL1   C1915254   6.831   0.674  14.015 -0.2540 -0.0998  0.1381
  122CHL1  H19A15255   6.916   0.742  14.041  0.8272 -1.6940  0.9681
  122CHL1  H19B15256   6.837   0.583  14.079  1.5442  0.5076  0.9216
  122CHL1  H19C15257   6.854   0.642  13.911 -0.0575 -0.6350  0.3416
  122CHL1    C115258   6.585   0.645  13.992 -0.9253 -0.1818 -0.0045
  122CHL1   H1A15259   6.593   0.556  14.057  1.2539 -1.7302 -2.1861
  122CHL1   H1B15260   6.487   0.693  14.011 -0.9353 -0.1833 -0.0491
  122CHL1    C215261   6.591   0.591  13.849 -0.3741  1.0286  0.3925
  122CHL1   H2A15262   6.502   0.531  13.821 -1.1462  2.8350 -1.2201
  122CHL1   H2B15263   6.687   0.535  13.840 -1.0866 -0.2876  0.7476
  122CHL1   C2015264   6.793   0.923  14.703 -0.8236 -0.0096 -0.0725
  122CHL1   H2015265   6.903   0.927  14.686 -0.8480  1.0738 -0.0336
  122CHL1   C2115266   6.745   0.781  14.747  0.3062  0.6898 -0.3298
  122CHL1  H21A15267   6.780   0.704  14.676 -1.6603 -1.1642  0.6028
  122CHL1  H21B15268   6.635   0.783  14.757  0.3772  0.6357  0.5429
  122CHL1  H21C15269   6.775   0.751  14.850 -1.3760  0.0096 -0.0056
  122CHL1   C2215270   6.782   1.021  14.822  0.1234 -0.1140 -0.4576
  122CHL1  H22A15271   6.843   0.969  14.899 -2.6089 -0.0610  1.8710
  122CHL1  H22B15272   6.823   1.120  14.794 -1.9584  0.6710 -0.8384
  122CHL1   C2315273   6.645   1.049  14.885 -0.4808  0.4652  0.9696
  122CHL1  H23A15274   6.565   1.067  14.810  0.8514  2.5736 -0.0379
  122CHL1  H23B15275   6.615   0.958  14.942  0.3330  0.1558  0.9163
  122CHL1   C2415276   6.643   1.172  14.977 -0.0177  0.7090  0.5422
  122CHL1  H24A15277   6.678   1.260  14.920  0.7496  1.1929  1.7253
  122CHL1  H24B15278   6.542   1.211  14.999 -0.0287  0.5794  0.7245
  122CHL1   C2515279   6.731   1.157  15.102 -0.2382  1.3146 -0.2735
  122CHL1   H2515280   6.799   1.070  15.095  0.6863  2.0043 -0.0574
  122CHL1   C2615281   6.807   1.283  15.128 -0.1002  0.5234 -0.3953
  122CHL1  H26A15282   6.892   1.282  15.055  0.5716  0.6095  0.3718
  122CHL1  H26B15283   6.749   1.378  15.130 -2.0821 -0.6586  1.2611
  122CHL1  H26C15284   6.856   1.292  15.227  0.9320  1.5227 -0.9642
  122CHL1   C2715285   6.634   1.132  15.217 -0.0104  0.0630 -0.7303
  122CHL1  H27A15286   6.686   1.141  15.315  0.0157  0.8784 -0.8054
  122CHL1  H27B15287   6.550   1.205  15.211  0.3443  0.4925 -0.6080
  122CHL1  H27C15288   6.586   1.033  15.210 -0.4750 -0.1491  3.2977
  123CHL1    C315289   4.150   1.418  12.973 -0.3144 -0.4148 -0.0446
  123CHL1    H315290   4.177   1.311  12.986  1.0550 -0.1309 -0.3579
  123CHL1    O315291   4.166   1.466  12.837 -0.2746  0.3608 -0.2542
  123CHL1   H3'15292   4.094   1.524  12.812 -2.7008 -2.4219 -0.2904
  123CHL1    C415293   4.013   1.446  13.020 -0.0768  0.1370  0.5529
  123CHL1   H4A15294   3.989   1.548  12.983  1.1902  0.2751  0.0368
  123CHL1   H4B15295   3.948   1.376  12.965 -1.1052  2.0493 -0.7949
  123CHL1    C515296   3.989   1.430  13.169  0.3547 -0.0177  1.0227
  123CHL1    C615297   3.900   1.338  13.217 -0.2657  0.5566 -0.2760
  123CHL1    H615298   3.833   1.273  13.158 -0.0213  0.6928 -0.7074
  123CHL1    C715299   3.876   1.322  13.363  0.6031  0.0013 -0.1729
  123CHL1   H7A15300   3.768   1.310  13.384  0.6693 -1.2192 -0.4484
  123CHL1   H7B15301   3.919   1.225  13.399  1.0868  0.5479  0.7641
  123CHL1    C815302   3.940   1.423  13.455 -0.0978 -0.0716  0.1673
  123CHL1    H815303   3.871   1.509  13.445 -3.4668 -2.5905  0.0026
  123CHL1   C1415304   3.941   1.379  13.600  0.1371 -0.1025  0.9535
  123CHL1   H1415305   4.002   1.286  13.603 -1.6639 -1.3602  0.3976
  123CHL1   C1515306   3.803   1.328  13.654  0.3096 -0.3890  0.2718
  123CHL1  H15A15307   3.712   1.373  13.610  1.0347 -2.3647 -3.7041
  123CHL1  H15B15308   3.799   1.221  13.622  1.7894  0.0321 -1.5220
  123CHL1   C1615309   3.818   1.344  13.804  0.0253 -0.1748  0.1872
  123CHL1  H16A15310   3.755   1.426  13.845  1.2710  0.5727  0.6757
  123CHL1  H16B15311   3.802   1.257  13.871  2.1708 -0.6755  0.1131
  123CHL1   C1715312   3.962   1.395  13.829  0.2108  0.4172 -0.4220
  123CHL1   H1715313   4.018   1.299  13.826 -0.3649  0.1019 -2.1939
  123CHL1   C1315314   3.998   1.478  13.703 -0.6166  0.4275  0.4932
  123CHL1   C1815315   3.915   1.606  13.705  0.1221 -0.1798 -0.5747
  123CHL1  H18A15316   3.807   1.588  13.690  0.9141 -4.0388 -2.9749
  123CHL1  H18B15317   3.933   1.656  13.803  0.8916 -1.6243  0.0560
  123CHL1  H18C15318   3.955   1.677  13.629 -1.1662  1.3096  0.0860
  123CHL1   C1215319   4.146   1.503  13.657 -0.6526  0.0808  0.8513
  123CHL1  H12A15320   4.189   1.588  13.714 -0.5579 -1.1771  2.7679
  123CHL1  H12B15321   4.207   1.410  13.657 -0.5238  0.1154 -1.4468
  123CHL1   C1115322   4.162   1.545  13.513 -0.3162  0.2403 -0.6396
  123CHL1  H11A15323   4.137   1.652  13.502 -0.4032  0.0243 -3.0683
  123CHL1  H11B15324   4.272   1.543  13.496 -0.3632  0.4271 -0.9694
  123CHL1    C915325   4.085   1.453  13.410  0.4395  0.2941  0.1610
  123CHL1    H915326   4.141   1.358  13.416 -1.0276 -0.5265  1.4705
  123CHL1   C1015327   4.086   1.513  13.263 -0.3210  0.0713  0.3024
  123CHL1   C1915328   4.034   1.665  13.265 -0.4677  0.5796 -0.1297
  123CHL1  H19A15329   4.112   1.726  13.315 -0.4590 -0.6443  1.4243
  123CHL1  H19B15330   4.021   1.697  13.159 -1.6369  1.0065  0.1337
  123CHL1  H19C15331   3.935   1.680  13.311  0.2155  1.6490  1.0410
  123CHL1    C115332   4.227   1.493  13.206 -0.2286  0.2263  0.7350
  123CHL1   H1A15333   4.302   1.560  13.254  1.1874 -0.5529 -0.3321
  123CHL1   H1B15334   4.257   1.389  13.231 -0.0292 -0.1442 -0.9435
  123CHL1    C215335   4.246   1.505  13.057 -0.4474 -0.7068  0.1906
  123CHL1   H2A15336   4.351   1.490  13.024  0.8349  2.0775  2.5144
  123CHL1   H2B15337   4.222   1.611  13.033 -0.8012 -0.9925 -0.7232
  123CHL1   C2015338   3.968   1.461  13.970  0.2016  0.2184  0.1975
  123CHL1   H2015339   3.882   1.531  13.982 -0.5374 -0.3404 -1.4703
  123CHL1   C2115340   4.095   1.543  13.986  0.7654 -0.1359 -0.0548
  123CHL1  H21A15341   4.106   1.573  14.092 -1.0680 -0.4653  0.2616
  123CHL1  H21B15342   4.081   1.644  13.942 -0.3848  1.3848  3.5051
  123CHL1  H21C15343   4.192   1.496  13.960  1.1708  0.5081  0.2677
  123CHL1   C2215344   3.963   1.361  14.082  0.6619  0.7181  0.3162
  123CHL1  H22A15345   3.917   1.265  14.053  0.3511  0.8803  0.2605
  123CHL1  H22B15346   4.059   1.347  14.137  0.0522 -0.3255  1.1536
  123CHL1   C2315347   3.863   1.413  14.190 -0.1429  0.0984  0.0795
  123CHL1  H23A15348   3.903   1.506  14.237  0.5310 -0.5944  0.9137
  123CHL1  H23B15349   3.763   1.439  14.150  0.9011  1.5129 -1.7771
  123CHL1   C2415350   3.823   1.312  14.303 -0.0484 -1.0725  0.6911
  123CHL1  H24A15351   3.767   1.228  14.257 -1.2061  0.9625 -1.8662
  123CHL1  H24B15352   3.920   1.277  14.345  0.4097 -0.5450  0.0803
  123CHL1   C2515353   3.749   1.364  14.423  0.5580  0.6626 -0.7431
  123CHL1   H2515354   3.663   1.420  14.381 -0.6891 -1.1225 -0.6507
  123CHL1   C2615355   3.693   1.247  14.509 -0.2544 -0.0100  0.4982
  123CHL1  H26A15356   3.771   1.196  14.570  1.9052  1.3122 -1.0196
  123CHL1  H26B15357   3.621   1.291  14.582 -0.7394 -0.4051  0.2579
  123CHL1  H26C15358   3.635   1.184  14.439  1.4729  1.1796 -2.1759
  123CHL1   C2715359   3.826   1.451  14.516  0.4605 -0.1973 -0.0484
  123CHL1  H27A15360   3.848   1.539  14.452 -2.6619 -0.9585 -2.3854
  123CHL1  H27B15361   3.764   1.480  14.603  1.8319 -2.1986  1.6843
  123CHL1  H27C15362   3.916   1.403  14.561  0.2200 -0.1603  0.4824
  124CHL1    C315363   2.112   1.894  13.677  0.5630  0.7379  0.2094
  124CHL1    H315364   2.191   1.815  13.678 -0.7262 -0.5843  0.4868
  124CHL1    O315365   2.114   1.943  13.548  0.0351 -0.4356 -0.3317
  124CHL1   H3'15366   2.071   2.028  13.557  0.7425  0.1252 -1.7864
  124CHL1    C415367   1.970   1.841  13.714 -0.7951 -0.5147 -0.4456
  124CHL1   H4A15368   1.899   1.925  13.701  2.4973  2.8858  1.4566
  124CHL1   H4B15369   1.948   1.764  13.636  1.2047 -2.3481  0.6922
  124CHL1    C515370   1.970   1.793  13.856 -0.3023 -0.0004  0.3170
  124CHL1    C615371   1.945   1.664  13.890  0.1606  0.1342  0.3588
  124CHL1    H615372   1.920   1.592  13.811 -0.6825  0.8806 -0.0747
  124CHL1    C715373   1.938   1.606  14.023  0.3163  0.6138 -1.3928
  124CHL1   H7A15374   1.850   1.540  14.037  0.9655 -0.1926 -1.0209
  124CHL1   H7B15375   2.026   1.542  14.048 -0.5965  0.0325  0.4872
  124CHL1    C815376   1.941   1.717  14.136  0.0249  0.0898  0.0361
  124CHL1    H815377   1.842   1.767  14.141  0.3532  0.9347 -1.2392
  124CHL1   C1415378   1.963   1.646  14.269  0.0219  0.2262 -0.2187
  124CHL1   H1415379   2.064   1.602  14.255  0.5366  0.8545  1.3355
  124CHL1   C1515380   1.866   1.539  14.320 -0.5784 -0.0507 -0.1531
  124CHL1  H15A15381   1.763   1.577  14.305 -0.8126 -1.5662 -2.8426
  124CHL1  H15B15382   1.875   1.444  14.265 -0.9800 -0.0866 -0.1592
  124CHL1   C1615383   1.894   1.520  14.470  0.1862  0.1589  0.3139
  124CHL1  H16A15384   1.796   1.525  14.521  0.8066  0.5452  1.5013
  124CHL1  H16B15385   1.942   1.423  14.497 -1.4945 -0.4611  1.1922
  124CHL1   C1715386   1.996   1.635  14.497 -0.0353 -0.0117  0.1692
  124CHL1   H1715387   2.101   1.604  14.480 -0.4901 -1.2120 -0.5538
  124CHL1   C1315388   1.965   1.744  14.384  0.0135  0.0465 -0.0602
  124CHL1   C1815389   1.827   1.810  14.402 -0.1162 -0.3415 -0.1336
  124CHL1  H18A15390   1.845   1.886  14.480 -0.2551  0.6569 -1.0525
  124CHL1  H18B15391   1.796   1.872  14.316  0.2129 -1.3902 -1.0340
  124CHL1  H18C15392   1.744   1.750  14.446 -1.7899  0.2982 -2.2340
  124CHL1   C1215393   2.084   1.843  14.362 -0.7375  0.0311  0.0094
  124CHL1  H12A15394   2.073   1.925  14.436  1.0412  1.7136 -1.4875
  124CHL1  H12B15395   2.179   1.786  14.366 -1.6359 -1.7330 -1.9252
  124CHL1   C1115396   2.079   1.918  14.226 -0.0212 -0.1300  0.8901
  124CHL1  H11A15397   1.994   1.988  14.228  0.1304  0.2092 -1.6494
  124CHL1  H11B15398   2.174   1.975  14.221  0.4588 -1.0042 -0.4836
  124CHL1    C915399   2.047   1.825  14.106  0.2563  1.1745  0.1252
  124CHL1    H915400   2.143   1.769  14.095  1.0927  2.4112  0.8925
  124CHL1   C1015401   2.017   1.891  13.970 -0.3051 -0.4013  0.0180
  124CHL1   C1915402   1.907   2.000  13.977 -0.3119 -0.2228  0.2787
  124CHL1  H19A15403   1.866   2.033  13.880  2.0331 -0.1592 -0.7485
  124CHL1  H19B15404   1.819   1.976  14.040  0.3038  1.3274  1.8092
  124CHL1  H19C15405   1.955   2.086  14.029 -0.0021 -1.1574  1.6141
  124CHL1    C115406   2.151   1.956  13.918 -0.1257 -0.2190 -0.0157
  124CHL1   H1A15407   2.183   2.044  13.978  1.1807  0.0706 -1.0637
  124CHL1   H1B15408   2.229   1.876  13.916 -1.6028 -1.6995 -0.8792
  124CHL1    C215409   2.158   2.001  13.773  0.1651  0.0026  0.0005
  124CHL1   H2A15410   2.265   2.024  13.750  0.8746 -1.5052  1.6031
  124CHL1   H2B15411   2.098   2.093  13.759  0.1015 -0.0508 -0.0801
  124CHL1   C2015412   1.977   1.684  14.648 -0.3980 -0.1368  0.4901
  124CHL1   H2015413   1.885   1.745  14.641  0.6358  1.6444  1.6738
  124CHL1   C2115414   2.098   1.779  14.687 -0.1921  0.0453  0.3818
  124CHL1  H21A15415   2.071   1.839  14.776  0.7732 -0.1153  0.7926
  124CHL1  H21B15416   2.136   1.848  14.609 -0.9565  0.4263  0.3376
  124CHL1  H21C15417   2.183   1.713  14.716 -0.6901 -1.4689 -1.4128
  124CHL1   C2215418   1.966   1.566  14.750  0.7749  0.6225  0.7623
  124CHL1  H22A15419   1.862   1.527  14.739  1.7297 -1.9769  0.3444
  124CHL1  H22B15420   2.024   1.479  14.715 -1.2310 -0.3574 -0.3111
  124CHL1   C2315421   1.985   1.609  14.902 -0.3459  0.3574  0.1911
  124CHL1  H23A15422   2.089   1.645  14.912 -0.5783  1.1588 -0.1591
  124CHL1  H23B15423   1.918   1.687  14.943  0.1942  0.7671  0.2982
  124CHL1   C2415424   1.968   1.485  14.996  0.1129 -0.2151 -0.4208
  124CHL1  H24A15425   1.867   1.443  14.979  0.9534 -1.8210 -1.6831
  124CHL1  H24B15426   2.048   1.410  14.978  0.1422 -0.7252  1.5816
  124CHL1   C2515427   1.987   1.533  15.149  0.2973  0.7595  0.1339
  124CHL1   H2515428   1.925   1.625  15.142 -0.4587  0.2024 -0.6079
  124CHL1   C2615429   1.914   1.436  15.252  0.7910 -0.5793  0.4795
  124CHL1  H26A15430   1.805   1.429  15.231  0.8583 -1.2102  0.3035
  124CHL1  H26B15431   1.953   1.332  15.241  0.6207 -0.8042  1.7733
  124CHL1  H26C15432   1.931   1.468  15.357 -2.7847  2.0720  0.4252
  124CHL1   C2715433   2.136   1.552  15.179  0.4781  0.1065  0.0233
  124CHL1  H27A15434   2.190   1.456  15.190  1.6450  0.8475  0.9663
  124CHL1  H27B15435   2.180   1.604  15.091  0.1334 -1.0116 -0.8472
  124CHL1  H27C15436   2.149   1.606  15.274 -0.0197  1.7784 -0.8120
  125CHL1    C315437   3.332   1.103  13.202 -0.2454 -0.5369  0.8886
  125CHL1    H315438   3.225   1.076  13.190  0.5112 -3.4694 -0.0752
  125CHL1    O315439   3.382   1.128  13.068 -0.0700 -0.1406 -0.1493
  125CHL1   H3'15440   3.313   1.185  13.033  1.1077  1.4381 -0.0293
  125CHL1    C415441   3.349   1.231  13.283 -0.1167  0.2042 -0.5767
  125CHL1   H4A15442   3.452   1.272  13.279  0.0792 -0.2549 -0.1731
  125CHL1   H4B15443   3.284   1.312  13.243 -1.9976 -0.5348  0.8452
  125CHL1    C515444   3.315   1.216  13.427 -0.0774  0.6963 -0.2757
  125CHL1    C615445   3.226   1.292  13.489  0.1260 -0.3333  0.1509
  125CHL1    H615446   3.187   1.366  13.417 -0.9772  0.1055  1.1643
  125CHL1    C715447   3.192   1.290  13.637  0.0711  0.3954  0.0476
  125CHL1   H7A15448   3.204   1.391  13.681  1.0965  1.3633 -2.2649
  125CHL1   H7B15449   3.089   1.252  13.653  1.0115 -2.4062 -0.0301
  125CHL1    C815450   3.298   1.209  13.718 -0.1198  0.3172 -0.0002
  125CHL1    H815451   3.394   1.264  13.715 -0.8815  1.6666 -0.9283
  125CHL1   C1415452   3.247   1.176  13.863  0.4818 -0.9558  0.0617
  125CHL1   H1415453   3.161   1.111  13.837  1.0635 -0.9308 -2.0737
  125CHL1   C1515454   3.188   1.293  13.942  0.2008  0.5674 -0.1778
  125CHL1  H15A15455   3.262   1.376  13.937  0.9665 -0.0434  0.8145
  125CHL1  H15B15456   3.082   1.319  13.920  0.1329 -1.0998 -2.0444
  125CHL1   C1615457   3.190   1.249  14.090  0.4074  0.4752  0.1650
  125CHL1  H16A15458   3.248   1.329  14.142  0.0565  0.7099  0.1980
  125CHL1  H16B15459   3.087   1.240  14.131 -0.0326 -0.0406 -1.0427
  125CHL1   C1715460   3.262   1.110  14.081  0.1666 -0.3924 -1.2452
  125CHL1   H1715461   3.185   1.031  14.066 -0.2660  0.2187 -2.3476
  125CHL1   C1315462   3.344   1.101  13.951 -0.3425 -0.3089 -0.4633
  125CHL1   C1815463   3.471   1.185  13.972 -0.2219 -0.6052 -0.5632
  125CHL1  H18A15464   3.452   1.273  14.037 -0.4362  0.1832 -1.6523
  125CHL1  H18B15465   3.540   1.126  14.036 -1.4188  0.4965  1.8988
  125CHL1  H18C15466   3.514   1.214  13.874 -2.3797 -2.1271 -2.0436
  125CHL1   C1215467   3.364   0.964  13.888 -0.3900  0.7361 -0.0770
  125CHL1  H12A15468   3.428   0.896  13.949 -0.0511  0.3904 -0.7994
  125CHL1  H12B15469   3.264   0.917  13.876 -0.1692  0.3449 -0.4186
  125CHL1   C1115470   3.407   0.981  13.737 -0.0292 -0.0888  0.0359
  125CHL1  H11A15471   3.511   1.021  13.740 -0.2081  0.3286  1.4446
  125CHL1  H11B15472   3.423   0.884  13.685  0.9296  1.2079 -2.2453
  125CHL1    C915473   3.324   1.076  13.645  0.4964  0.2871  0.0767
  125CHL1    H915474   3.219   1.041  13.634 -1.3767  5.2087 -0.5143
  125CHL1   C1015475   3.384   1.095  13.502 -0.6005 -0.1615  0.6230
  125CHL1   C1915476   3.543   1.123  13.505  0.0805  0.6480 -0.0853
  125CHL1  H19A15477   3.601   1.042  13.553  3.0457  0.9045 -2.8776
  125CHL1  H19B15478   3.578   1.137  13.400 -0.0314  1.5200 -0.0129
  125CHL1  H19C15479   3.558   1.223  13.551 -3.6265  2.6007 -2.5986
  125CHL1    C115480   3.364   0.968  13.421  0.5285 -0.1607  0.3063
  125CHL1   H1A15481   3.419   0.885  13.470  0.6810 -2.1598 -2.9437
  125CHL1   H1B15482   3.258   0.936  13.425  1.0725 -2.9208 -3.0171
  125CHL1    C215483   3.392   0.983  13.269  0.0587  0.2591 -0.4240
  125CHL1   H2A15484   3.372   0.889  13.212  3.0919 -0.6197 -0.2266
  125CHL1   H2B15485   3.501   1.002  13.260 -0.4249  2.3300 -4.8754
  125CHL1   C2015486   3.324   1.076  14.223  0.2152  0.6290 -0.0155
  125CHL1   H2015487   3.408   1.145  14.249  1.5878 -0.8129 -0.4102
  125CHL1   C2115488   3.380   0.931  14.216 -0.0729 -0.1848  0.0651
  125CHL1  H21A15489   3.304   0.851  14.206 -0.4116 -0.4718  3.6633
  125CHL1  H21B15490   3.435   0.902  14.308  1.2100  0.5533 -0.4391
  125CHL1  H21C15491   3.463   0.925  14.142 -0.3708 -0.6477 -0.2390
  125CHL1   C2215492   3.215   1.079  14.340 -0.1896 -0.1294  0.0161
  125CHL1  H22A15493   3.161   1.177  14.339 -1.6143 -0.7760  2.4938
  125CHL1  H22B15494   3.138   1.010  14.298  0.2730  1.0516 -3.0080
  125CHL1   C2315495   3.260   1.038  14.485 -0.3506 -0.2013  0.6818
  125CHL1  H23A15496   3.282   0.930  14.497  2.1308  0.3570  1.7250
  125CHL1  H23B15497   3.348   1.102  14.510 -0.5310  0.6071 -0.6701
  125CHL1   C2415498   3.165   1.090  14.603  0.1025 -0.4961  0.4955
  125CHL1  H24A15499   3.146   1.199  14.595  0.0246 -0.3486  2.3279
  125CHL1  H24B15500   3.063   1.052  14.583 -0.4307  0.9796  0.2923
  125CHL1   C2515501   3.227   1.059  14.742 -0.1444  0.1142  0.2774
  125CHL1   H2515502   3.329   1.104  14.734  0.4904 -1.4103 -0.5991
  125CHL1   C2615503   3.149   1.131  14.851 -0.6659 -0.6517  0.5494
  125CHL1  H26A15504   3.044   1.096  14.852 -0.3420 -1.9100 -2.1949
  125CHL1  H26B15505   3.175   1.113  14.958 -0.8496 -2.5333  0.3060
  125CHL1  H26C15506   3.154   1.240  14.829  0.2887 -1.1957 -2.4296
  125CHL1   C2715507   3.234   0.911  14.770  0.1045  0.2801  0.1455
  125CHL1  H27A15508   3.132   0.866  14.766 -0.0088  0.6263 -1.3296
  125CHL1  H27B15509   3.283   0.857  14.687 -0.5915  0.4317 -0.3794
  125CHL1  H27C15510   3.285   0.893  14.867 -0.4952 -1.6117  0.1422
  126CHL1    C315511   0.754   3.086  13.693  0.0017 -0.3969 -0.6165
  126CHL1    H315512   0.784   2.981  13.711 -0.3529 -0.4027 -0.0388
  126CHL1    O315513   0.721   3.113  13.562 -0.0816 -0.1673 -0.0124
  126CHL1   H3'15514   0.659   3.043  13.539 -0.3781 -0.1686  0.7802
  126CHL1    C415515   0.630   3.112  13.786 -0.0882 -0.2588  0.1990
  126CHL1   H4A15516   0.586   3.213  13.767 -0.7159 -0.6550 -0.5226
  126CHL1   H4B15517   0.563   3.030  13.753 -1.1738  1.2388 -1.5253
  126CHL1    C515518   0.665   3.107  13.933 -0.3422  0.1274  0.4613
  126CHL1    C615519   0.595   3.029  14.018  0.6075  0.7639 -0.3775
  126CHL1    H615520   0.525   2.960  13.970  3.8016 -2.9466 -0.1785
  126CHL1    C715521   0.610   3.032  14.170 -0.0742  0.3342 -0.2991
  126CHL1   H7A15522   0.515   3.045  14.226  0.7412 -0.3194  1.3011
  126CHL1   H7B15523   0.638   2.930  14.205 -3.7507 -0.9413 -0.6862
  126CHL1    C815524   0.706   3.139  14.217 -0.0606  0.2975 -0.4273
  126CHL1    H815525   0.650   3.235  14.216  0.4035  0.5990  0.7617
  126CHL1   C1415526   0.756   3.120  14.365  0.2548 -0.2674 -0.2264
  126CHL1   H1415527   0.816   3.027  14.365 -1.1541 -1.2033  0.1008
  126CHL1   C1515528   0.646   3.087  14.470 -0.1927  0.4838  0.4821
  126CHL1  H15A15529   0.565   3.159  14.446 -0.2453  0.0245 -0.8026
  126CHL1  H15B15530   0.601   2.986  14.480 -2.4564  1.5884  2.2330
  126CHL1   C1615531   0.708   3.132  14.604  0.4784 -0.6508 -0.5128
  126CHL1  H16A15532   0.644   3.214  14.642 -0.9229 -1.3116 -1.3438
  126CHL1  H16B15533   0.711   3.048  14.676  0.8195  1.5759  2.2522
  126CHL1   C1715534   0.855   3.183  14.559  0.0545 -0.3035  0.1681
  126CHL1   H1715535   0.916   3.090  14.558 -0.4987 -0.6998  1.1650
  126CHL1   C1315536   0.844   3.231  14.418  0.7637  0.1050 -0.4703
  126CHL1   C1815537   0.762   3.369  14.422 -0.6232 -0.6440  0.0088
  126CHL1  H18A15538   0.755   3.407  14.318  0.0038  1.2744  0.6242
  126CHL1  H18B15539   0.657   3.352  14.455 -0.1763  0.6833  2.3265
  126CHL1  H18C15540   0.801   3.458  14.474  0.5590  0.1954 -2.1628
  126CHL1   C1215541   0.971   3.237  14.327  0.4246 -0.0666  0.5053
  126CHL1  H12A15542   1.050   3.300  14.372  2.6437 -1.2815 -1.5042
  126CHL1  H12B15543   1.014   3.135  14.340  2.9783  0.8165 -0.4239
  126CHL1   C1115544   0.933   3.256  14.179  0.5560  0.0987 -0.5421
  126CHL1  H11A15545   0.892   3.360  14.184 -1.0226 -0.5153 -0.0174
  126CHL1  H11B15546   1.022   3.263  14.113 -0.1130  0.5376 -1.4239
  126CHL1    C915547   0.824   3.155  14.116 -0.0287 -0.2000 -0.3485
  126CHL1    H915548   0.876   3.057  14.111 -0.1327 -0.3359  0.7848
  126CHL1   C1015549   0.784   3.199  13.967 -0.5011 -0.1091 -0.2519
  126CHL1   C1915550   0.753   3.351  13.964  0.5690 -0.0001  0.0921
  126CHL1  H19A15551   0.677   3.379  14.040 -0.6237 -0.7354 -0.7939
  126CHL1  H19B15552   0.839   3.416  13.988  1.1554 -0.6233 -0.2778
  126CHL1  H19C15553   0.713   3.368  13.861 -1.6175 -0.0140  0.8751
  126CHL1    C115554   0.906   3.179  13.873 -1.2722  0.6761  0.1349
  126CHL1   H1A15555   0.990   3.243  13.909  0.9498 -1.0056 -1.7744
  126CHL1   H1B15556   0.939   3.075  13.892 -3.3677 -0.0579  0.0178
  126CHL1    C215557   0.868   3.179  13.721 -0.4469 -0.0782  0.1083
  126CHL1   H2A15558   0.958   3.153  13.661 -0.3890  2.4562 -1.0341
  126CHL1   H2B15559   0.841   3.282  13.688 -0.8420  0.5580  2.2953
  126CHL1   C2015560   0.916   3.279  14.669  0.2675 -0.8066  0.1184
  126CHL1   H2015561   0.829   3.342  14.697 -0.0007 -1.2170  0.2346
  126CHL1   C2115562   1.032   3.370  14.629  0.2202 -0.9308 -0.5054
  126CHL1  H21A15563   1.047   3.455  14.700 -1.3466  0.4530 -1.7365
  126CHL1  H21B15564   0.995   3.424  14.539 -1.5669  0.2849  0.8933
  126CHL1  H21C15565   1.126   3.311  14.625 -1.0640 -3.2529  1.2222
  126CHL1   C2215566   0.960   3.200  14.794 -0.1634  0.2350 -0.5830
  126CHL1  H22A15567   0.878   3.127  14.810  0.7759 -0.7202  0.0872
  126CHL1  H22B15568   1.053   3.139  14.785 -0.5253 -0.5812  0.8690
  126CHL1   C2315569   0.979   3.284  14.924 -0.8491  0.6838 -0.3441
  126CHL1  H23A15570   1.004   3.207  15.001  1.6626  3.1076  1.4833
  126CHL1  H23B15571   1.070   3.346  14.911  0.9355 -1.5992  0.5607
  126CHL1   C2415572   0.859   3.365  14.982 -0.5199  0.5430  0.5338
  126CHL1  H24A15573   0.827   3.436  14.903  0.5221 -0.9606 -1.3501
  126CHL1  H24B15574   0.770   3.298  14.983 -0.1409 -0.1327 -2.2995
  126CHL1   C2515575   0.900   3.448  15.106  0.3578 -0.2094  0.7436
  126CHL1   H2515576   1.003   3.487  15.092 -0.0753  0.4468 -0.7558
  126CHL1   C2615577   0.820   3.577  15.118 -0.0923  0.1019 -0.2843
  126CHL1  H26A15578   0.717   3.543  15.142 -0.7107  2.0882  0.0444
  126CHL1  H26B15579   0.856   3.630  15.208  0.4131 -1.9429  0.7906
  126CHL1  H26C15580   0.824   3.638  15.026 -0.0360  0.1355 -0.2594
  126CHL1   C2715581   0.873   3.362  15.231  0.5010 -0.5656 -0.0205
  126CHL1  H27A15582   0.939   3.272  15.230 -0.6312 -1.4407  0.5063
  126CHL1  H27B15583   0.877   3.415  15.329  2.1317 -0.3301 -0.1818
  126CHL1  H27C15584   0.768   3.327  15.222  0.3654 -0.2971  0.4688
  127CHL1    C315585   0.057   2.255  13.641  0.1646  0.3599  0.5662
  127CHL1    H315586   0.045   2.349  13.699 -0.2170 -0.3283  1.6402
  127CHL1    O315587   0.061   2.284  13.499  0.2111 -0.0607  0.5422
  127CHL1   H3'15588   0.152   2.282  13.471  0.4790  1.7685  1.1246
  127CHL1    C415589   0.192   2.205  13.684 -0.1224 -0.5143 -0.7386
  127CHL1   H4A15590   0.215   2.111  13.630 -0.1349  0.0919 -1.8254
  127CHL1   H4B15591   0.263   2.280  13.642  0.6513 -0.8323 -0.0292
  127CHL1    C515592   0.195   2.194  13.837  0.1633 -0.4517 -0.1492
  127CHL1    C615593   0.290   2.260  13.899  0.6749 -0.1159  0.0083
  127CHL1    H615594   0.375   2.308  13.850 -0.1354  1.4402  0.0491
  127CHL1    C715595   0.303   2.259  14.050 -0.1060 -0.0778  0.4901
  127CHL1   H7A15596   0.406   2.239  14.086  0.7766  0.7313 -1.4621
  127CHL1   H7B15597   0.273   2.359  14.087  1.5777  0.0379  1.6399
  127CHL1    C815598   0.205   2.156  14.123 -0.2305  0.6196  0.7614
  127CHL1    H815599   0.255   2.057  14.110 -0.2089  1.0217 -4.7419
  127CHL1   C1415600   0.187   2.197  14.266  0.6646  0.2388 -0.1116
  127CHL1   H1415601   0.150   2.300  14.251 -0.7123 -0.2208 -0.0483
  127CHL1   C1515602   0.317   2.220  14.352 -0.5619  0.6949  0.5904
  127CHL1  H15A15603   0.385   2.132  14.347 -0.5679  0.6755  0.8716
  127CHL1  H15B15604   0.373   2.310  14.319  0.1403 -0.5083 -1.6962
  127CHL1   C1615605   0.255   2.239  14.493 -0.2062  0.7303 -0.0979
  127CHL1  H16A15606   0.310   2.185  14.573 -0.2755  0.6413 -0.1097
  127CHL1  H16B15607   0.260   2.344  14.527  1.7761  0.4030  0.7656
  127CHL1   C1715608   0.103   2.189  14.491 -0.0132  0.4848 -0.0763
  127CHL1   H1715609   0.042   2.282  14.486 -0.1442  0.4673  1.0022
  127CHL1   C1315610   0.093   2.119  14.348 -0.3194  0.6768 -0.2766
  127CHL1   C1815611   0.150   1.975  14.358  0.9126  0.1267  0.6766
  127CHL1  H18A15612   0.137   1.921  14.261  0.6909 -1.9324  1.7999
  127CHL1  H18B15613   0.261   1.983  14.365  1.0995 -0.9249 -0.5843
  127CHL1  H18C15614   0.090   1.915  14.430 -2.7833 -1.2648 -3.1266
  127CHL1   C1215615  -0.044   2.121  14.289  0.5714  0.5694  0.5942
  127CHL1  H12A15616  -0.105   2.052  14.351  0.4220  1.4995  1.5130
  127CHL1  H12B15617  -0.087   2.224  14.293 -0.5432  0.1537 -0.1197
  127CHL1   C1115618  -0.042   2.089  14.137  0.5261  0.0378  0.1198
  127CHL1  H11A15619  -0.027   1.979  14.124  0.5380 -0.0309  0.6831
  127CHL1  H11B15620  -0.139   2.119  14.092  0.8379  0.3324 -0.3715
  127CHL1    C915621   0.068   2.157  14.055  0.7614  0.1794 -0.6456
  127CHL1    H915622   0.039   2.264  14.048  0.6861  0.1008 -1.7939
  127CHL1   C1015623   0.078   2.116  13.901 -0.1929  0.3515 -0.4500
  127CHL1   C1915624   0.116   1.966  13.882  0.6686  0.4231  0.4224
  127CHL1  H19A15625   0.043   1.890  13.917 -0.6570 -0.1832 -3.1789
  127CHL1  H19B15626   0.129   1.937  13.775 -1.6659  1.6735 -0.2696
  127CHL1  H19C15627   0.205   1.934  13.939  0.3349 -0.1875  0.6085
  127CHL1    C115628  -0.053   2.151  13.836  0.2130  0.2623 -0.4056
  127CHL1   H1A15629  -0.128   2.074  13.865  1.3615 -1.3095 -1.3951
  127CHL1   H1B15630  -0.098   2.242  13.880 -1.6312 -1.3544  1.2640
  127CHL1    C215631  -0.056   2.162  13.685 -0.9203  0.0659 -0.5949
  127CHL1   H2A15632  -0.151   2.194  13.639 -0.9367 -0.2028 -0.7473
  127CHL1   H2B15633  -0.029   2.059  13.651  1.6931  0.4807 -0.0463
  127CHL1   C2015634   0.066   2.114  14.618 -0.2121 -0.3310 -0.9289
  127CHL1   H2015635   0.150   2.041  14.628  0.1895  0.2354 -0.0863
  127CHL1   C2115636  -0.069   2.035  14.616 -0.0148 -0.3507 -0.0661
  127CHL1  H21A15637  -0.073   1.954  14.540  1.1189 -2.6971  2.2190
  127CHL1  H21B15638  -0.147   2.107  14.584  1.7478  1.7639  0.1706
  127CHL1  H21C15639  -0.099   1.993  14.714 -1.7726  0.5064 -0.1974
  127CHL1   C2215640   0.077   2.204  14.747  0.2542 -0.5740 -0.1255
  127CHL1  H22A15641   0.187   2.220  14.755 -0.2915  3.7613  1.0240
  127CHL1  H22B15642   0.017   2.297  14.733 -0.9590 -1.3725 -0.3607
  127CHL1   C2315643   0.022   2.149  14.879 -0.1778 -0.1368  0.3888
  127CHL1  H23A15644  -0.088   2.140  14.863 -0.0705 -1.0913  0.1299
  127CHL1  H23B15645   0.075   2.054  14.902  0.5806 -0.1369 -1.2062
  127CHL1   C2415646   0.028   2.249  14.995 -0.6716 -0.1012  1.1277
  127CHL1  H24A15647   0.130   2.293  14.995 -0.8281  0.2698  1.9181
  127CHL1  H24B15648  -0.045   2.332  14.980  0.7613  1.1296  0.7442
  127CHL1   C2515649   0.004   2.181  15.133  0.3032 -0.9183  0.4266
  127CHL1   H2515650   0.034   2.074  15.124 -0.7661 -1.0675 -2.0189
  127CHL1   C2615651   0.086   2.249  15.251  0.8371  0.8416  0.1496
  127CHL1  H26A15652   0.072   2.195  15.347  1.6975 -1.0552 -0.7365
  127CHL1  H26B15653   0.192   2.237  15.221  1.3403 -1.6189  2.5365
  127CHL1  H26C15654   0.050   2.352  15.268 -0.9643  0.1266  0.8799
  127CHL1   C2715655  -0.146   2.194  15.164  0.2257  0.0778 -0.3830
  127CHL1  H27A15656  -0.167   2.300  15.187  0.7150 -0.3537  2.4656
  127CHL1  H27B15657  -0.191   2.156  15.070 -1.5529 -0.6875  0.7117
  127CHL1  H27C15658  -0.184   2.134  15.250  1.1470  1.5827  1.1383
  128CHL1    C315659   0.637   0.432  14.138 -0.2085  0.0825 -0.1083
  128CHL1    H315660   0.714   0.510  14.154 -1.0810  1.0764 -0.6516
  128CHL1    O315661   0.655   0.403  13.997  0.7949 -0.0305 -0.0431
  128CHL1   H3'15662   0.590   0.333  13.982 -3.1040  3.1796  0.1566
  128CHL1    C415663   0.663   0.302  14.205  0.1846 -0.4348  0.3958
  128CHL1   H4A15664   0.578   0.239  14.173 -1.1293  0.7581  1.4132
  128CHL1   H4B15665   0.763   0.256  14.191  0.0288 -1.0251  1.1375
  128CHL1    C515666   0.648   0.317  14.355  0.2401  0.0317 -0.1957
  128CHL1    C615667   0.750   0.286  14.435 -0.6929  0.3967  0.0105
  128CHL1    H615668   0.842   0.237  14.402 -1.0941 -1.3249  1.3247
  128CHL1    C715669   0.728   0.289  14.587 -0.3667  0.3091 -0.0239
  128CHL1   H7A15670   0.764   0.201  14.644 -1.7940  0.1782  0.7142
  128CHL1   H7B15671   0.786   0.375  14.627 -0.6889  0.1924  0.7090
  128CHL1    C815672   0.573   0.311  14.627  0.0672  0.1209 -0.4327
  128CHL1    H815673   0.533   0.208  14.613  1.1614 -0.3646 -0.0879
  128CHL1   C1415674   0.566   0.345  14.777  0.1817  0.4474 -0.3733
  128CHL1   H1415675   0.608   0.446  14.794  0.1186  0.5728 -0.9195
  128CHL1   C1515676   0.636   0.256  14.890  0.2590  0.4737  0.7157
  128CHL1  H15A15677   0.615   0.150  14.868 -0.1332  0.2149  2.2567
  128CHL1  H15B15678   0.746   0.268  14.883  0.6125 -2.0189  1.2776
  128CHL1   C1615679   0.560   0.284  15.014  0.4331 -0.1445 -0.0071
  128CHL1  H16A15680   0.514   0.194  15.059  0.0177  0.1544  0.1744
  128CHL1  H16B15681   0.616   0.336  15.095 -1.6705 -0.1016  1.5008
  128CHL1   C1715682   0.444   0.383  14.976 -0.0194 -0.1507  0.4528
  128CHL1   H1715683   0.491   0.484  14.975  0.5893 -0.3230 -3.3848
  128CHL1   C1315684   0.421   0.361  14.825  0.7037 -0.1806  0.7830
  128CHL1   C1815685   0.340   0.239  14.789 -0.3330 -0.2359 -0.2070
  128CHL1  H18A15686   0.365   0.141  14.835  0.3323 -0.8707 -1.8210
  128CHL1  H18B15687   0.242   0.262  14.836  1.4876  2.5396  2.7003
  128CHL1  H18C15688   0.328   0.218  14.681 -0.6543  1.4240 -0.5250
  128CHL1   C1215689   0.374   0.491  14.749 -0.0277  0.0130 -0.2633
  128CHL1  H12A15690   0.275   0.528  14.783 -0.0799 -0.9212  0.6627
  128CHL1  H12B15691   0.446   0.571  14.778  0.2671 -0.1214 -0.6091
  128CHL1   C1115692   0.384   0.478  14.596  0.5294  0.1181  0.0606
  128CHL1  H11A15693   0.294   0.417  14.572 -0.5827  0.7802  2.3408
  128CHL1  H11B15694   0.368   0.575  14.544  0.9448  0.6318  0.8716
  128CHL1    C915695   0.516   0.422  14.544 -0.7881  0.2551  0.1515
  128CHL1    H915696   0.588   0.506  14.551 -0.1960 -0.0952 -1.3064
  128CHL1   C1015697   0.514   0.383  14.397 -0.0176 -0.2349  0.2566
  128CHL1   C1915698   0.415   0.276  14.369  0.4526  0.0258 -0.2718
  128CHL1  H19A15699   0.444   0.176  14.407 -0.7141  0.0559  0.7635
  128CHL1  H19B15700   0.318   0.303  14.416  0.3579 -1.8889  0.6991
  128CHL1  H19C15701   0.394   0.273  14.260  2.1963  3.1320 -0.8322
  128CHL1    C115702   0.475   0.504  14.311  0.6423  0.2761  0.5741
  128CHL1   H1A15703   0.370   0.538  14.320  0.1325 -0.1899 -2.4776
  128CHL1   H1B15704   0.555   0.579  14.332  0.8305  1.0318 -2.4669
  128CHL1    C215705   0.497   0.487  14.163  0.4836  0.1491  0.5176
  128CHL1   H2A15706   0.487   0.583  14.109  2.2299 -1.8697 -3.8748
  128CHL1   H2B15707   0.429   0.412  14.118  1.4906 -1.6166  1.7993
  128CHL1   C2015708   0.321   0.389  15.075 -0.0832 -0.1518  0.3694
  128CHL1   H2015709   0.257   0.299  15.057  1.0717 -1.7776  3.5214
  128CHL1   C2115710   0.240   0.513  15.046  0.5229 -0.6751 -0.0648
  128CHL1  H21A15711   0.176   0.488  14.960  0.2176  1.9603 -0.6799
  128CHL1  H21B15712   0.320   0.586  15.022 -0.0429 -0.6199 -1.8910
  128CHL1  H21C15713   0.170   0.540  15.128  0.3871 -0.1877 -0.3432
  128CHL1   C2215714   0.361   0.375  15.225 -0.3398  0.6725  0.4674
  128CHL1  H22A15715   0.384   0.268  15.243 -1.5890  0.6262  1.9538
  128CHL1  H22B15716   0.454   0.432  15.246 -0.1335  0.7622 -0.6008
  128CHL1   C2315717   0.245   0.399  15.326 -0.7757  0.1804  0.2092
  128CHL1  H23A15718   0.214   0.505  15.331  0.4724  0.5524  0.5022
  128CHL1  H23B15719   0.166   0.326  15.301 -3.0067  2.0930  1.3469
  128CHL1   C2415720   0.298   0.360  15.463  0.2811 -0.5146  0.0555
  128CHL1  H24A15721   0.310   0.250  15.473  1.4641 -0.4309 -0.2879
  128CHL1  H24B15722   0.399   0.405  15.477 -0.5129  1.0775  0.8377
  128CHL1   C2515723   0.219   0.401  15.588  0.3795 -0.1935 -0.4888
  128CHL1   H2515724   0.215   0.510  15.569  1.0489  0.1539  1.1915
  128CHL1   C2615725   0.085   0.317  15.583 -0.4949  0.2873 -0.4512
  128CHL1  H26A15726   0.042   0.332  15.481  0.8011  2.7026 -0.7212
  128CHL1  H26B15727   0.108   0.209  15.595  0.1800  0.3285 -1.2893
  128CHL1  H26C15728   0.021   0.360  15.663  2.0419 -0.3305  2.0678
  128CHL1   C2715729   0.287   0.383  15.730  0.2777 -0.9435  0.2947
  128CHL1  H27A15730   0.396   0.404  15.730  0.5440 -2.0236 -1.9290
  128CHL1  H27B15731   0.234   0.454  15.797  2.0522  0.5139  0.2218
  128CHL1  H27C15732   0.279   0.280  15.772 -0.2703  0.5436  4.2746
  129CHL1    C315733   4.544   2.292  12.764  0.1259  0.0574 -0.2931
  129CHL1    H315734   4.446   2.253  12.799  0.3157 -0.4311 -0.3029
  129CHL1    O315735   4.554   2.271  12.624  0.2022  0.3662 -0.2485
  129CHL1   H3'15736   4.565   2.178  12.604 -2.2446  0.2136 -1.2196
  129CHL1    C415737   4.566   2.436  12.811 -0.1505  0.7588  0.1199
  129CHL1   H4A15738   4.666   2.462  12.771 -0.2643  0.7083 -0.2070
  129CHL1   H4B15739   4.488   2.493  12.755 -0.6232 -0.0192 -0.0335
  129CHL1    C515740   4.566   2.461  12.961 -0.4010  0.0846  0.2493
  129CHL1    C615741   4.476   2.550  13.008  0.1735 -0.1330  0.6633
  129CHL1    H615742   4.418   2.607  12.934 -0.6639 -1.8544 -0.0648
  129CHL1    C715743   4.451   2.566  13.157 -0.0562  0.1788 -0.1531
  129CHL1   H7A15744   4.426   2.670  13.184 -1.2883 -0.5632  1.7650
  129CHL1   H7B15745   4.362   2.506  13.188 -0.6943  1.7412  1.1447
  129CHL1    C815746   4.577   2.509  13.238  0.5160 -0.7081 -0.5087
  129CHL1    H815747   4.654   2.586  13.219  0.5983 -1.3365 -2.9504
  129CHL1   C1415748   4.535   2.495  13.389  0.4228 -0.3894  0.3939
  129CHL1   H1415749   4.456   2.417  13.382  0.2173 -0.1032 -0.6573
  129CHL1   C1515750   4.470   2.615  13.468 -0.4646 -0.0470 -0.2978
  129CHL1  H15A15751   4.524   2.711  13.454 -0.7012  0.0498 -0.5593
  129CHL1  H15B15752   4.363   2.619  13.439 -0.2283 -3.4766 -2.2069
  129CHL1   C1615753   4.484   2.579  13.620  0.2214 -0.2731  0.5593
  129CHL1  H16A15754   4.541   2.658  13.672  2.5013 -1.9095  0.7000
  129CHL1  H16B15755   4.382   2.580  13.662 -0.2660  1.5344 -0.5755
  129CHL1   C1715756   4.569   2.446  13.626  0.4158 -0.6310  0.0796
  129CHL1   H1715757   4.499   2.359  13.618 -0.7496  0.4284 -2.4537
  129CHL1   C1315758   4.643   2.444  13.490 -0.8231 -1.2487 -0.3060
  129CHL1   C1815759   4.757   2.544  13.506  0.0451 -0.2922 -0.4158
  129CHL1  H18A15760   4.720   2.649  13.512 -0.5242 -0.5454  0.5616
  129CHL1  H18B15761   4.813   2.531  13.601 -1.0868 -0.4718  0.2406
  129CHL1  H18C15762   4.826   2.543  13.418 -0.2063 -1.9513 -0.6117
  129CHL1   C1215763   4.696   2.313  13.435 -0.3015  0.2585 -0.4184
  129CHL1  H12A15764   4.771   2.258  13.496 -0.8272 -1.4901 -1.2646
  129CHL1  H12B15765   4.615   2.236  13.433  1.4959 -1.7044 -0.6494
  129CHL1   C1115766   4.742   2.313  13.284 -0.4258 -0.4905 -0.2160
  129CHL1  H11A15767   4.834   2.376  13.275 -0.8028  0.0627 -0.2689
  129CHL1  H11B15768   4.752   2.210  13.245  1.3806 -0.2900 -0.3697
  129CHL1    C915769   4.631   2.374  13.192  0.2202 -0.5680  0.2797
  129CHL1    H915770   4.542   2.312  13.214 -1.2552  0.2596 -2.7580
  129CHL1   C1015771   4.661   2.368  13.040  0.6979  0.1297 -0.8282
  129CHL1   C1915772   4.811   2.399  13.019  0.2930 -0.2111  0.2863
  129CHL1  H19A15773   4.839   2.410  12.913 -0.4121  0.0823  0.1224
  129CHL1  H19B15774   4.833   2.498  13.064  0.8723  0.6506 -1.8019
  129CHL1  H19C15775   4.866   2.317  13.070 -0.7900  0.0231  1.9342
  129CHL1    C115776   4.630   2.223  12.991  0.1151 -0.0392  0.7432
  129CHL1   H1A15777   4.702   2.160  13.049 -0.7323 -1.2661  0.5058
  129CHL1   H1B15778   4.524   2.195  13.006 -0.6774  1.1796 -2.0381
  129CHL1    C215779   4.647   2.206  12.838  0.1020 -0.0595  0.3297
  129CHL1   H2A15780   4.621   2.100  12.815  0.8528 -0.3734  0.8758
  129CHL1   H2B15781   4.751   2.236  12.811  0.0475  0.4579  0.6907
  129CHL1   C2015782   4.637   2.418  13.762  0.5261 -0.6597 -0.7612
  129CHL1   H2015783   4.729   2.480  13.769  0.6358 -0.8855 -0.1644
  129CHL1   C2115784   4.672   2.269  13.773  0.0447  0.2374 -0.4556
  129CHL1  H21A15785   4.727   2.249  13.868 -0.8941 -1.5120 -0.2398
  129CHL1  H21B15786   4.738   2.226  13.694 -1.0619 -2.5429 -0.0005
  129CHL1  H21C15787   4.574   2.217  13.779  0.0080  0.3350 -0.1956
  129CHL1   C2215788   4.550   2.457  13.890  0.1601  0.8886  0.3027
  129CHL1  H22A15789   4.509   2.560  13.884 -0.7664  0.5045 -0.1848
  129CHL1  H22B15790   4.471   2.379  13.897  1.4295 -0.6870 -1.5949
  129CHL1   C2315791   4.630   2.449  14.014 -0.7575 -0.5995 -0.2094
  129CHL1  H23A15792   4.658   2.346  14.044  1.3922 -0.0818 -0.2741
  129CHL1  H23B15793   4.722   2.512  14.013 -0.2905 -1.2645 -1.9210
  129CHL1   C2415794   4.538   2.499  14.131 -0.0267  0.1772  0.7059
  129CHL1  H24A15795   4.493   2.594  14.097  1.8412  0.5541 -0.8870
  129CHL1  H24B15796   4.455   2.427  14.150 -0.4624 -0.1908 -2.2255
  129CHL1   C2515797   4.612   2.523  14.265 -0.1284 -0.4157 -0.0143
  129CHL1   H2515798   4.698   2.589  14.245 -0.3674 -0.3003 -0.6818
  129CHL1   C2615799   4.526   2.595  14.370 -0.6334 -0.0137  0.1022
  129CHL1  H26A15800   4.582   2.618  14.463  1.1951  1.1952 -1.2314
  129CHL1  H26B15801   4.494   2.689  14.320  1.1149  0.7532  0.3304
  129CHL1  H26C15802   4.436   2.533  14.388  0.3290 -1.1580  1.1948
  129CHL1   C2715803   4.678   2.392  14.314  0.4154 -0.2740  0.3809
  129CHL1  H27A15804   4.593   2.322  14.326 -0.5566  1.0930  1.8881
  129CHL1  H27B15805   4.751   2.344  14.245  0.1962 -1.6043  1.0410
  129CHL1  H27C15806   4.734   2.405  14.409  0.4011 -1.0534  0.5079
  130CHL1    C315807   1.693   3.300  13.410  0.8495 -0.6675 -0.0995
  130CHL1    H315808   1.603   3.241  13.438  0.4724 -0.3270 -0.5768
  130CHL1    O315809   1.676   3.343  13.275  0.4280 -0.4691 -0.0880
  130CHL1   H3'15810   1.724   3.424  13.258 -3.5122  2.0495 -0.6351
  130CHL1    C415811   1.707   3.426  13.495 -0.2234  0.0901 -0.1445
  130CHL1   H4A15812   1.796   3.475  13.449  0.1450 -1.2245 -0.9107
  130CHL1   H4B15813   1.615   3.486  13.477 -0.8047 -0.1201  1.9332
  130CHL1    C515814   1.744   3.397  13.639  0.0267  0.1726  0.3786
  130CHL1    C615815   1.670   3.443  13.737 -0.2192 -0.2161  0.0332
  130CHL1    H615816   1.586   3.509  13.711  0.4958  1.1997  1.1703
  130CHL1    C715817   1.698   3.429  13.882  0.0462 -0.2404 -0.6780
  130CHL1   H7A15818   1.688   3.525  13.938 -3.8293 -1.3788  0.9067
  130CHL1   H7B15819   1.631   3.357  13.935  0.0558  0.0492 -0.2647
  130CHL1    C815820   1.836   3.372  13.909  0.2920 -0.3259 -0.5434
  130CHL1    H815821   1.911   3.453  13.891  2.5648 -1.8631  1.4073
  130CHL1   C1415822   1.843   3.317  14.053  0.4220  0.1019 -0.1466
  130CHL1   H1415823   1.764   3.239  14.054 -1.3253  1.7863 -0.6151
  130CHL1   C1515824   1.786   3.412  14.165 -0.1417  0.1107 -0.1881
  130CHL1  H15A15825   1.814   3.519  14.152  1.6582 -0.1954  0.7981
  130CHL1  H15B15826   1.675   3.404  14.170 -0.0487 -0.5081  1.3703
  130CHL1   C1615827   1.854   3.356  14.287  0.0904  0.4327  0.5944
  130CHL1  H16A15828   1.904   3.450  14.320  2.1487  0.6669 -2.7661
  130CHL1  H16B15829   1.773   3.327  14.357 -1.4464  2.7016 -0.1086
  130CHL1   C1715830   1.954   3.245  14.250  0.4107 -1.0606  0.2335
  130CHL1   H1715831   1.896   3.153  14.270  2.4069 -2.2060  1.0323
  130CHL1   C1315832   1.978   3.263  14.104  0.5469  0.1619  0.4440
  130CHL1   C1815833   2.086   3.379  14.093  0.0485  0.3401  0.2371
  130CHL1  H18A15834   2.189   3.349  14.120 -0.1782  0.9581  1.9164
  130CHL1  H18B15835   2.087   3.437  13.998  1.3493  1.5432  0.9464
  130CHL1  H18C15836   2.064   3.459  14.167 -1.9550  0.7485 -0.7399
  130CHL1   C1215837   2.001   3.141  14.006  1.1887  0.6494 -0.5147
  130CHL1  H12A15838   2.096   3.087  14.024  1.6701  1.3645 -0.8693
  130CHL1  H12B15839   1.915   3.071  14.011  1.7502 -0.2049 -2.1629
  130CHL1   C1115840   2.010   3.185  13.857  0.7724  0.0162 -0.0275
  130CHL1  H11A15841   2.101   3.247  13.847 -0.8516  2.1207 -4.3329
  130CHL1  H11B15842   2.027   3.095  13.795  2.4158  0.5265 -0.3598
  130CHL1    C915843   1.873   3.263  13.808 -0.1098  0.1420 -0.1220
  130CHL1    H915844   1.794   3.185  13.809  0.1354 -0.1170  1.3875
  130CHL1   C1015845   1.867   3.306  13.657 -0.1972  0.5908 -0.4377
  130CHL1   C1915846   1.998   3.378  13.630 -0.0691 -0.1150  0.9406
  130CHL1  H19A15847   1.999   3.423  13.528  1.6409 -1.6537  0.2096
  130CHL1  H19B15848   2.023   3.459  13.703 -1.3468  2.3092 -1.1415
  130CHL1  H19C15849   2.085   3.308  13.629  0.8763  0.9702 -1.2993
  130CHL1    C115850   1.858   3.178  13.559 -0.5904  0.1586 -0.3192
  130CHL1   H1A15851   1.959   3.132  13.567  0.0155  1.6462  1.0925
  130CHL1   H1B15852   1.772   3.116  13.592 -0.4528 -0.0246 -0.3043
  130CHL1    C215853   1.824   3.219  13.416 -0.3633 -0.5253  0.3027
  130CHL1   H2A15854   1.806   3.128  13.354 -0.3853 -0.6946  0.5551
  130CHL1   H2B15855   1.905   3.279  13.369 -3.3563  1.7148 -2.5002
  130CHL1   C2015856   2.077   3.237  14.348 -0.5115 -0.1856 -0.4706
  130CHL1   H2015857   2.157   3.313  14.334  1.1631 -1.6582  0.7300
  130CHL1   C2115858   2.143   3.100  14.324 -0.0925  0.6499  0.4412
  130CHL1  H21A15859   2.235   3.081  14.382  0.9223 -0.3371 -1.3810
  130CHL1  H21B15860   2.174   3.102  14.217  2.2470  1.3299  1.0725
  130CHL1  H21C15861   2.074   3.014  14.339  0.6454 -0.3886 -1.6733
  130CHL1   C2215862   2.034   3.271  14.494 -0.1289  0.2897 -0.5918
  130CHL1  H22A15863   2.033   3.381  14.503  0.3192  0.2738 -0.3210
  130CHL1  H22B15864   1.945   3.216  14.533  1.0091 -0.4080  1.1628
  130CHL1   C2315865   2.145   3.231  14.598 -0.1041  0.7602 -0.1516
  130CHL1  H23A15866   2.143   3.120  14.600 -2.3388  0.6890 -1.9931
  130CHL1  H23B15867   2.241   3.279  14.569 -0.0187 -0.0580 -1.2548
  130CHL1   C2415868   2.123   3.274  14.745 -0.3348 -0.1053 -0.6608
  130CHL1  H24A15869   2.118   3.385  14.747 -1.1706 -0.1395  2.1558
  130CHL1  H24B15870   2.033   3.224  14.785  0.6367 -2.3350 -1.0890
  130CHL1   C2515871   2.243   3.230  14.839 -0.1608  0.0200 -0.3028
  130CHL1   H2515872   2.238   3.121  14.857 -1.6048  0.1873  0.4762
  130CHL1   C2615873   2.392   3.253  14.785 -0.7481  0.1515  0.3659
  130CHL1  H26A15874   2.392   3.356  14.745 -1.2811  0.0136 -0.0030
  130CHL1  H26B15875   2.461   3.247  14.872 -0.5845  3.0670  0.5375
  130CHL1  H26C15876   2.423   3.170  14.718 -0.4443  1.7639 -1.5562
  130CHL1   C2715877   2.239   3.304  14.972 -0.2829  0.0532 -0.2293
  130CHL1  H27A15878   2.328   3.284  15.034 -1.1649  0.2258  1.1193
  130CHL1  H27B15879   2.245   3.414  14.963 -1.7288  0.2210  0.4829
  130CHL1  H27C15880   2.146   3.272  15.024 -0.8709  0.5991 -0.9123
  131CHL1    C315881   1.164   2.109  14.363 -0.3686  0.5007  1.0154
  131CHL1    H315882   1.167   2.217  14.386 -0.9129  0.5924  0.6730
  131CHL1    O315883   1.081   2.105  14.248  0.0926  0.2696 -0.0100
  131CHL1   H3'15884   1.124   2.153  14.177  1.2051 -0.8242 -0.1019
  131CHL1    C415885   1.306   2.053  14.338  1.1463  0.2595  0.6461
  131CHL1   H4A15886   1.300   1.949  14.299  0.1073  0.9060 -1.0203
  131CHL1   H4B15887   1.360   2.108  14.258 -0.5848 -0.1241 -0.8586
  131CHL1    C515888   1.375   2.056  14.470  0.2766  0.1145  0.2064
  131CHL1    C615889   1.490   2.124  14.486 -0.1015  0.3827 -0.2885
  131CHL1    H615890   1.529   2.189  14.407 -1.6265  3.0960  1.0482
  131CHL1    C715891   1.572   2.124  14.612  0.8135  0.0145  0.2562
  131CHL1   H7A15892   1.677   2.118  14.576  0.4842 -2.1206 -0.4469
  131CHL1   H7B15893   1.556   2.219  14.667 -2.0853 -0.3481  0.1475
  131CHL1    C815894   1.539   1.999  14.696  0.1330 -0.3064 -0.5756
  131CHL1    H815895   1.585   1.919  14.634  1.3355  1.5198 -2.1628
  131CHL1   C1415896   1.614   2.007  14.833 -0.2673  0.4110 -0.5081
  131CHL1   H1415897   1.573   2.101  14.877 -0.5478  0.1196 -0.1446
  131CHL1   C1515898   1.768   2.032  14.838  0.9968 -0.1229  1.1189
  131CHL1  H15A15899   1.816   1.969  14.760 -0.0498 -0.4358  0.7128
  131CHL1  H15B15900   1.792   2.140  14.832  0.0793  0.0322 -2.8927
  131CHL1   C1615901   1.809   1.982  14.978  0.0973  0.1432  0.3925
  131CHL1  H16A15902   1.899   1.918  14.981 -0.1222 -0.1223  1.9839
  131CHL1  H16B15903   1.852   2.067  15.036  1.9644  1.0668 -2.1851
  131CHL1   C1715904   1.677   1.918  15.043 -0.0579 -0.5968 -0.0095
  131CHL1   H1715905   1.635   1.997  15.108 -0.8952 -2.1792  1.4629
  131CHL1   C1315906   1.576   1.900  14.932  0.0109  0.0048  0.2701
  131CHL1   C1815907   1.618   1.767  14.859  0.0834 -0.2755  0.7178
  131CHL1  H18A15908   1.728   1.755  14.863  0.2846  0.8203 -0.7066
  131CHL1  H18B15909   1.582   1.678  14.914  0.3614 -0.6300  0.3278
  131CHL1  H18C15910   1.589   1.754  14.753  0.6466 -0.7472  0.6201
  131CHL1   C1215911   1.425   1.915  14.959 -0.4671  0.2710 -0.2520
  131CHL1  H12A15912   1.387   1.834  15.025  0.4910  0.5307  0.6488
  131CHL1  H12B15913   1.405   2.018  14.995  2.5103  0.7647  0.2609
  131CHL1   C1115914   1.345   1.892  14.826 -1.0329 -0.2030  0.9225
  131CHL1  H11A15915   1.373   1.791  14.790  0.2514 -0.2242  1.9084
  131CHL1  H11B15916   1.236   1.910  14.839 -0.6509  1.6008  2.1280
  131CHL1    C915917   1.387   1.991  14.715 -0.1967 -0.2998  0.4375
  131CHL1    H915918   1.360   2.092  14.751  0.0992  0.0168 -0.2012
  131CHL1   C1015919   1.309   1.972  14.580 -0.0991 -0.1397  0.0288
  131CHL1   C1915920   1.309   1.821  14.550 -0.1167 -0.0198 -0.4858
  131CHL1  H19A15921   1.236   1.768  14.614  0.6149 -1.6980 -0.9982
  131CHL1  H19B15922   1.277   1.784  14.450  0.5654 -1.1411 -0.3027
  131CHL1  H19C15923   1.411   1.783  14.568  0.4371  0.5737 -2.1319
  131CHL1    C115924   1.167   2.022  14.594  0.2382 -0.0597  0.2413
  131CHL1   H1A15925   1.108   1.970  14.673 -0.1269  0.5864  0.4066
  131CHL1   H1B15926   1.173   2.131  14.614 -1.6966  0.0639  0.3993
  131CHL1    C215927   1.085   2.021  14.463 -0.1188  0.0487  0.1861
  131CHL1   H2A15928   0.981   2.062  14.467 -0.8352 -1.7411  0.8149
  131CHL1   H2B15929   1.085   1.916  14.428  0.0270  0.4428 -1.0595
  131CHL1   C2015930   1.705   1.812  15.136 -0.2549  0.4576 -0.0245
  131CHL1   H2015931   1.745   1.720  15.088 -1.7567 -0.0472 -0.3653
  131CHL1   C2115932   1.573   1.765  15.195 -0.1715 -0.2431  0.4847
  131CHL1  H21A15933   1.521   1.858  15.227  0.1846  0.9034 -1.9937
  131CHL1  H21B15934   1.593   1.699  15.282  1.0583 -1.2942 -0.5550
  131CHL1  H21C15935   1.507   1.710  15.124 -0.9339  1.3553 -0.1124
  131CHL1   C2215936   1.804   1.842  15.247 -0.6340 -0.5916 -0.7194
  131CHL1  H22A15937   1.818   1.747  15.301 -0.9244  0.3976  1.1625
  131CHL1  H22B15938   1.900   1.880  15.206 -1.2538  0.9948 -0.8218
  131CHL1   C2315939   1.749   1.951  15.348  0.2416  0.6346  0.5334
  131CHL1  H23A15940   1.737   2.046  15.291  3.0396  0.8410  0.1604
  131CHL1  H23B15941   1.654   1.912  15.391  0.9064  0.2815  1.7376
  131CHL1   C2415942   1.854   1.964  15.464 -0.3746 -0.1892 -0.1273
  131CHL1  H24A15943   1.831   1.875  15.526 -0.9217 -0.3984 -0.6228
  131CHL1  H24B15944   1.956   1.946  15.425 -0.1523  0.0472  0.3352
  131CHL1   C2515945   1.841   2.092  15.552  0.0676  0.4902  0.3970
  131CHL1   H2515946   1.731   2.106  15.559  0.2460  2.5174 -0.0869
  131CHL1   C2615947   1.894   2.082  15.694  0.0220  0.4942  0.5010
  131CHL1  H26A15948   2.002   2.059  15.685 -0.1005 -0.1083  0.4910
  131CHL1  H26B15949   1.877   2.174  15.754 -2.1695 -0.3626  1.3098
  131CHL1  H26C15950   1.854   2.000  15.758  0.4492 -1.5161 -1.6641
  131CHL1   C2715951   1.893   2.212  15.477  0.5399  0.3993  0.1462
  131CHL1  H27A15952   1.906   2.295  15.551 -0.9177 -0.4978  1.4551
  131CHL1  H27B15953   1.995   2.196  15.435 -0.1863 -1.4245 -1.0139
  131CHL1  H27C15954   1.810   2.237  15.409  1.1459  2.4260  0.0825
  132CHL1    C315955   2.900   3.036  13.193  0.4814 -0.3290 -0.1231
  132CHL1    H315956   2.859   2.937  13.220 -2.4450  0.4437 -1.4079
  132CHL1    O315957   2.876   3.055  13.050 -0.0488  0.4649 -0.5400
  132CHL1   H3'15958   2.958   3.092  13.015  0.8242 -0.3546  0.5623
  132CHL1    C415959   2.804   3.139  13.266  0.7355  0.0140 -0.0188
  132CHL1   H4A15960   2.811   3.238  13.216  1.2630 -0.1750 -0.3379
  132CHL1   H4B15961   2.706   3.090  13.249  0.8936  0.0626 -1.1420
  132CHL1    C515962   2.829   3.157  13.413 -0.3849 -0.2544  0.3149
  132CHL1    C615963   2.732   3.144  13.506 -0.2792  0.3817  0.1863
  132CHL1    H615964   2.628   3.118  13.480 -0.2951  0.1431  0.4845
  132CHL1    C715965   2.768   3.158  13.651 -0.1223 -0.1769 -0.2264
  132CHL1   H7A15966   2.685   3.203  13.710 -1.1177 -0.3800 -1.4352
  132CHL1   H7B15967   2.785   3.057  13.694  0.6822  0.5329  1.2288
  132CHL1    C815968   2.905   3.229  13.687  0.4328 -0.0627  0.3206
  132CHL1    H815969   2.890   3.336  13.662 -0.0466  0.3760  2.2945
  132CHL1   C1415970   2.947   3.195  13.828 -0.4903 -0.8453 -0.3326
  132CHL1   H1415971   2.962   3.085  13.827 -0.0554 -0.9109  2.7765
  132CHL1   C1515972   2.845   3.212  13.934  0.6663 -0.3733  0.1939
  132CHL1  H15A15973   2.790   3.309  13.924 -0.0250 -0.8019 -0.2905
  132CHL1  H15B15974   2.773   3.128  13.931  0.5591 -0.3172 -3.1258
  132CHL1   C1615975   2.927   3.205  14.062 -0.5804 -0.0638  0.1769
  132CHL1  H16A15976   2.918   3.305  14.111  1.9054 -0.1243  0.8595
  132CHL1  H16B15977   2.894   3.123  14.129  0.7285 -1.1506 -0.4707
  132CHL1   C1715978   3.079   3.200  14.026 -0.0073  0.2739  0.2772
  132CHL1   H1715979   3.124   3.098  14.029  2.0283  1.0930 -0.4687
  132CHL1   C1315980   3.076   3.261  13.880 -0.4718  0.3927 -0.3477
  132CHL1   C1815981   3.053   3.414  13.886  0.9070  0.6234 -0.2851
  132CHL1  H18A15982   3.143   3.451  13.940  0.6050  0.9831 -0.0273
  132CHL1  H18B15983   3.044   3.463  13.787 -0.7182  0.7098 -0.1179
  132CHL1  H18C15984   2.970   3.431  13.957  0.6966 -2.7951  0.4641
  132CHL1   C1215985   3.187   3.214  13.781  0.0124  0.5766  0.8462
  132CHL1  H12A15986   3.283   3.264  13.807  0.5619 -0.9451  1.8731
  132CHL1  H12B15987   3.199   3.105  13.797 -1.0392 -0.1380 -2.5027
  132CHL1   C1115988   3.155   3.229  13.630  0.2652 -0.1623  0.5592
  132CHL1  H11A15989   3.157   3.338  13.610  0.6501 -0.5126 -1.5500
  132CHL1  H11B15990   3.226   3.171  13.567 -1.7978 -0.8160 -1.2905
  132CHL1    C915991   3.013   3.171  13.601  0.2425 -0.1594 -0.0857
  132CHL1    H915992   3.024   3.062  13.618  0.8370  0.1905  2.0555
  132CHL1   C1015993   2.975   3.181  13.451  0.1435  0.3638  0.3425
  132CHL1   C1915994   3.001   3.325  13.400 -0.8954 -0.8619 -0.8320
  132CHL1  H19A15995   2.939   3.382  13.472  0.9428 -0.2470  0.3369
  132CHL1  H19B15996   3.107   3.352  13.420 -1.8571  2.3271  0.6681
  132CHL1  H19C15997   2.970   3.339  13.294 -2.5895  1.0840 -0.1429
  132CHL1    C115998   3.065   3.077  13.380  0.1826 -0.3349  0.2867
  132CHL1   H1A15999   3.174   3.096  13.386  0.4728 -1.9581  0.5106
  132CHL1   H1B16000   3.036   2.984  13.433 -1.4822  0.1789  0.3372
  132CHL1    C216001   3.042   3.071  13.228 -0.7102  0.4092  0.4569
  132CHL1   H2A16002   3.112   2.994  13.190  0.1687  1.0923  0.6390
  132CHL1   H2B16003   3.081   3.168  13.189  2.0139 -0.6010  0.4028
  132CHL1   C2016004   3.163   3.268  14.135  0.0054 -0.4719  0.2164
  132CHL1   H2016005   3.126   3.373  14.135  1.3340  0.0214  1.2906
  132CHL1   C2116006   3.308   3.263  14.088  0.2445 -0.0087  0.1641
  132CHL1  H21A16007   3.373   3.300  14.170  0.0811 -2.4530  1.4893
  132CHL1  H21B16008   3.319   3.331  14.001  2.0837 -1.2148 -0.6154
  132CHL1  H21C16009   3.356   3.167  14.057  1.2696  0.2810  0.7987
  132CHL1   C2216010   3.149   3.222  14.279  0.1946 -0.4160 -0.4482
  132CHL1  H22A16011   3.044   3.189  14.297 -0.1636  0.6123 -0.6111
  132CHL1  H22B16012   3.211   3.131  14.297  1.7020  0.5785 -0.3788
  132CHL1   C2316013   3.175   3.331  14.378  0.0903  0.5811 -0.2534
  132CHL1  H23A16014   3.281   3.362  14.369 -0.4303  2.8763  0.8296
  132CHL1  H23B16015   3.103   3.411  14.348 -0.6401  1.1557  2.7651
  132CHL1   C2416016   3.139   3.275  14.517 -0.2250 -0.4872  0.2554
  132CHL1  H24A16017   3.032   3.247  14.515 -0.2594 -0.3394 -0.1768
  132CHL1  H24B16018   3.193   3.178  14.521  1.2599  0.1693 -1.7922
  132CHL1   C2516019   3.183   3.362  14.631  0.2298  0.5988  0.4009
  132CHL1   H2516020   3.159   3.468  14.610  1.7233  1.1210  1.1593
  132CHL1   C2616021   3.125   3.307  14.758 -0.5183  0.4634 -0.5386
  132CHL1  H26A16022   3.154   3.370  14.845  1.8690  0.8868 -1.5792
  132CHL1  H26B16023   3.014   3.313  14.752 -0.7400 -1.4264  0.7240
  132CHL1  H26C16024   3.148   3.199  14.765  0.4831  0.7612  1.2882
  132CHL1   C2716025   3.336   3.366  14.648  0.3231  0.0558  0.2651
  132CHL1  H27A16026   3.380   3.426  14.566  2.2757 -0.8579  0.6002
  132CHL1  H27B16027   3.361   3.401  14.750  1.2923  0.2729 -0.0415
  132CHL1  H27C16028   3.364   3.259  14.647  0.3788  0.0679 -0.5545
  133CHL1    C316029   0.131   5.435  13.887  0.5562 -0.0844  0.5187
  133CHL1    H316030   0.023   5.454  13.907  0.2644 -2.1968  1.1995
  133CHL1    O316031   0.153   5.409  13.750  0.2162  0.6814  0.0485
  133CHL1   H3'16032   0.111   5.323  13.738  2.3934 -0.4463  0.0167
  133CHL1    C416033   0.216   5.557  13.912  0.1528  0.1634  0.7022
  133CHL1   H4A16034   0.318   5.534  13.875 -0.1927 -2.2340  1.0798
  133CHL1   H4B16035   0.175   5.641  13.852  1.9908  1.3170  0.9801
  133CHL1    C516036   0.223   5.600  14.057 -0.2273  0.0306 -0.8278
  133CHL1    C616037   0.196   5.726  14.098 -0.1245 -0.1640 -0.1519
  133CHL1    H616038   0.179   5.811  14.031  0.4467 -0.0575 -0.1681
  133CHL1    C716039   0.203   5.778  14.238 -0.4551  0.2258 -0.6937
  133CHL1   H7A16040   0.254   5.877  14.244 -0.5200  0.2373 -0.2978
  133CHL1   H7B16041   0.098   5.801  14.266  0.0555 -0.4232  2.0535
  133CHL1    C816042   0.252   5.666  14.335 -0.3285 -0.4389  0.6807
  133CHL1    H816043   0.363   5.666  14.344 -0.1820 -1.5599 -0.6883
  133CHL1   C1416044   0.204   5.702  14.472  0.6697 -0.3279 -0.8276
  133CHL1   H1416045   0.093   5.699  14.473  0.6888 -2.4411 -0.6410
  133CHL1   C1516046   0.233   5.845  14.522  0.7606 -0.1260  0.5182
  133CHL1  H15A16047   0.339   5.860  14.491  0.9798 -1.9523  0.2799
  133CHL1  H15B16048   0.168   5.921  14.474  0.0397 -0.2457  1.2688
  133CHL1   C1616049   0.217   5.837  14.677  0.7552  0.3673 -0.3037
  133CHL1  H16A16050   0.314   5.869  14.721  1.7933 -0.6542 -1.7656
  133CHL1  H16B16051   0.127   5.896  14.706 -0.3603 -0.2557 -2.3352
  133CHL1   C1716052   0.194   5.681  14.711 -0.0188  0.0213  0.7478
  133CHL1   H1716053   0.084   5.666  14.706 -0.0642  0.2682  1.0019
  133CHL1   C1316054   0.253   5.608  14.583 -0.5718  0.1877 -0.4660
  133CHL1   C1816055   0.407   5.592  14.601  0.7124 -0.0047 -0.1001
  133CHL1  H18A16056   0.454   5.679  14.651 -1.8343  2.4079 -1.6454
  133CHL1  H18B16057   0.428   5.495  14.652 -0.1567  0.3202  0.8972
  133CHL1  H18C16058   0.460   5.582  14.503 -0.8122 -0.6343 -0.8953
  133CHL1   C1216059   0.184   5.471  14.557 -0.0105  0.1391  0.1195
  133CHL1  H12A16060   0.216   5.386  14.622 -0.0325 -0.3021 -0.4343
  133CHL1  H12B16061   0.075   5.485  14.564 -0.0354  0.3810 -0.6566
  133CHL1   C1116062   0.220   5.424  14.412 -0.4130 -0.2028 -0.9238
  133CHL1  H11A16063   0.329   5.405  14.405 -0.2546 -0.3217  1.1610
  133CHL1  H11B16064   0.170   5.329  14.386  0.1496 -0.9116  0.4698
  133CHL1    C916065   0.195   5.531  14.301  0.1556 -1.1025 -0.5001
  133CHL1    H916066   0.085   5.536  14.300  0.1704  3.2890  0.0489
  133CHL1   C1016067   0.245   5.485  14.157  0.8905  0.2727  0.3113
  133CHL1   C1916068   0.393   5.444  14.160 -0.8222 -0.3037  0.3114
  133CHL1  H19A16069   0.466   5.519  14.195  0.7409 -2.1620  1.1972
  133CHL1  H19B16070   0.402   5.350  14.219  0.7546 -0.1818  0.3026
  133CHL1  H19C16071   0.440   5.414  14.064  0.4701  2.0436  0.1559
  133CHL1    C116072   0.157   5.363  14.121 -0.3988 -0.3161 -0.4931
  133CHL1   H1A16073   0.162   5.278  14.193  0.4204  0.5831  0.5372
  133CHL1   H1B16074   0.048   5.381  14.133 -0.6963 -1.8428 -0.6103
  133CHL1    C216075   0.168   5.318  13.974  0.5838 -0.2888 -0.2142
  133CHL1   H2A16076   0.089   5.241  13.964 -0.6064  0.6512  1.4469
  133CHL1   H2B16077   0.269   5.283  13.943 -0.0022 -2.0285 -0.2368
  133CHL1   C2016078   0.251   5.644  14.847  0.6159  0.5294 -0.9797
  133CHL1   H2016079   0.357   5.668  14.868 -0.2179  1.0505  3.9627
  133CHL1   C2116080   0.230   5.493  14.877 -0.7316  0.0026  0.5249
  133CHL1  H21A16081   0.276   5.482  14.978 -1.1732  1.2029  0.8743
  133CHL1  H21B16082   0.280   5.419  14.811  0.7134  1.0923  0.3732
  133CHL1  H21C16083   0.122   5.466  14.888 -0.9202  0.9386  1.0545
  133CHL1   C2216084   0.179   5.718  14.964 -0.2682  0.2373 -0.1483
  133CHL1  H22A16085   0.159   5.820  14.925 -0.4938 -0.0543 -0.7939
  133CHL1  H22B16086   0.079   5.676  14.988  0.3181  0.1962  2.6603
  133CHL1   C2316087   0.263   5.730  15.095  0.0957  0.1163  0.5168
  133CHL1  H23A16088   0.295   5.627  15.122 -1.2768 -0.1594  1.1730
  133CHL1  H23B16089   0.348   5.796  15.067 -0.4330  1.0131  0.9692
  133CHL1   C2416090   0.189   5.785  15.217  0.5084 -0.2235  0.4123
  133CHL1  H24A16091   0.099   5.721  15.231  0.9784 -1.2961 -1.2324
  133CHL1  H24B16092   0.254   5.782  15.307 -0.0886  1.0628  0.9107
  133CHL1   C2516093   0.127   5.926  15.201 -0.0017  0.2993  0.0345
  133CHL1   H2516094   0.062   5.923  15.112 -0.0388  0.3090  0.0615
  133CHL1   C2616095   0.024   5.965  15.319 -0.4616  0.3855  0.1239
  133CHL1  H26A16096   0.001   6.073  15.306 -0.0174  0.4363 -0.3047
  133CHL1  H26B16097  -0.061   5.895  15.309  0.0829 -0.5565  1.7552
  133CHL1  H26C16098   0.062   5.945  15.421  1.6130 -0.9665 -0.8383
  133CHL1   C2716099   0.237   6.031  15.180 -0.6588  0.0362  0.1093
  133CHL1  H27A16100   0.306   6.026  15.267  0.6231 -2.0432 -0.9620
  133CHL1  H27B16101   0.304   5.987  15.104  0.1842  0.4966  0.5691
  133CHL1  H27C16102   0.190   6.127  15.148 -2.8273 -1.4874 -1.6049
  134CHL1    C316103   5.713   0.191  13.162 -0.1156 -0.6969  0.4315
  134CHL1    H316104   5.606   0.162  13.157 -0.0429 -0.8594 -0.2688
  134CHL1    O316105   5.769   0.156  13.035 -0.1607 -0.2255  0.0217
  134CHL1   H3'16106   5.728   0.072  13.012  2.6208 -1.3526 -1.3268
  134CHL1    C416107   5.732   0.341  13.187  0.3302 -0.2805  0.6250
  134CHL1   H4A16108   5.839   0.369  13.175  0.3696  0.3858  2.1954
  134CHL1   H4B16109   5.680   0.395  13.105 -1.8628 -2.0380  0.7819
  134CHL1    C516110   5.681   0.376  13.324  1.4719 -0.3689  0.1504
  134CHL1    C616111   5.585   0.469  13.355 -0.0540  0.3598  0.4844
  134CHL1    H616112   5.520   0.511  13.277 -1.2754 -4.1443 -1.2546
  134CHL1    C716113   5.532   0.496  13.493  0.2267  0.9734 -0.1215
  134CHL1   H7A16114   5.521   0.606  13.497 -2.9340  0.7378  0.2319
  134CHL1   H7B16115   5.435   0.445  13.513  1.0078  0.3718  2.5227
  134CHL1    C816116   5.620   0.439  13.601 -0.1162  0.0747  0.1247
  134CHL1    H816117   5.716   0.493  13.617  0.8460 -1.0193 -1.6418
  134CHL1   C1416118   5.544   0.451  13.729  0.0252  0.8311  0.2127
  134CHL1   H1416119   5.459   0.380  13.719  0.2089  0.4830  1.0121
  134CHL1   C1516120   5.476   0.579  13.773  0.4445 -0.1359  0.0830
  134CHL1  H15A16121   5.545   0.666  13.764  0.3691 -0.1239 -0.3758
  134CHL1  H15B16122   5.384   0.584  13.711  0.4901  1.0242  0.0790
  134CHL1   C1616123   5.448   0.566  13.920 -0.1197  0.0583 -0.4919
  134CHL1  H16A16124   5.492   0.650  13.978 -0.1890  0.8871 -1.5924
  134CHL1  H16B16125   5.337   0.559  13.929  0.0694 -1.4140  1.1714
  134CHL1   C1716126   5.496   0.423  13.960  0.1694 -0.5572 -0.2411
  134CHL1   H1716127   5.413   0.353  13.937  0.3493 -1.7470  2.3152
  134CHL1   C1316128   5.604   0.384  13.851 -0.1085  1.0303  0.2095
  134CHL1   C1816129   5.732   0.459  13.887 -0.3245  0.0103 -0.1092
  134CHL1  H18A16130   5.765   0.430  13.989 -0.6665 -0.8059 -0.2223
  134CHL1  H18B16131   5.811   0.428  13.815  0.7807  0.6860  0.7802
  134CHL1  H18C16132   5.727   0.570  13.884  1.8091  0.1226 -1.4676
  134CHL1   C1216133   5.627   0.241  13.824 -0.3415  0.4591 -0.4438
  134CHL1  H12A16134   5.669   0.193  13.915 -2.1211 -1.1935 -0.4304
  134CHL1  H12B16135   5.533   0.187  13.804  0.5267 -0.3099 -2.7733
  134CHL1   C1116136   5.709   0.220  13.695 -0.9630 -0.2320  0.4435
  134CHL1  H11A16137   5.817   0.246  13.706 -0.8569 -0.4558 -0.0342
  134CHL1  H11B16138   5.706   0.111  13.675  2.3019 -0.4465  0.5370
  134CHL1    C916139   5.652   0.297  13.569  0.0365 -0.1502 -0.1228
  134CHL1    H916140   5.555   0.248  13.544  1.0074 -1.7730 -0.8749
  134CHL1   C1016141   5.734   0.287  13.432 -1.0258 -0.8599  0.2589
  134CHL1   C1916142   5.884   0.322  13.456 -0.5790 -0.2449  0.0444
  134CHL1  H19A16143   5.897   0.428  13.485  0.1733 -0.0634 -0.9088
  134CHL1  H19B16144   5.925   0.265  13.543 -2.3107  0.2424  1.2393
  134CHL1  H19C16145   5.949   0.304  13.368  1.1838 -0.4089  1.3071
  134CHL1    C116146   5.737   0.136  13.412 -0.3149 -0.3356  0.1890
  134CHL1   H1A16147   5.804   0.087  13.485  0.7326  0.1716 -0.4164
  134CHL1   H1B16148   5.640   0.085  13.429 -0.2675 -1.4356 -2.3535
  134CHL1    C216149   5.780   0.101  13.267 -0.1442 -1.1663  0.3996
  134CHL1   H2A16150   5.759  -0.005  13.241  0.1696 -0.8491 -1.2889
  134CHL1   H2B16151   5.889   0.113  13.250  0.0382 -0.5476  1.9045
  134CHL1   C2016152   5.528   0.398  14.113  0.4170  0.1520 -0.2175
  134CHL1   H2016153   5.631   0.424  14.148  0.7193  0.1282 -1.0642
  134CHL1   C2116154   5.501   0.250  14.133  0.6470  0.3458 -0.0439
  134CHL1  H21A16155   5.553   0.182  14.063 -0.0725 -1.2469  0.9222
  134CHL1  H21B16156   5.392   0.242  14.110  0.6276  0.9026 -0.1649
  134CHL1  H21C16157   5.530   0.223  14.237  0.9010  1.2746  0.1344
  134CHL1   C2216158   5.434   0.480  14.201  0.2257 -0.2331 -0.1685
  134CHL1  H22A16159   5.461   0.587  14.193 -0.3891  0.0889  1.6504
  134CHL1  H22B16160   5.329   0.464  14.170  0.2588 -2.9465  0.8231
  134CHL1   C2316161   5.444   0.450  14.349 -0.6171  0.3546 -0.3056
  134CHL1  H23A16162   5.369   0.369  14.363  0.3360 -0.3194  1.1333
  134CHL1  H23B16163   5.544   0.410  14.377 -0.4873 -0.1865 -1.4663
  134CHL1   C2416164   5.405   0.571  14.431 -0.0600  0.6202  0.3127
  134CHL1  H24A16165   5.425   0.663  14.373  0.8799  0.7817  0.8600
  134CHL1  H24B16166   5.294   0.577  14.426 -0.1423  0.4683  1.4891
  134CHL1   C2516167   5.448   0.564  14.577 -0.1883  0.7378  0.1041
  134CHL1   H2516168   5.553   0.528  14.574 -0.1731  0.8069 -1.5927
  134CHL1   C2616169   5.436   0.696  14.653 -0.4943 -0.3477 -0.1316
  134CHL1  H26A16170   5.340   0.716  14.705  0.2843 -2.2531  2.2253
  134CHL1  H26B16171   5.509   0.684  14.735  0.7956 -4.3688 -1.6519
  134CHL1  H26C16172   5.470   0.780  14.588  1.4914 -0.5669  0.5331
  134CHL1   C2716173   5.371   0.448  14.650 -0.0654  0.1154  0.4382
  134CHL1  H27A16174   5.391   0.353  14.597  0.3943 -1.8528  3.8142
  134CHL1  H27B16175   5.413   0.433  14.752  0.1472 -0.9843  0.1995
  134CHL1  H27C16176   5.266   0.483  14.641 -0.0383  0.0614 -0.0819
  135CHL1    C316177   4.520   0.475  13.249 -0.3433  0.1757  0.5136
  135CHL1    H316178   4.560   0.372  13.257 -0.3810  0.0188 -0.9967
  135CHL1    O316179   4.539   0.509  13.114 -0.1046  0.4208  0.0103
  135CHL1   H3'16180   4.522   0.603  13.116 -0.2755  0.3816  0.6520
  135CHL1    C416181   4.372   0.478  13.293  0.1441 -0.8047 -0.1182
  135CHL1   H4A16182   4.312   0.569  13.270  1.4835  0.6146  1.6643
  135CHL1   H4B16183   4.321   0.396  13.238 -3.1873  1.0540 -0.0722
  135CHL1    C516184   4.353   0.454  13.447  0.3019 -0.3392  0.7330
  135CHL1    C616185   4.275   0.358  13.504  0.9377 -1.0035  0.0967
  135CHL1    H616186   4.207   0.298  13.442  0.2014 -0.6939  0.5921
  135CHL1    C716187   4.248   0.337  13.650 -0.5714 -0.2177 -0.2372
  135CHL1   H7A16188   4.137   0.333  13.660 -0.8417  2.0329 -1.5927
  135CHL1   H7B16189   4.298   0.244  13.684  1.7252  1.3825  1.0257
  135CHL1    C816190   4.299   0.456  13.734 -0.5379  0.8227 -0.2121
  135CHL1    H816191   4.227   0.539  13.720  1.1499  2.3748  0.0177
  135CHL1   C1416192   4.308   0.416  13.875  0.6390  0.2629  0.0867
  135CHL1   H1416193   4.382   0.334  13.886 -0.0957 -0.4572 -0.1952
  135CHL1   C1516194   4.175   0.357  13.942 -0.2918  0.1008 -0.4081
  135CHL1  H15A16195   4.080   0.411  13.921 -1.2412 -0.8271  1.3054
  135CHL1  H15B16196   4.168   0.254  13.901 -0.5885  0.7499 -2.0890
  135CHL1   C1616197   4.204   0.364  14.090  0.4421 -0.0354  0.1923
  135CHL1  H16A16198   4.118   0.412  14.143  0.0811 -2.1902  1.6917
  135CHL1  H16B16199   4.219   0.265  14.139  2.5923  0.3614  0.4407
  135CHL1   C1716200   4.334   0.443  14.111 -0.4478 -0.6421  0.0709
  135CHL1   H1716201   4.424   0.378  14.112  1.8020  2.1792  2.6438
  135CHL1   C1316202   4.351   0.523  13.980 -0.2043 -0.1302 -0.0832
  135CHL1   C1816203   4.253   0.637  13.991 -0.0021 -0.0505  0.3135
  135CHL1  H18A16204   4.159   0.608  14.042  0.2611  1.6454  1.8517
  135CHL1  H18B16205   4.302   0.724  14.039  0.3965 -0.7431  1.1976
  135CHL1  H18C16206   4.225   0.670  13.889 -1.7000  2.3893  1.4853
  135CHL1   C1216207   4.492   0.567  13.938  0.8157 -0.6541  0.1331
  135CHL1  H12A16208   4.528   0.657  13.993  1.5071 -0.6181 -0.3616
  135CHL1  H12B16209   4.556   0.483  13.969 -0.2917 -1.2616  0.8381
  135CHL1   C1116210   4.496   0.606  13.790 -0.3790  0.0647  0.0564
  135CHL1  H11A16211   4.435   0.699  13.786 -2.3121 -1.1513  0.0209
  135CHL1  H11B16212   4.597   0.641  13.758 -0.7922  0.4763 -0.8644
  135CHL1    C916213   4.438   0.498  13.689 -0.0934 -0.2131 -0.5233
  135CHL1    H916214   4.498   0.407  13.709  0.0257  0.4238  2.3952
  135CHL1   C1016215   4.437   0.544  13.537 -0.6308 -0.0996 -0.0207
  135CHL1   C1916216   4.371   0.684  13.532 -0.1237 -0.0479  0.1440
  135CHL1  H19A16217   4.350   0.704  13.425 -0.1974  1.0453  0.3457
  135CHL1  H19B16218   4.266   0.679  13.569 -0.8178  1.8968 -1.3791
  135CHL1  H19C16219   4.428   0.772  13.568 -1.1086  0.8361 -0.3897
  135CHL1    C116220   4.584   0.563  13.489 -0.2743 -0.6899 -0.1339
  135CHL1   H1A16221   4.637   0.650  13.534 -0.6477  0.1444 -1.2510
  135CHL1   H1B16222   4.638   0.472  13.519 -0.0626 -0.3928  0.3945
  135CHL1    C216223   4.598   0.577  13.332 -0.4378  0.4402  0.1799
  135CHL1   H2A16224   4.703   0.563  13.297 -0.4275 -1.6647  0.8941
  135CHL1   H2B16225   4.563   0.681  13.315 -0.0809  0.7815  1.4653
  135CHL1   C2016226   4.350   0.521  14.245 -0.1293 -0.1022 -0.1560
  135CHL1   H2016227   4.301   0.620  14.230  1.4123  0.7564  0.2246
  135CHL1   C2116228   4.503   0.545  14.264  0.7381 -0.0972  0.3387
  135CHL1  H21A16229   4.551   0.445  14.258 -1.9037 -1.7429  3.2555
  135CHL1  H21B16230   4.517   0.590  14.365 -2.9828  1.6970  0.2386
  135CHL1  H21C16231   4.553   0.615  14.195  0.8479 -0.7434 -0.2501
  135CHL1   C2216232   4.278   0.452  14.360 -0.0123  0.2921 -0.2572
  135CHL1  H22A16233   4.171   0.439  14.336  0.1616  0.1183 -0.9784
  135CHL1  H22B16234   4.318   0.351  14.385 -2.0820  0.0394  2.4906
  135CHL1   C2316235   4.292   0.515  14.498  0.1223  0.5570  0.0702
  135CHL1  H23A16236   4.401   0.516  14.520  0.7189 -0.7874 -2.4349
  135CHL1  H23B16237   4.267   0.624  14.498 -0.2748  0.4689 -0.4436
  135CHL1   C2416238   4.212   0.444  14.611  0.2887  0.5545  0.0881
  135CHL1  H24A16239   4.107   0.434  14.577 -0.5334 -0.2714  2.6219
  135CHL1  H24B16240   4.248   0.339  14.617 -1.8634 -0.2976 -0.9380
  135CHL1   C2516241   4.210   0.502  14.752 -0.5017 -0.3957  0.1880
  135CHL1   H2516242   4.176   0.426  14.825 -0.8961 -0.9663 -0.5777
  135CHL1   C2616243   4.356   0.535  14.803 -0.5685  0.0315  0.6705
  135CHL1  H26A16244   4.393   0.618  14.738 -0.0528 -1.7671 -1.4597
  135CHL1  H26B16245   4.351   0.557  14.912 -1.4340 -1.5895  0.9944
  135CHL1  H26C16246   4.420   0.445  14.792  0.1257  0.2036  2.7887
  135CHL1   C2716247   4.129   0.637  14.761  0.4379  0.1743 -0.3277
  135CHL1  H27A16248   4.019   0.625  14.755  0.4115  1.1756 -2.9570
  135CHL1  H27B16249   4.150   0.685  14.859 -0.3829 -1.0771  0.4793
  135CHL1  H27C16250   4.150   0.716  14.685  0.0391  1.4999  0.8840
  136CHL1    C316251   5.500   5.229  13.975 -0.2295 -0.2014 -0.0366
  136CHL1    H316252   5.392   5.254  13.986 -0.3093 -0.9917  1.1175
  136CHL1    O316253   5.532   5.216  13.835  0.1183  0.2766 -0.5112
  136CHL1   H3'16254   5.496   5.135  13.799 -1.8346  0.3613  1.0618
  136CHL1    C416255   5.579   5.344  14.033  0.4005 -0.5991 -0.5838
  136CHL1   H4A16256   5.688   5.332  14.014  0.7745 -0.5620  1.3836
  136CHL1   H4B16257   5.545   5.437  13.983  0.1720 -0.3864 -0.0311
  136CHL1    C516258   5.556   5.354  14.186  0.4295 -0.0940  0.3372
  136CHL1    C616259   5.517   5.467  14.250 -0.2620  0.7291 -0.2703
  136CHL1    H616260   5.493   5.555  14.188 -1.5009  0.4076 -0.2793
  136CHL1    C716261   5.485   5.473  14.398  0.0219 -0.1998 -0.5652
  136CHL1   H7A16262   5.505   5.572  14.444 -1.4865 -0.1695  0.0917
  136CHL1   H7B16263   5.375   5.457  14.408  0.3194 -0.8448  3.3060
  136CHL1    C816264   5.561   5.365  14.471  0.2373 -0.0014 -0.6227
  136CHL1    H816265   5.670   5.383  14.462  0.3333 -0.8877 -1.3104
  136CHL1   C1416266   5.523   5.361  14.621 -1.0459 -0.5918 -0.1642
  136CHL1   H1416267   5.414   5.343  14.621 -1.6887  2.5740 -1.3738
  136CHL1   C1516268   5.532   5.502  14.687 -0.1442  0.6509  0.7019
  136CHL1  H15A16269   5.614   5.564  14.646 -1.1098 -0.1650 -2.7721
  136CHL1  H15B16270   5.431   5.544  14.672 -0.9199 -0.3655  2.6296
  136CHL1   C1616271   5.548   5.472  14.835  0.2538  0.3016  0.0248
  136CHL1  H16A16272   5.645   5.517  14.868  0.2575  3.2951 -3.4891
  136CHL1  H16B16273   5.459   5.512  14.887 -0.2364  2.0857 -2.0293
  136CHL1   C1716274   5.547   5.317  14.853  0.4534 -0.3351 -0.1418
  136CHL1   H1716275   5.440   5.295  14.872 -0.7871  2.7954 -2.5485
  136CHL1   C1316276   5.591   5.257  14.717  0.5360 -0.1154  0.1913
  136CHL1   C1816277   5.743   5.265  14.700 -0.1466  0.5324 -0.0845
  136CHL1  H18A16278   5.775   5.248  14.595 -0.3183  0.5822 -0.1448
  136CHL1  H18B16279   5.778   5.369  14.722 -0.2499  0.5034  0.2277
  136CHL1  H18C16280   5.801   5.188  14.754 -1.7528 -0.3139  0.5126
  136CHL1   C1216281   5.532   5.129  14.661 -0.7124 -0.1755  0.8846
  136CHL1  H12A16282   5.590   5.043  14.701 -0.5608 -0.8294 -0.6995
  136CHL1  H12B16283   5.424   5.114  14.683 -0.7067  1.0400  1.8557
  136CHL1   C1116284   5.564   5.110  14.508  1.2633 -0.4040  0.4378
  136CHL1  H11A16285   5.671   5.083  14.494  1.1174 -1.4587  1.1855
  136CHL1  H11B16286   5.503   5.027  14.466 -1.2861  1.2681  0.6266
  136CHL1    C916287   5.527   5.229  14.415  0.5149  0.0409  0.3759
  136CHL1    H916288   5.417   5.240  14.418  0.4005 -0.7699 -0.4769
  136CHL1   C1016289   5.572   5.225  14.256  0.1004 -0.4159 -0.2665
  136CHL1   C1916290   5.727   5.187  14.267  0.1894  0.0154  0.2753
  136CHL1  H19A16291   5.753   5.082  14.293  1.3537  0.2496  0.1079
  136CHL1  H19B16292   5.775   5.203  14.168 -0.5332 -2.3361 -0.5176
  136CHL1  H19C16293   5.780   5.261  14.332  1.0654 -0.8573  0.5887
  136CHL1    C116294   5.487   5.114  14.194 -0.8210  0.1298  0.0254
  136CHL1   H1A16295   5.509   5.020  14.248 -0.1957  0.1477 -0.1863
  136CHL1   H1B16296   5.378   5.133  14.193 -1.0308 -1.0098 -1.1195
  136CHL1    C216297   5.523   5.093  14.045 -0.3400 -0.2024 -0.3566
  136CHL1   H2A16298   5.459   5.015  14.000 -0.4432  0.2648 -1.0432
  136CHL1   H2B16299   5.629   5.065  14.026  0.3975  1.7248  0.5941
  136CHL1   C2016300   5.625   5.258  14.976 -0.3246  0.1803 -0.1764
  136CHL1   H2016301   5.732   5.281  14.960 -0.4176 -0.1698 -1.3349
  136CHL1   C2116302   5.605   5.102  14.983 -0.5310 -0.4275 -0.2991
  136CHL1  H21A16303   5.623   5.056  15.083  3.4824 -0.6424 -0.9425
  136CHL1  H21B16304   5.663   5.041  14.911  0.3218  1.3751 -1.1831
  136CHL1  H21C16305   5.498   5.076  14.966  0.2757 -3.2194 -1.7582
  136CHL1   C2216306   5.578   5.323  15.111  0.6524  0.3151 -1.0567
  136CHL1  H22A16307   5.642   5.279  15.190  0.7590  0.8663 -0.8300
  136CHL1  H22B16308   5.603   5.431  15.100 -0.7603  0.7706 -0.1761
  136CHL1   C2316309   5.436   5.295  15.155 -0.1286  0.6061 -0.1025
  136CHL1  H23A16310   5.368   5.318  15.070  0.3165  0.3031 -0.5538
  136CHL1  H23B16311   5.426   5.186  15.171 -0.4976  0.4439 -1.3043
  136CHL1   C2416312   5.407   5.364  15.288 -0.1554  0.3410 -0.0740
  136CHL1  H24A16313   5.496   5.428  15.305 -1.1717  1.7946 -0.0042
  136CHL1  H24B16314   5.322   5.430  15.258  0.7237  0.5805 -2.1922
  136CHL1   C2516315   5.362   5.278  15.415  0.3099 -0.1778  0.5243
  136CHL1   H2516316   5.271   5.222  15.386  0.6989 -0.4218 -0.2522
  136CHL1   C2616317   5.462   5.172  15.459  0.2580  0.4715  0.5761
  136CHL1  H26A16318   5.553   5.211  15.509  0.3533 -1.0623  1.6628
  136CHL1  H26B16319   5.420   5.104  15.536 -0.6117  3.0731  2.5807
  136CHL1  H26C16320   5.492   5.118  15.367 -2.2440  0.6870 -0.4502
  136CHL1   C2716321   5.325   5.369  15.531 -0.4934  0.3654 -0.1370
  136CHL1  H27A16322   5.244   5.442  15.511 -1.3670 -0.7526 -0.8728
  136CHL1  H27B16323   5.285   5.299  15.607  0.3066  0.9577  0.8477
  136CHL1  H27C16324   5.404   5.427  15.583 -0.6940 -0.0259  0.6243
  137CHL1    C316325   0.118   6.619  13.715  0.0452 -0.8332  0.4100
  137CHL1    H316326   0.225   6.638  13.736 -0.3306  1.9268  0.1371
  137CHL1    O316327   0.107   6.561  13.583 -0.1938 -0.6005  0.2473
  137CHL1   H3'16328   0.183   6.599  13.539 -1.6205 -0.1776 -2.0240
  137CHL1    C416329   0.063   6.524  13.826  0.1001  0.0353  0.3529
  137CHL1   H4A16330  -0.036   6.489  13.791 -1.0455  2.4523  0.9549
  137CHL1   H4B16331   0.129   6.435  13.834 -1.8316 -1.3069  2.9654
  137CHL1    C516332   0.061   6.587  13.960  0.1077 -0.4389 -0.1801
  137CHL1    C616333   0.133   6.539  14.062 -1.6373 -0.6819 -0.5598
  137CHL1    H616334   0.188   6.446  14.042  0.6580  0.1546  1.4689
  137CHL1    C716335   0.129   6.596  14.199  0.2045  0.5521  0.6527
  137CHL1   H7A16336   0.133   6.521  14.280 -0.7523 -1.1913 -0.8433
  137CHL1   H7B16337   0.216   6.663  14.213 -0.2958  0.6826  3.8839
  137CHL1    C816338   0.004   6.686  14.219 -0.3461 -1.0364 -0.5157
  137CHL1    H816339  -0.090   6.630  14.236  0.0825 -1.4759  0.5320
  137CHL1   C1416340   0.024   6.767  14.344  0.6777 -0.2584  0.1539
  137CHL1   H1416341   0.110   6.834  14.322  0.4331 -0.6289 -2.1746
  137CHL1   C1516342   0.075   6.694  14.466 -0.1170  0.4123  0.0114
  137CHL1  H15A16343   0.020   6.598  14.476 -0.8696  0.3736 -3.3306
  137CHL1  H15B16344   0.183   6.675  14.451 -0.5498 -2.5128  0.1117
  137CHL1   C1616345   0.040   6.782  14.586 -0.5848 -0.0186  0.7733
  137CHL1  H16A16346  -0.022   6.724  14.658  2.0050 -2.9700  0.8284
  137CHL1  H16B16347   0.129   6.816  14.643  0.4574 -1.4461  0.0551
  137CHL1   C1716348  -0.039   6.902  14.529  0.6150 -0.6469 -0.5004
  137CHL1   H1716349   0.036   6.981  14.506  2.5807 -1.7923  1.6488
  137CHL1   C1316350  -0.092   6.859  14.392 -0.5690 -0.1958  0.4675
  137CHL1   C1816351  -0.220   6.777  14.413  0.4134  0.3456 -0.4953
  137CHL1  H18A16352  -0.243   6.697  14.340  0.5562 -2.1588  2.0224
  137CHL1  H18B16353  -0.219   6.712  14.504 -1.8920 -1.7428 -1.8271
  137CHL1  H18C16354  -0.314   6.836  14.414 -0.4990 -1.0395 -0.1700
  137CHL1   C1216355  -0.108   6.963  14.269 -0.5569  0.7175  0.0202
  137CHL1  H12A16356  -0.188   7.033  14.301 -2.0548 -0.6422 -0.5921
  137CHL1  H12B16357  -0.009   7.012  14.255 -0.3531  0.2471 -0.1906
  137CHL1   C1116358  -0.126   6.893  14.130  0.1177  0.9807 -0.2518
  137CHL1  H11A16359  -0.223   6.841  14.135  1.9766 -2.8426 -0.3138
  137CHL1  H11B16360  -0.135   6.964  14.045  1.0897  1.1158 -0.2585
  137CHL1    C916361  -0.015   6.789  14.095  0.0641 -0.4377 -0.3437
  137CHL1    H916362   0.086   6.836  14.091  0.0110 -0.2742  0.1303
  137CHL1   C1016363  -0.024   6.717  13.958 -0.6320 -0.1941  0.0203
  137CHL1   C1916364  -0.176   6.690  13.932  0.1364 -0.2105  0.0093
  137CHL1  H19A16365  -0.224   6.635  14.016 -0.9086 -0.6344 -0.8393
  137CHL1  H19B16366  -0.230   6.785  13.915  1.6258  0.6952  0.1200
  137CHL1  H19C16367  -0.190   6.624  13.843  1.8767  0.4815 -0.8376
  137CHL1    C116368   0.038   6.809  13.851 -0.0756  0.0969 -0.7668
  137CHL1   H1A16369  -0.021   6.904  13.850  1.0090  0.7909 -1.3477
  137CHL1   H1B16370   0.146   6.826  13.872 -0.5251  0.4754  1.4541
  137CHL1    C216371   0.042   6.746  13.711  0.2363 -0.4641 -0.4071
  137CHL1   H2A16372   0.090   6.819  13.642  0.3750  0.1780  0.3613
  137CHL1   H2B16373  -0.066   6.734  13.685  0.4267  1.2725 -2.2987
  137CHL1   C2016374  -0.137   6.966  14.636  0.1123  0.0144  0.4865
  137CHL1   H2016375  -0.235   6.915  14.632 -0.7201  1.4741  1.2897
  137CHL1   C2116376  -0.150   7.110  14.596 -0.0648  0.1951 -0.6369
  137CHL1  H21A16377  -0.059   7.169  14.617  0.7690 -0.9475 -0.9140
  137CHL1  H21B16378  -0.234   7.150  14.656 -2.3066 -0.1877 -3.3009
  137CHL1  H21C16379  -0.174   7.111  14.487  0.8436  1.6368 -0.8414
  137CHL1   C2216380  -0.082   6.973  14.780 -0.5884 -0.4348  0.1845
  137CHL1  H22A16381  -0.077   6.866  14.808  2.1408 -0.7743 -1.2840
  137CHL1  H22B16382   0.025   7.006  14.783 -0.6378 -0.1949 -0.5310
  137CHL1   C2316383  -0.159   7.060  14.878  0.2549 -0.6911  0.4782
  137CHL1  H23A16384  -0.118   7.163  14.872 -0.5775 -0.4295 -3.8176
  137CHL1  H23B16385  -0.267   7.050  14.851  0.6282 -0.0943 -1.3780
  137CHL1   C2416386  -0.130   7.019  15.021  0.4676  0.2688  0.1115
  137CHL1  H24A16387  -0.159   6.915  15.047 -1.2711  0.2083 -1.8499
  137CHL1  H24B16388  -0.023   7.042  15.037  1.2000 -1.6131 -1.7398
  137CHL1   C2516389  -0.209   7.109  15.121  1.1582 -1.1628 -0.3334
  137CHL1   H2516390  -0.315   7.089  15.093 -0.4094  0.6286  3.6796
  137CHL1   C2616391  -0.193   7.071  15.268  0.2303  0.4971 -0.5152
  137CHL1  H26A16392  -0.204   6.962  15.284 -0.4077  0.4695 -1.0799
  137CHL1  H26B16393  -0.087   7.089  15.297  0.4167 -2.3193  0.8656
  137CHL1  H26C16394  -0.265   7.132  15.327  1.1876  0.1607  1.0616
  137CHL1   C2716395  -0.176   7.258  15.104 -0.3961 -0.1980 -0.0630
  137CHL1  H27A16396  -0.253   7.311  15.164  0.6667 -2.6916  3.9539
  137CHL1  H27B16397  -0.075   7.285  15.143 -0.2638  0.6254 -0.9623
  137CHL1  H27C16398  -0.184   7.299  15.002  0.5257  0.6924  0.2006
  138CHL1    C316399   5.870   5.580  13.898 -0.1136 -0.2171 -0.3056
  138CHL1    H316400   5.769   5.538  13.914 -0.4404  1.4659  2.9327
  138CHL1    O316401   5.900   5.586  13.759  0.0796 -0.7125 -0.3493
  138CHL1   H3'16402   5.986   5.628  13.755 -1.3142  2.3917  0.0550
  138CHL1    C416403   5.873   5.725  13.951 -0.6087 -0.3247 -0.1211
  138CHL1   H4A16404   5.969   5.773  13.923  1.0210 -1.9104  2.2865
  138CHL1   H4B16405   5.787   5.771  13.898  0.7622  1.6391 -0.7529
  138CHL1    C516406   5.861   5.731  14.102 -0.4560 -0.7563  0.1887
  138CHL1    C616407   5.762   5.800  14.165 -0.1851  0.0655  0.0841
  138CHL1    H616408   5.691   5.856  14.103  1.3826  1.7175 -0.3261
  138CHL1    C716409   5.739   5.809  14.311  0.0614 -0.2536  0.6262
  138CHL1   H7A16410   5.704   5.903  14.357  1.7686  0.0769  1.3497
  138CHL1   H7B16411   5.653   5.741  14.329 -0.7250  0.4725 -0.2539
  138CHL1    C816412   5.860   5.767  14.389 -0.5653  0.1349  0.0776
  138CHL1    H816413   5.942   5.841  14.376 -0.6392  0.2759  0.4184
  138CHL1   C1416414   5.826   5.748  14.541 -0.4243  0.3414  0.0565
  138CHL1   H1416415   5.764   5.655  14.534  1.6732 -1.0392 -1.5870
  138CHL1   C1516416   5.749   5.855  14.611  0.3748 -0.8819  0.1320
  138CHL1  H15A16417   5.803   5.949  14.587  1.0716 -1.7762 -2.0254
  138CHL1  H15B16418   5.641   5.859  14.583 -0.1480 -1.8727  1.8748
  138CHL1   C1616419   5.767   5.814  14.754  0.0765 -0.0972 -0.6534
  138CHL1  H16A16420   5.810   5.898  14.812  2.3436  0.2147 -2.6006
  138CHL1  H16B16421   5.670   5.776  14.793  1.2868 -1.5417  1.1016
  138CHL1   C1716422   5.866   5.692  14.765 -0.0660  0.3232 -0.1372
  138CHL1   H1716423   5.808   5.597  14.763 -0.0936  0.2560  1.9073
  138CHL1   C1316424   5.939   5.704  14.631 -0.0252  0.5795 -0.2030
  138CHL1   C1816425   6.045   5.817  14.643 -0.5576 -0.2992 -0.2301
  138CHL1  H18A16426   6.137   5.785  14.697 -0.4910  3.8874  2.5548
  138CHL1  H18B16427   6.072   5.833  14.536  0.9439 -2.2253 -0.1968
  138CHL1  H18C16428   6.011   5.908  14.696 -1.3633  0.2471 -1.6258
  138CHL1   C1216429   6.000   5.574  14.578 -0.1342 -0.6311 -0.1437
  138CHL1  H12A16430   6.095   5.547  14.631  1.2353  0.4969 -1.9120
  138CHL1  H12B16431   5.926   5.491  14.585 -1.3766  0.5592  4.2467
  138CHL1   C1116432   6.037   5.590  14.422 -0.1209 -0.1805  0.4209
  138CHL1  H11A16433   6.116   5.667  14.409 -2.0250  1.6100 -1.3239
  138CHL1  H11B16434   6.089   5.498  14.388  1.4697  1.1005 -0.7590
  138CHL1    C916435   5.919   5.633  14.329  0.1932 -1.1102  0.3153
  138CHL1    H916436   5.837   5.561  14.350 -1.2157  0.2340 -0.3451
  138CHL1   C1016437   5.954   5.639  14.181 -0.2812 -0.4153  0.3163
  138CHL1   C1916438   6.097   5.702  14.167 -0.1032 -0.0869 -0.1671
  138CHL1  H19A16439   6.136   5.715  14.064 -0.3889  0.3238 -0.2284
  138CHL1  H19B16440   6.111   5.792  14.232  1.0487  0.1466 -0.7095
  138CHL1  H19C16441   6.171   5.629  14.208 -0.5384  0.7882  2.3805
  138CHL1    C116442   5.947   5.494  14.120  1.4496 -0.7938 -0.3316
  138CHL1   H1A16443   6.027   5.434  14.168 -0.7039 -2.9175  0.8516
  138CHL1   H1B16444   5.848   5.451  14.149  0.6498 -0.7682 -2.7686
  138CHL1    C216445   5.962   5.483  13.968  0.4898  0.0151  0.6536
  138CHL1   H2A16446   5.948   5.379  13.932 -1.8295  0.6734 -0.5370
  138CHL1   H2B16447   6.062   5.524  13.942  0.0095  1.8306  1.4773
  138CHL1   C2016448   5.941   5.686  14.893 -0.1809  0.4616  0.3441
  138CHL1   H2016449   6.018   5.766  14.893  0.9963 -0.6342  0.1244
  138CHL1   C2116450   6.000   5.544  14.902  0.2607 -0.0942 -0.8013
  138CHL1  H21A16451   6.035   5.547  15.007 -1.4415  2.3059 -0.2229
  138CHL1  H21B16452   6.084   5.544  14.828  0.3960 -0.3533 -0.6462
  138CHL1  H21C16453   5.925   5.465  14.880 -2.3168  1.1511  2.6872
  138CHL1   C2216454   5.849   5.711  15.016  0.1612  0.1492 -0.0496
  138CHL1  H22A16455   5.778   5.795  15.003  0.3905  0.0777 -1.9900
  138CHL1  H22B16456   5.796   5.616  15.037  0.0920 -0.1060 -1.3143
  138CHL1   C2316457   5.939   5.755  15.133 -0.1828 -0.1750 -0.3850
  138CHL1  H23A16458   6.015   5.680  15.164 -0.3199 -0.8331 -1.5487
  138CHL1  H23B16459   5.996   5.837  15.084 -0.0316 -0.6714 -1.0648
  138CHL1   C2416460   5.875   5.810  15.264  0.2648 -0.6789  0.4938
  138CHL1  H24A16461   5.946   5.860  15.334  0.8308  1.7007 -1.6341
  138CHL1  H24B16462   5.805   5.891  15.235 -0.9365 -0.9980  2.2954
  138CHL1   C2516463   5.793   5.702  15.341  0.2255 -0.3162 -0.1668
  138CHL1   H2516464   5.714   5.684  15.264  1.0741 -2.5458 -0.5935
  138CHL1   C2616465   5.874   5.570  15.365  0.4948  0.2192 -0.4621
  138CHL1  H26A16466   5.791   5.499  15.386  0.1056  0.7478 -0.1998
  138CHL1  H26B16467   5.928   5.536  15.274 -1.4380  2.1695 -2.4597
  138CHL1  H26C16468   5.951   5.574  15.445  1.0255  3.5189 -0.9921
  138CHL1   C2716469   5.740   5.766  15.474  0.1528  0.1323 -0.3298
  138CHL1  H27A16470   5.688   5.687  15.532 -0.2261  0.7259  0.1599
  138CHL1  H27B16471   5.820   5.805  15.541  0.7199 -1.0493 -0.2879
  138CHL1  H27C16472   5.664   5.844  15.453  1.5463  1.4932 -0.4747
  139CHL1    C316473   5.625   4.100  13.683 -1.0424  0.7973  0.6047
  139CHL1    H316474   5.723   4.148  13.664 -0.9490 -0.1562 -1.6236
  139CHL1    O316475   5.563   4.081  13.559  0.0216  0.3483  0.2878
  139CHL1   H3'16476   5.547   4.166  13.517 -1.0895 -0.3944 -0.8527
  139CHL1    C416477   5.634   3.952  13.750  0.4742 -0.2817  0.2441
  139CHL1   H4A16478   5.542   3.890  13.746  0.7735 -0.7369  0.4092
  139CHL1   H4B16479   5.707   3.905  13.680  1.2751  0.0268  0.8512
  139CHL1    C516480   5.683   3.966  13.893  0.4304  0.0609  0.2762
  139CHL1    C616481   5.792   3.903  13.936  0.1367  0.4828  0.2201
  139CHL1    H616482   5.839   3.836  13.862  0.0834  1.0748 -0.3616
  139CHL1    C716483   5.841   3.902  14.078  0.3911  0.1200 -0.1889
  139CHL1   H7A16484   5.859   3.799  14.115  0.0941  0.1176 -0.0438
  139CHL1   H7B16485   5.931   3.965  14.087 -0.5770  1.2854  1.9974
  139CHL1    C816486   5.733   3.966  14.173  0.0035 -0.3540 -0.7474
  139CHL1    H816487   5.653   3.889  14.186 -1.5695  1.3839  0.4984
  139CHL1   C1416488   5.797   3.999  14.312 -0.2445 -0.2047 -0.2012
  139CHL1   H1416489   5.883   4.067  14.294  1.3592 -2.1995 -0.6094
  139CHL1   C1516490   5.875   3.890  14.385 -0.5875 -0.2943 -0.3513
  139CHL1  H15A16491   5.804   3.804  14.379 -1.4283  0.2137  1.5950
  139CHL1  H15B16492   5.972   3.868  14.335 -1.0079 -0.3687 -1.1580
  139CHL1   C1616493   5.872   3.930  14.537  0.9156  0.5264 -0.8818
  139CHL1  H16A16494   5.814   3.850  14.588 -0.8636  2.0811 -0.3902
  139CHL1  H16B16495   5.973   3.946  14.582  0.7540 -0.9255  0.0820
  139CHL1   C1716496   5.805   4.073  14.539  0.5320  0.5785  0.3807
  139CHL1   H1716497   5.869   4.154  14.497 -1.6435  1.6675 -0.9982
  139CHL1   C1316498   5.710   4.064  14.418 -0.2403 -0.2978  0.1598
  139CHL1   C1816499   5.582   3.984  14.454  0.6079  0.2918  0.0137
  139CHL1  H18A16500   5.512   4.038  14.522 -0.1463  0.2744 -0.7299
  139CHL1  H18B16501   5.526   3.963  14.360 -0.3067 -0.0549  0.6261
  139CHL1  H18C16502   5.610   3.889  14.503 -2.9061 -0.1455  1.4488
  139CHL1   C1216503   5.666   4.197  14.360  0.7282 -0.8725  0.1366
  139CHL1  H12A16504   5.597   4.231  14.440  2.0316  1.9950  0.1907
  139CHL1  H12B16505   5.753   4.266  14.349  0.2913 -0.4331 -0.6745
  139CHL1   C1116506   5.591   4.174  14.227  0.2699 -0.4034  0.0300
  139CHL1  H11A16507   5.499   4.117  14.253  1.0415 -1.5402  0.3596
  139CHL1  H11B16508   5.554   4.270  14.186  0.7662 -0.9096 -1.7037
  139CHL1    C916509   5.674   4.097  14.125  0.4515  0.1159 -0.0848
  139CHL1    H916510   5.761   4.159  14.096 -0.7473  1.1667 -1.6389
  139CHL1   C1016511   5.606   4.069  13.983 -0.4394 -0.0666 -0.3101
  139CHL1   C1916512   5.469   3.996  13.992  0.4220 -0.4573 -0.6067
  139CHL1  H19A16513   5.498   3.898  14.037  0.3378  0.3052  1.1721
  139CHL1  H19B16514   5.404   4.050  14.064 -0.7003 -0.0008 -1.9423
  139CHL1  H19C16515   5.406   3.979  13.903 -1.1597 -0.7309  0.5234
  139CHL1    C116516   5.578   4.198  13.909 -1.3107 -0.2453 -0.7509
  139CHL1   H1A16517   5.492   4.249  13.958 -0.9397 -0.5322  0.2243
  139CHL1   H1B16518   5.673   4.256  13.900 -0.4822 -1.2690  1.0128
  139CHL1    C216519   5.541   4.192  13.759  0.6364 -0.3673  0.3956
  139CHL1   H2A16520   5.548   4.294  13.717 -0.7610 -0.9887 -1.4937
  139CHL1   H2B16521   5.434   4.166  13.747  0.5380 -0.0916  0.6808
  139CHL1   C2016522   5.745   4.127  14.673 -0.3497  0.0774  0.6661
  139CHL1   H2016523   5.653   4.185  14.656 -0.4581  0.5997  2.7903
  139CHL1   C2116524   5.839   4.225  14.743  0.4220  0.0234  0.7829
  139CHL1  H21A16525   5.876   4.308  14.680 -0.3425 -0.3779 -0.2143
  139CHL1  H21B16526   5.920   4.169  14.795  0.8216  0.4658  0.6438
  139CHL1  H21C16527   5.776   4.263  14.826  0.2851  1.4927  0.0262
  139CHL1   C2216528   5.696   4.021  14.772 -0.5747  0.0251 -0.3018
  139CHL1  H22A16529   5.631   3.948  14.719  2.0606 -2.6338 -0.1234
  139CHL1  H22B16530   5.789   3.975  14.811 -0.2866  0.8818  0.0391
  139CHL1   C2316531   5.619   4.069  14.891 -0.5695 -0.7376  0.1390
  139CHL1  H23A16532   5.673   4.112  14.978 -0.1843  1.2331 -1.0337
  139CHL1  H23B16533   5.558   4.156  14.859  1.9147  1.0034 -0.1154
  139CHL1   C2416534   5.514   3.969  14.951 -0.3181 -0.1408 -0.1666
  139CHL1  H24A16535   5.435   4.029  15.000  2.4591  3.7207  0.0053
  139CHL1  H24B16536   5.476   3.898  14.874 -2.2848  0.6886 -0.0105
  139CHL1   C2516537   5.584   3.880  15.061 -0.0063  0.2058  0.2262
  139CHL1   H2516538   5.620   3.946  15.143 -0.2138 -1.2890  1.5499
  139CHL1   C2616539   5.482   3.782  15.115  0.0763  0.1541 -0.0718
  139CHL1  H26A16540   5.526   3.707  15.184 -0.0109  0.5986  0.4745
  139CHL1  H26B16541   5.401   3.828  15.175 -0.7124 -2.1285  0.7036
  139CHL1  H26C16542   5.432   3.723  15.036  2.4670 -0.8228 -0.9570
  139CHL1   C2716543   5.715   3.809  15.013  0.1755  0.0202  0.0033
  139CHL1  H27A16544   5.742   3.728  15.085  1.6879 -1.9859 -2.6294
  139CHL1  H27B16545   5.700   3.752  14.919  2.2388  0.7122 -0.7971
  139CHL1  H27C16546   5.793   3.887  15.003 -1.6736  1.9383  0.0037
  140CHL1    C316547   0.384   3.978  14.069  0.3169  0.4602 -0.5397
  140CHL1    H316548   0.371   3.868  14.064  1.9551  0.1941  0.4683
  140CHL1    O316549   0.379   4.026  13.934 -0.6698  0.1509  0.1000
  140CHL1   H3'16550   0.405   3.953  13.877  0.0989 -0.1088  0.7734
  140CHL1    C416551   0.282   4.046  14.153  0.1300  0.2430  0.1779
  140CHL1   H4A16552   0.304   4.154  14.143  1.0950 -0.0553 -1.3363
  140CHL1   H4B16553   0.178   4.032  14.115  0.3647 -0.5529 -0.2142
  140CHL1    C516554   0.289   4.006  14.296  0.6012  0.6032 -0.1389
  140CHL1    C616555   0.182   3.957  14.352  0.6772 -0.6120  0.2340
  140CHL1    H616556   0.089   3.954  14.293 -0.7047  0.2546  2.2496
  140CHL1    C716557   0.169   3.908  14.491  0.2601  0.0645  0.6401
  140CHL1   H7A16558   0.080   3.951  14.542  2.2112  2.2110  2.5255
  140CHL1   H7B16559   0.167   3.797  14.491  0.1604  0.0639 -0.4308
  140CHL1    C816560   0.284   3.961  14.577  0.3287  0.5220  0.7169
  140CHL1    H816561   0.260   4.065  14.605  2.9770  1.2413  0.5599
  140CHL1   C1416562   0.298   3.887  14.708  0.5908  0.9644 -0.5380
  140CHL1   H1416563   0.334   3.784  14.683 -0.8627 -0.1336  1.6201
  140CHL1   C1516564   0.174   3.874  14.804 -0.3735 -0.1146 -0.2686
  140CHL1  H15A16565   0.120   3.968  14.827  0.7664  0.9537 -1.7392
  140CHL1  H15B16566   0.102   3.798  14.767  0.0068 -0.2679 -0.7068
  140CHL1   C1616567   0.240   3.829  14.941  0.0224 -0.4063 -0.0622
  140CHL1  H16A16568   0.208   3.904  15.016  1.3287 -0.2316  0.3480
  140CHL1  H16B16569   0.207   3.729  14.977 -0.1615 -0.0076  0.8904
  140CHL1   C1716570   0.388   3.848  14.930  0.1463 -0.0062 -0.6818
  140CHL1   H1716571   0.446   3.759  14.895  3.1687  2.3524 -2.2172
  140CHL1   C1316572   0.410   3.937  14.809  1.0958  0.3695 -0.1442
  140CHL1   C1816573   0.368   4.075  14.853  0.0900 -0.4074  0.0521
  140CHL1  H18A16574   0.446   4.105  14.926  2.0330  0.1866 -2.1642
  140CHL1  H18B16575   0.364   4.153  14.774  2.6615  1.5487  1.7045
  140CHL1  H18C16576   0.275   4.079  14.914 -0.5378 -1.5919 -0.7874
  140CHL1   C1216577   0.542   3.922  14.731  0.6261 -0.2879 -0.8762
  140CHL1  H12A16578   0.624   3.971  14.789 -0.9343 -0.5221  1.7022
  140CHL1  H12B16579   0.563   3.813  14.725 -0.7717 -0.6300  0.0298
  140CHL1   C1116580   0.538   3.979  14.591 -1.1193 -0.1427  0.5401
  140CHL1  H11A16581   0.526   4.088  14.611  0.4506  1.1412 -4.2068
  140CHL1  H11B16582   0.638   3.956  14.549 -0.1419 -0.1564  2.7414
  140CHL1    C916583   0.421   3.944  14.499 -0.1089  0.2978  0.1349
  140CHL1    H916584   0.426   3.834  14.489 -0.4623  0.0076  2.5448
  140CHL1   C1016585   0.421   4.011  14.365 -0.0327  0.1500 -0.6509
  140CHL1   C1916586   0.451   4.164  14.390 -0.9769  0.2694  0.6340
  140CHL1  H19A16587   0.428   4.225  14.300  0.6307  0.7889  0.5456
  140CHL1  H19B16588   0.396   4.206  14.477 -1.1201  0.6749  0.3507
  140CHL1  H19C16589   0.560   4.174  14.411 -0.8773  1.6294 -0.4483
  140CHL1    C116590   0.533   3.946  14.275 -0.4645 -0.0137 -0.2029
  140CHL1   H1A16591   0.632   3.975  14.317 -1.0090 -0.0400  1.1466
  140CHL1   H1B16592   0.518   3.836  14.276  1.4770 -0.3104  0.5824
  140CHL1    C216593   0.520   3.997  14.128 -0.2973 -0.5162 -0.7303
  140CHL1   H2A16594   0.596   3.940  14.070  1.4234 -0.4130  1.2967
  140CHL1   H2B16595   0.548   4.104  14.118  1.7314 -1.0044 -0.6566
  140CHL1   C2016596   0.456   3.879  15.067 -0.1401 -0.4868 -0.1736
  140CHL1   H2016597   0.405   3.972  15.098  0.2074 -0.7933  1.3937
  140CHL1   C2116598   0.604   3.918  15.046 -0.5670 -0.7641  0.1444
  140CHL1  H21A16599   0.670   3.832  15.024  0.3417  0.1779 -0.9413
  140CHL1  H21B16600   0.639   3.956  15.144 -2.3691  0.4059  0.3787
  140CHL1  H21C16601   0.627   4.000  14.974  0.9232 -0.3547  1.0548
  140CHL1   C2216602   0.443   3.772  15.177 -1.2369  0.2135  0.6481
  140CHL1  H22A16603   0.345   3.723  15.162 -0.1110 -1.9310 -0.0627
  140CHL1  H22B16604   0.514   3.691  15.151 -1.6334  0.0588  0.0203
  140CHL1   C2316605   0.479   3.810  15.322  0.4714 -0.5599  0.6774
  140CHL1  H23A16606   0.578   3.860  15.333  0.7991 -1.1496  0.4452
  140CHL1  H23B16607   0.407   3.889  15.353  0.7156  0.4141 -1.1269
  140CHL1   C2416608   0.495   3.683  15.397  0.3865  0.1047 -0.5276
  140CHL1  H24A16609   0.395   3.637  15.412  0.5550  0.6672  3.4222
  140CHL1  H24B16610   0.556   3.611  15.338  0.4707  0.5972 -1.0547
  140CHL1   C2516611   0.579   3.703  15.530  0.4252 -0.8254  0.1893
  140CHL1   H2516612   0.671   3.763  15.513 -0.7958  1.2575  0.5897
  140CHL1   C2616613   0.625   3.570  15.588  0.7312  0.1783 -0.0072
  140CHL1  H26A16614   0.669   3.512  15.504 -0.3645 -1.8467  0.7416
  140CHL1  H26B16615   0.690   3.581  15.678 -1.2187 -0.0298  1.4878
  140CHL1  H26C16616   0.534   3.515  15.621  0.6864  0.2431 -0.0240
  140CHL1   C2716617   0.498   3.780  15.635  0.3820 -0.5359  0.4599
  140CHL1  H27A16618   0.414   3.730  15.688 -2.2091  2.6959 -0.2795
  140CHL1  H27B16619   0.576   3.807  15.710  2.1589 -1.3003 -1.0346
  140CHL1  H27C16620   0.470   3.877  15.589  0.7950 -1.7440 -2.6146
  141DOPC     N16621   4.751   6.323  18.513 -0.3237 -0.8804 -0.1494
  141DOPC   C1216622   4.782   6.203  18.429  0.3602 -0.4241 -0.3054
  141DOPC  H12A16623   4.686   6.170  18.393  0.2372 -0.2200 -0.1665
  141DOPC  H12B16624   4.805   6.129  18.504 -0.8773  1.5084  2.1054
  141DOPC   C1316625   4.860   6.354  18.608 -0.3275 -0.1767 -1.0215
  141DOPC  H13A16626   4.841   6.442  18.669 -0.0702 -2.2774  2.3445
  141DOPC  H13B16627   4.869   6.275  18.681 -3.2598 -0.4185 -0.7750
  141DOPC  H13C16628   4.954   6.362  18.557  0.7248 -2.3434  0.4675
  141DOPC   C1416629   4.629   6.294  18.598  0.1562 -0.2479 -0.6864
  141DOPC  H14A16630   4.638   6.209  18.664 -0.8539 -0.2261 -0.5001
  141DOPC  H14B16631   4.611   6.379  18.663  0.8681  0.0805 -0.9159
  141DOPC  H14C16632   4.553   6.263  18.528  2.6546 -0.3088 -3.5741
  141DOPC   C1516633   4.722   6.443  18.442 -0.2991 -0.4811 -0.4534
  141DOPC  H15A16634   4.653   6.434  18.360 -1.0954  1.7352 -0.1137
  141DOPC  H15B16635   4.816   6.475  18.401 -1.1307  0.8037 -1.4187
  141DOPC  H15C16636   4.680   6.519  18.507 -0.1031 -0.1088 -0.7562
  141DOPC   C1116637   4.874   6.226  18.313 -0.2895  0.7096  0.0468
  141DOPC  H11A16638   4.884   6.137  18.247 -2.3151 -0.5308  1.3040
  141DOPC  H11B16639   4.831   6.293  18.235  0.3316  1.0867  0.0136
  141DOPC     P16640   5.131   6.200  18.352 -0.2453 -0.0289  0.2499
  141DOPC   O1316641   5.100   6.055  18.382 -0.1712  0.1312  0.2366
  141DOPC   O1416642   5.216   6.277  18.441  0.1887  0.0231  0.8281
  141DOPC   O1216643   5.001   6.285  18.348 -0.0566 -0.2343 -0.2307
  141DOPC   O1116644   5.190   6.203  18.210  0.1928  0.8312 -0.0061
  141DOPC    C116645   5.156   6.279  18.092  0.1741  0.3845  0.1809
  141DOPC    HA16646   5.199   6.380  18.108  1.1670 -0.1031  0.7192
  141DOPC    HB16647   5.046   6.284  18.080  0.0572 -1.2199  0.3670
  141DOPC    C216648   5.221   6.224  17.963 -0.2013  0.0670  0.4217
  141DOPC    HS16649   5.202   6.115  17.959  2.0057 -0.3565 -2.8890
  141DOPC   O2116650   5.356   6.256  17.954 -0.6447  0.3022 -0.3743
  141DOPC   C2116651   5.433   6.160  17.901 -0.0377  0.0027  0.2733
  141DOPC   O2216652   5.397   6.057  17.845  0.0579 -0.5030 -0.4036
  141DOPC   C2216653   5.574   6.214  17.905  0.3915 -0.0822 -0.3062
  141DOPC   H2R16654   5.610   6.235  18.008 -4.3447  1.0571  1.3487
  141DOPC   H2S16655   5.555   6.309  17.851  1.1283 -0.6869 -1.6684
  141DOPC    C316656   5.147   6.299  17.846 -0.4718  0.3143  0.0780
  141DOPC    HX16657   5.164   6.407  17.867  2.1715 -0.1878  0.9094
  141DOPC    HY16658   5.040   6.275  17.833 -0.7080  2.2374 -2.1702
  141DOPC   O3116659   5.215   6.276  17.720  0.0604  0.1945  0.2231
  141DOPC   C3116660   5.172   6.171  17.655  0.5414  0.0725  0.5577
  141DOPC   O3216661   5.068   6.109  17.674  0.3942  0.3042 -0.2826
  141DOPC   C3216662   5.263   6.137  17.528 -0.3198 -0.8610 -0.3223
  141DOPC   H2X16663   5.309   6.227  17.483 -0.5724 -0.6305 -0.1267
  141DOPC   H2Y16664   5.343   6.079  17.580 -0.0562 -0.5586 -0.3898
  141DOPC   C2316665   5.678   6.133  17.815  0.0490 -0.2310 -0.4570
  141DOPC   H3R16666   5.663   6.025  17.833  0.3632  0.1170  2.2790
  141DOPC   H3S16667   5.785   6.159  17.834  0.4395 -3.1352  2.1126
  141DOPC   C2416668   5.672   6.166  17.666  0.4805 -0.1042  0.5323
  141DOPC   H4R16669   5.709   6.268  17.642 -0.3092 -0.4270 -2.3719
  141DOPC   H4S16670   5.566   6.164  17.632 -0.1127  0.7772  2.2235
  141DOPC   C2516671   5.759   6.066  17.596  0.2797 -0.3249  0.3250
  141DOPC   H5R16672   5.716   5.964  17.599  0.4546 -0.3816  1.4712
  141DOPC   H5S16673   5.858   6.071  17.646  0.6358 -0.0689 -0.3876
  141DOPC   C2616674   5.773   6.102  17.448 -0.2066 -0.4932  0.3288
  141DOPC   H6R16675   5.843   6.032  17.399 -1.1472 -2.1133  1.2177
  141DOPC   H6S16676   5.811   6.206  17.441 -1.2488 -0.1352 -0.2227
  141DOPC   C2716677   5.647   6.106  17.357 -0.3756  0.7619  0.4611
  141DOPC   H7R16678   5.575   6.183  17.392 -1.5138  1.4037 -2.9578
  141DOPC   H7S16679   5.604   6.005  17.371 -0.3333  0.4473 -1.5019
  141DOPC   C2816680   5.673   6.117  17.204 -0.0192 -0.0725 -0.0958
  141DOPC   H8R16681   5.585   6.076  17.150 -0.9093 -0.5559  1.6559
  141DOPC   H8S16682   5.752   6.043  17.178 -2.1397 -1.8765 -1.8025
  141DOPC   C2916683   5.709   6.253  17.153  0.3215  0.2875  0.8034
  141DOPC   H9R16684   5.724   6.326  17.234 -2.0483 -1.0476  2.5747
  141DOPC  C21016685   5.742   6.294  17.028 -0.4238  0.2384  0.1363
  141DOPC  H10R16686   5.768   6.400  17.016 -1.9910  0.4484 -2.3032
  141DOPC  C21116687   5.733   6.215  16.900 -0.2401  0.0473 -0.1793
  141DOPC  H11R16688   5.629   6.175  16.909  0.2105 -1.4880 -1.2837
  141DOPC  H11S16689   5.804   6.130  16.889  0.5537  0.6924 -0.1351
  141DOPC  C21216690   5.762   6.301  16.777  0.2024 -0.5528  0.5131
  141DOPC  H12R16691   5.848   6.367  16.803 -1.4894  2.2706 -0.6294
  141DOPC  H12S16692   5.681   6.377  16.772  0.7440 -0.0682 -2.3887
  141DOPC  C21316693   5.773   6.229  16.647  0.3673  0.0136  0.1302
  141DOPC  H13R16694   5.686   6.162  16.629  0.1587  0.9404 -2.7767
  141DOPC  H13S16695   5.859   6.159  16.637  0.2433 -0.1650  0.3079
  141DOPC  C21416696   5.800   6.331  16.526  0.5205  0.1904  0.0083
  141DOPC  H14R16697   5.900   6.378  16.515  0.3224  0.8031  0.7401
  141DOPC  H14S16698   5.723   6.408  16.550 -1.8391 -2.4286  1.3861
  141DOPC  C21516699   5.762   6.265  16.390 -0.2385 -0.9414 -0.0636
  141DOPC  H15R16700   5.666   6.210  16.404 -1.2020  0.7992  0.4693
  141DOPC  H15S16701   5.832   6.182  16.368 -0.0726 -1.2183  1.4096
  141DOPC  C21616702   5.754   6.368  16.274  0.6676  0.1984 -0.0346
  141DOPC  H16R16703   5.849   6.427  16.273  0.8090 -0.0316 -1.0040
  141DOPC  H16S16704   5.662   6.428  16.290 -0.0758 -0.5310 -1.4317
  141DOPC  C21716705   5.728   6.296  16.141 -0.0423  0.2733 -0.0440
  141DOPC  H17R16706   5.627   6.250  16.150  0.6180 -1.4196 -0.9583
  141DOPC  H17S16707   5.808   6.220  16.130 -0.8481 -0.4725 -0.8854
  141DOPC  C21816708   5.712   6.392  16.026 -0.7888  0.4874  0.1300
  141DOPC  H18R16709   5.801   6.458  16.025 -0.1045 -0.4025 -1.3372
  141DOPC  H18S16710   5.625   6.461  16.033 -0.1852  1.3325 -0.4830
  141DOPC  H18T16711   5.712   6.356  15.921 -1.6134  0.4657  0.1310
  141DOPC   C3316712   5.205   6.048  17.420 -0.0782 -0.6863  0.1965
  141DOPC   H3X16713   5.112   6.101  17.389  0.6012 -0.4683 -1.6347
  141DOPC   H3Y16714   5.173   5.952  17.465 -1.8880  0.4762  1.5448
  141DOPC   C3416715   5.277   6.043  17.285  0.2403 -0.3908  0.1956
  141DOPC   H4X16716   5.358   5.973  17.314  0.4206  0.2834  1.3943
  141DOPC   H4Y16717   5.316   6.145  17.262 -0.2617 -0.3862 -0.6807
  141DOPC   C3516718   5.188   6.007  17.165 -0.3699  0.5758 -0.8430
  141DOPC   H5X16719   5.109   6.082  17.143 -2.0241 -1.5235 -2.5985
  141DOPC   H5Y16720   5.134   5.911  17.182  1.5888 -0.2066  1.4508
  141DOPC   C3616721   5.266   6.002  17.032  0.0582  0.0183  0.4821
  141DOPC   H6X16722   5.295   6.107  17.013 -0.4002 -0.0775 -0.8498
  141DOPC   H6Y16723   5.351   5.930  17.029 -0.4847 -0.6237  0.2419
  141DOPC   C3716724   5.168   5.970  16.908 -0.2682 -0.4175 -0.8842
  141DOPC   H7X16725   5.119   5.874  16.935 -0.0237  0.0038  1.2022
  141DOPC   H7Y16726   5.094   6.052  16.897  0.6399  0.3935 -1.1194
  141DOPC   C3816727   5.250   5.947  16.776 -0.3981 -0.8571 -0.4886
  141DOPC   H8X16728   5.349   5.908  16.808 -0.0830  0.6971  0.5568
  141DOPC   H8Y16729   5.260   6.052  16.742 -0.9427 -0.4621  0.5163
  141DOPC   C3916730   5.181   5.857  16.677  0.5631  0.2512  0.3390
  141DOPC   H9X16731   5.148   5.756  16.708  0.7645 -0.4835 -1.6879
  141DOPC  C31016732   5.168   5.872  16.543  0.3832  0.0347 -0.0113
  141DOPC  H10X16733   5.126   5.791  16.482  1.0577 -0.1796 -0.1929
  141DOPC  C31116734   5.215   5.989  16.453  0.4878  0.0650  0.1600
  141DOPC  H11X16735   5.282   6.050  16.518  0.9491  2.3299 -2.2692
  141DOPC  H11Y16736   5.136   6.064  16.431  0.3667  0.0049  0.3969
  141DOPC  C31216737   5.283   5.950  16.321 -0.4899 -0.3151  1.0264
  141DOPC  H12X16738   5.351   5.863  16.333  0.9053  0.6456  0.4711
  141DOPC  H12Y16739   5.338   6.038  16.281 -2.8077  1.7247  2.0789
  141DOPC  C31316740   5.174   5.919  16.213 -0.6881 -0.4265  0.6341
  141DOPC  H13X16741   5.116   5.837  16.259 -0.7830 -0.5289  0.3361
  141DOPC  H13Y16742   5.103   6.002  16.195 -0.0988  0.1395  0.8726
  141DOPC  C31416743   5.235   5.861  16.079  0.0391  0.2463 -0.4412
  141DOPC  H14X16744   5.333   5.907  16.053 -0.7201  2.6929  0.7456
  141DOPC  H14Y16745   5.248   5.752  16.097 -1.1914  0.0485 -0.6541
  141DOPC  C31516746   5.139   5.874  15.961 -0.3209 -0.3698  0.4674
  141DOPC  H15X16747   5.123   5.979  15.928 -0.4671 -0.7735 -0.8155
  141DOPC  H15Y16748   5.046   5.833  16.007 -0.2881 -0.3199  0.5772
  141DOPC  C31616749   5.177   5.775  15.853 -0.2028  0.0436  0.4463
  141DOPC  H16X16750   5.270   5.798  15.798 -1.3780 -1.2703 -2.2952
  141DOPC  H16Y16751   5.182   5.672  15.895 -1.1047  0.1065  0.7420
  141DOPC  C31716752   5.066   5.769  15.742 -0.2700  0.3641  0.2846
  141DOPC  H17X16753   4.974   5.723  15.785  0.6840  0.2292  2.3077
  141DOPC  H17Y16754   5.044   5.873  15.709 -1.4990 -0.1522 -0.5949
  141DOPC  C31816755   5.112   5.684  15.621 -0.2601  0.4172 -0.0643
  141DOPC  H18X16756   5.213   5.703  15.578 -0.4353  1.5516 -0.0030
  141DOPC  H18Y16757   5.108   5.581  15.662 -1.0464  0.1176 -0.8662
  141DOPC  H18Z16758   5.039   5.697  15.538 -0.4561  1.8782  0.3024
  142DOPC     N16759   5.244   0.300  18.667  0.1906 -0.8226 -0.3066
  142DOPC   C1216760   5.376   0.368  18.700 -0.0478 -0.7440  0.4789
  142DOPC  H12A16761   5.404   0.370  18.804  0.6420 -0.0266  0.2893
  142DOPC  H12B16762   5.370   0.473  18.676  2.4770 -0.6471  0.0158
  142DOPC   C1316763   5.249   0.160  18.709 -0.7565  0.3062 -0.1210
  142DOPC  H13A16764   5.319   0.108  18.645 -0.6052  0.9491 -0.4876
  142DOPC  H13B16765   5.279   0.152  18.812 -1.1250  1.6731  0.1074
  142DOPC  H13C16766   5.148   0.121  18.701  0.0062 -1.6175 -0.7870
  142DOPC   C1416767   5.220   0.313  18.515 -0.9507 -0.2753  0.5090
  142DOPC  H14A16768   5.114   0.294  18.502 -1.4790  1.5219  1.7467
  142DOPC  H14B16769   5.244   0.410  18.475  0.7271 -1.8883 -2.6977
  142DOPC  H14C16770   5.277   0.245  18.453 -0.4528  1.5823 -1.1543
  142DOPC   C1516771   5.123   0.373  18.739 -0.5906  0.8959  0.0367
  142DOPC  H15A16772   5.153   0.401  18.839  0.4626 -0.3231  0.0840
  142DOPC  H15B16773   5.036   0.309  18.739  0.1165 -0.1008  0.9616
  142DOPC  H15C16774   5.098   0.462  18.684 -2.3716  0.7874  0.6289
  142DOPC   C1116775   5.497   0.319  18.613 -0.1387 -0.2042 -0.4643
  142DOPC  H11A16776   5.468   0.337  18.507 -1.7753 -0.7627 -0.1337
  142DOPC  H11B16777   5.585   0.381  18.640  0.2282 -1.5741  1.7466
  142DOPC     P16778   5.570   0.088  18.525 -0.3182  0.1781 -0.0034
  142DOPC   O1316779   5.616  -0.040  18.588 -0.1785  0.0715  0.1550
  142DOPC   O1416780   5.656   0.166  18.433  0.5711  0.0404 -0.4957
  142DOPC   O1216781   5.535   0.186  18.644  0.4232 -0.0772 -0.1326
  142DOPC   O1116782   5.424   0.070  18.460 -0.0931 -0.1686 -0.0052
  142DOPC    C116783   5.384  -0.060  18.418 -0.3792  0.2908  0.0086
  142DOPC    HA16784   5.275  -0.074  18.435 -0.4905 -1.1217 -1.5688
  142DOPC    HB16785   5.445  -0.141  18.464 -1.3304 -0.3002  0.2582
  142DOPC    C216786   5.416  -0.086  18.270  0.2726  0.6367  0.5247
  142DOPC    HS16787   5.379  -0.188  18.245 -1.0211  0.9563  1.0623
  142DOPC   O2116788   5.559  -0.061  18.241  0.6354 -0.5080  0.0356
  142DOPC   C2116789   5.637  -0.169  18.255  0.2444  0.1280  0.3816
  142DOPC   O2216790   5.596  -0.284  18.264  0.0400  0.4345  0.4074
  142DOPC   C2216791   5.780  -0.123  18.269  0.5791  0.2026  0.3759
  142DOPC   H2R16792   5.819  -0.163  18.365 -1.7347  3.2028  2.7487
  142DOPC   H2S16793   5.784  -0.012  18.271  0.3824  0.2045  1.0963
  142DOPC    C316794   5.334   0.013  18.176  0.0292 -0.2943  0.5090
  142DOPC    HX16795   5.376   0.113  18.196 -1.4537  0.4146  0.2462
  142DOPC    HY16796   5.230   0.024  18.214  0.1632  0.1168  0.7631
  142DOPC   O3116797   5.342  -0.028  18.033 -0.8559  0.5754  0.0548
  142DOPC   C3116798   5.434   0.031  17.966  1.1080  0.3170  0.3269
  142DOPC   O3216799   5.506   0.118  18.004  0.5794  0.3441 -0.0913
  142DOPC   C3216800   5.439  -0.033  17.829  0.3113  0.5081  0.4690
  142DOPC   H2X16801   5.402  -0.136  17.842 -0.5543  0.6476 -0.7495
  142DOPC   H2Y16802   5.367   0.028  17.770  0.5029 -0.1520 -0.4642
  142DOPC   C2316803   5.883  -0.173  18.160  0.4268 -0.3924 -0.6323
  142DOPC   H3R16804   5.888  -0.284  18.161 -0.3274 -0.4304  0.7234
  142DOPC   H3S16805   5.973  -0.133  18.210 -2.2706  1.7472  3.0862
  142DOPC   C2416806   5.865  -0.107  18.027  0.1801 -0.6606 -0.4584
  142DOPC   H4R16807   5.869   0.004  18.040  2.0660 -0.5823 -1.3257
  142DOPC   H4S16808   5.767  -0.127  17.980 -0.9995  2.2159  0.5458
  142DOPC   C2516809   5.976  -0.146  17.931  0.3708  0.5088  0.2539
  142DOPC   H5R16810   5.990  -0.257  17.927  0.7911  0.5822 -0.3742
  142DOPC   H5S16811   6.074  -0.114  17.972 -0.0977  0.2382  1.6409
  142DOPC   C2616812   5.958  -0.074  17.792 -0.6964  0.3566  0.0553
  142DOPC   H6R16813   5.978   0.034  17.805  0.4041  0.2656 -0.7754
  142DOPC   H6S16814   5.853  -0.073  17.757 -0.2267 -1.2261 -1.5605
  142DOPC   C2716815   6.047  -0.142  17.685  0.3631  0.2882 -0.8100
  142DOPC   H7R16816   6.026  -0.250  17.677  0.5986  0.1743  0.0128
  142DOPC   H7S16817   6.155  -0.135  17.714  0.3405 -2.3473  0.1470
  142DOPC   C2816818   6.023  -0.069  17.549 -0.5949  0.0714  0.0922
  142DOPC   H8R16819   5.918  -0.075  17.514 -0.8344 -0.2349  0.8290
  142DOPC   H8S16820   6.095  -0.115  17.479  1.2459  2.2339  0.4356
  142DOPC   C2916821   6.057   0.074  17.552 -0.7758 -0.2097 -0.1122
  142DOPC   H9R16822   5.985   0.144  17.596 -0.2008  0.5847 -0.4158
  142DOPC  C21016823   6.168   0.131  17.504 -0.0932  0.0832  0.0415
  142DOPC  H10R16824   6.167   0.237  17.475  1.1738 -0.6844 -3.1668
  142DOPC  C21116825   6.290   0.062  17.451 -1.0663 -0.4812  0.2764
  142DOPC  H11R16826   6.274   0.032  17.346 -1.6207  2.1231 -0.4607
  142DOPC  H11S16827   6.319  -0.025  17.514  3.0662  0.3586 -0.1877
  142DOPC  C21216828   6.411   0.158  17.453  0.4643  0.6827 -0.2252
  142DOPC  H12R16829   6.511   0.111  17.446  0.1172  0.0091 -0.7126
  142DOPC  H12S16830   6.406   0.208  17.552  0.8940 -2.9747  1.7854
  142DOPC  C21316831   6.395   0.272  17.348 -0.2715 -0.2152  0.1466
  142DOPC  H13R16832   6.479   0.341  17.368  0.7636 -1.6251  0.8125
  142DOPC  H13S16833   6.304   0.334  17.365 -0.1326  0.1648 -0.4649
  142DOPC  C21416834   6.408   0.233  17.205 -0.0986 -0.3228  0.5647
  142DOPC  H14R16835   6.383   0.330  17.158 -0.2525 -0.2496  0.7971
  142DOPC  H14S16836   6.333   0.155  17.179  2.4085 -2.5670 -0.3441
  142DOPC  C21516837   6.549   0.182  17.180 -0.1810  0.3717  0.0641
  142DOPC  H15R16838   6.563   0.082  17.225 -0.5004 -0.8131 -2.3180
  142DOPC  H15S16839   6.632   0.233  17.234 -0.5408  0.5251  0.4819
  142DOPC  C21616840   6.590   0.179  17.034  0.0390  0.1793 -0.0230
  142DOPC  H16R16841   6.701   0.176  17.029  0.2737  2.6718  1.8680
  142DOPC  H16S16842   6.564   0.276  16.985  0.7554  0.4354  0.0922
  142DOPC  C21716843   6.534   0.063  16.949  0.5432  0.2199 -0.5845
  142DOPC  H17R16844   6.426   0.088  16.947  1.1424  3.1649 -1.3795
  142DOPC  H17S16845   6.535  -0.040  16.989 -0.1080  0.3211 -0.3006
  142DOPC  C21816846   6.582   0.069  16.804  0.0338 -0.5239 -0.3850
  142DOPC  H18R16847   6.536  -0.012  16.744 -0.1057 -0.7610  0.0444
  142DOPC  H18S16848   6.693   0.060  16.808  0.4277  3.0478  0.5155
  142DOPC  H18T16849   6.563   0.162  16.746 -1.3369 -1.9781 -2.3753
  142DOPC   C3316850   5.576  -0.024  17.760 -0.2370  0.3497  0.0606
  142DOPC   H3X16851   5.646  -0.089  17.816  0.2284  0.9045  0.1341
  142DOPC   H3Y16852   5.619   0.078  17.766  0.1662  0.1374  1.1295
  142DOPC   C3416853   5.561  -0.071  17.614 -0.0499 -0.1827 -0.4164
  142DOPC   H4X16854   5.511  -0.171  17.610  1.3067 -0.8562 -1.0338
  142DOPC   H4Y16855   5.661  -0.087  17.570  1.0827  0.5299  1.7645
  142DOPC   C3516856   5.464   0.010  17.522 -0.1257  0.1268  0.0052
  142DOPC   H5X16857   5.470   0.120  17.529 -1.3408  0.1344  1.4580
  142DOPC   H5Y16858   5.355  -0.006  17.541 -0.4203  1.9630  0.0809
  142DOPC   C3616859   5.495  -0.016  17.372  0.1132  0.2535 -0.3460
  142DOPC   H6X16860   5.485  -0.126  17.361  0.1583  0.2148 -0.0030
  142DOPC   H6Y16861   5.417   0.031  17.308 -1.1161 -0.7161  0.4113
  142DOPC   C3716862   5.636   0.009  17.323 -0.6608  0.5321  0.1791
  142DOPC   H7X16863   5.700   0.056  17.400 -1.3033 -0.4104  1.3192
  142DOPC   H7Y16864   5.688  -0.085  17.295 -0.1343  1.1820 -1.0966
  142DOPC   C3816865   5.633   0.108  17.205 -0.4045 -0.1729  0.5112
  142DOPC   H8X16866   5.609   0.206  17.253  1.0980 -0.5652  2.1839
  142DOPC   H8Y16867   5.540   0.084  17.151  0.3058  1.0990 -1.3837
  142DOPC   C3916868   5.758   0.111  17.119  0.0759 -0.1335  0.2506
  142DOPC   H9X16869   5.848   0.125  17.181  0.4904 -4.1451  0.8272
  142DOPC  C31016870   5.775   0.089  16.991 -0.3085  0.4054  0.2716
  142DOPC  H10X16871   5.876   0.089  16.949 -0.1208  2.9196  0.5468
  142DOPC  C31116872   5.670   0.056  16.891  1.0048  0.2057  0.9516
  142DOPC  H11X16873   5.568   0.084  16.923  0.3792  1.1244 -1.5836
  142DOPC  H11Y16874   5.657  -0.052  16.865 -1.6992  1.0987 -2.0503
  142DOPC  C31216875   5.699   0.136  16.760  0.0130  0.6402 -0.4354
  142DOPC  H12X16876   5.727   0.242  16.778  1.0001  0.4779 -0.9222
  142DOPC  H12Y16877   5.603   0.139  16.705 -0.2404 -0.0834 -0.0511
  142DOPC  C31316878   5.801   0.060  16.679 -0.4180  0.8972 -0.6678
  142DOPC  H13X16879   5.903   0.057  16.724  0.7282  0.2917 -3.1208
  142DOPC  H13Y16880   5.777  -0.048  16.667  1.1576 -0.0187  2.9704
  142DOPC  C31416881   5.802   0.115  16.537 -0.3263  0.0965 -0.2117
  142DOPC  H14X16882   5.704   0.091  16.491 -0.8238  1.7022 -0.0405
  142DOPC  H14Y16883   5.810   0.225  16.541  1.4861  0.1216 -2.1757
  142DOPC  C31516884   5.915   0.051  16.449 -0.3775  0.4920 -0.2312
  142DOPC  H15X16885   5.898  -0.058  16.458 -0.6559  0.6243  1.0834
  142DOPC  H15Y16886   6.013   0.074  16.498  0.5775 -0.2100 -1.7573
  142DOPC  C31616887   5.920   0.102  16.305  0.5823  0.2151 -0.1233
  142DOPC  H16X16888   5.829   0.057  16.259 -0.3789  0.8876  1.0585
  142DOPC  H16Y16889   5.913   0.213  16.308  1.0282  0.3068 -1.5828
  142DOPC  C31716890   6.040   0.056  16.228  0.2991 -0.2864  0.8305
  142DOPC  H17X16891   6.127   0.086  16.290  0.8983  0.9519 -0.5396
  142DOPC  H17Y16892   6.046  -0.055  16.219  4.1593 -0.4212  2.7836
  142DOPC  C31816893   6.048   0.110  16.085 -0.2603  0.2630 -0.9825
  142DOPC  H18X16894   6.086   0.214  16.092 -0.5491  0.3899 -1.2647
  142DOPC  H18Y16895   6.131   0.064  16.027  1.0187  0.1261  0.8791
  142DOPC  H18Z16896   5.948   0.101  16.038 -0.2069  0.5822 -1.1589
  143DOPC     N16897   3.919   1.769  17.654 -0.1146 -0.1306 -0.6675
  143DOPC   C1216898   3.897   1.631  17.581  0.6416  0.0549  0.1759
  143DOPC  H12A16899   3.808   1.587  17.625  0.3246 -0.3771 -0.8666
  143DOPC  H12B16900   3.971   1.553  17.597  1.5409  0.6268 -1.0191
  143DOPC   C1316901   3.799   1.851  17.634 -0.1580 -0.2698  0.0189
  143DOPC  H13A16902   3.748   1.816  17.546 -1.6109 -0.7491  1.0207
  143DOPC  H13B16903   3.731   1.842  17.717  2.2407 -1.2843  2.0123
  143DOPC  H13C16904   3.830   1.954  17.623  3.4320 -1.1149  0.7380
  143DOPC   C1416905   4.042   1.827  17.589  0.3341 -0.2081  0.2235
  143DOPC  H14A16906   4.120   1.753  17.595  0.4812 -0.1882 -1.1644
  143DOPC  H14B16907   4.013   1.846  17.487 -3.0643 -0.0063  1.0926
  143DOPC  H14C16908   4.078   1.918  17.635 -0.3369  0.1895 -0.0297
  143DOPC   C1516909   3.949   1.737  17.797 -0.3057  0.1185 -0.7360
  143DOPC  H15A16910   4.035   1.672  17.801 -1.5072 -1.5545 -0.7039
  143DOPC  H15B16911   3.865   1.680  17.836  1.2812 -4.1176 -2.8621
  143DOPC  H15C16912   3.972   1.826  17.854 -1.8720 -0.4399  0.8483
  143DOPC   C1116913   3.874   1.639  17.424 -0.4104  0.4210 -0.2040
  143DOPC  H11A16914   3.958   1.690  17.373  1.3989 -0.3824  1.7975
  143DOPC  H11B16915   3.890   1.536  17.386 -1.7169  1.0388 -2.6569
  143DOPC     P16916   3.635   1.610  17.305  0.0415 -0.0322 -0.4270
  143DOPC   O1316917   3.527   1.705  17.275  0.2708 -0.0716 -0.3648
  143DOPC   O1416918   3.601   1.489  17.385 -0.4576 -1.2573  0.4431
  143DOPC   O1216919   3.751   1.695  17.382 -0.6350  0.8119 -0.0430
  143DOPC   O1116920   3.706   1.573  17.174  0.8282  0.6156 -0.2167
  143DOPC    C116921   3.768   1.681  17.111  0.3955 -0.7289  0.6203
  143DOPC    HA16922   3.865   1.700  17.162  0.3790  0.7242  0.1582
  143DOPC    HB16923   3.709   1.776  17.119 -0.5190 -1.4420  3.2412
  143DOPC    C216924   3.788   1.647  16.960  0.2028 -0.0340 -0.5979
  143DOPC    HS16925   3.835   1.733  16.908 -1.2662  0.7205 -0.7418
  143DOPC   O2116926   3.661   1.634  16.895 -0.1906 -0.0710 -0.1193
  143DOPC   C2116927   3.578   1.738  16.896 -0.0729  0.1541 -1.0074
  143DOPC   O2216928   3.613   1.852  16.906 -0.1392 -0.4117  0.2400
  143DOPC   C2216929   3.442   1.669  16.867 -0.3129 -0.1830 -0.2574
  143DOPC   H2R16930   3.390   1.686  16.963  0.8389 -0.8195  0.5057
  143DOPC   H2S16931   3.448   1.561  16.842 -2.9317 -0.3705 -0.3434
  143DOPC    C316932   3.878   1.526  16.930  0.4192  0.0637 -0.3456
  143DOPC    HX16933   3.836   1.437  16.980  0.6602  1.2007  2.0578
  143DOPC    HY16934   3.974   1.557  16.977  1.2728 -1.7072 -0.8343
  143DOPC   O3116935   3.907   1.514  16.791 -0.7871 -0.8768 -0.2090
  143DOPC   C3116936   4.004   1.435  16.755  0.2553  0.6815  0.3284
  143DOPC   O3216937   4.093   1.389  16.821 -0.1943  0.4430 -0.8848
  143DOPC   C3216938   4.007   1.417  16.603  0.4347 -0.1501 -0.4362
  143DOPC   H2X16939   4.028   1.309  16.583 -1.5221 -0.6630  0.0306
  143DOPC   H2Y16940   3.909   1.432  16.553 -0.1602 -1.0109  0.4229
  143DOPC   C2316941   3.361   1.743  16.763  0.1343  0.6084  0.3253
  143DOPC   H3R16942   3.366   1.853  16.772  0.8025  0.6685 -0.6143
  143DOPC   H3S16943   3.254   1.716  16.771  0.1871 -0.3813 -1.7999
  143DOPC   C2416944   3.408   1.702  16.622 -0.3165 -0.2640  0.3947
  143DOPC   H4R16945   3.420   1.592  16.609  0.2709 -0.1292 -0.2758
  143DOPC   H4S16946   3.502   1.755  16.593 -1.8305  2.7178  0.5773
  143DOPC   C2516947   3.304   1.736  16.524 -0.4220  0.1747  0.6475
  143DOPC   H5R16948   3.305   1.847  16.522 -1.7295  0.2027 -1.4696
  143DOPC   H5S16949   3.208   1.691  16.557 -1.4912  2.0275  0.2217
  143DOPC   C2616950   3.330   1.668  16.388 -0.2280 -0.5190  0.0824
  143DOPC   H6R16951   3.300   1.561  16.384 -1.9922 -0.0417 -0.3516
  143DOPC   H6S16952   3.440   1.667  16.373 -0.0665  1.3054  0.8154
  143DOPC   C2716953   3.258   1.745  16.266 -0.1593 -0.3686  0.8438
  143DOPC   H7R16954   3.289   1.850  16.248 -0.3258 -0.8137 -2.7973
  143DOPC   H7S16955   3.150   1.762  16.286 -0.5246  1.2047 -1.9240
  143DOPC   C2816956   3.276   1.674  16.134 -0.2622  0.0946 -0.2089
  143DOPC   H8R16957   3.242   1.743  16.054  1.3819  1.1576 -0.0533
  143DOPC   H8S16958   3.203   1.590  16.132  0.5460 -0.6071 -1.4447
  143DOPC   C2916959   3.415   1.637  16.091  0.4402  0.2967  0.4677
  143DOPC   H9R16960   3.485   1.720  16.108 -1.5267  1.7543  2.0158
  143DOPC  C21016961   3.451   1.520  16.038 -0.0472  0.5004  1.1162
  143DOPC  H10R16962   3.558   1.497  16.029 -0.2433 -1.4050  2.9151
  143DOPC  C21116963   3.360   1.405  16.006  0.2705  1.0507  0.5435
  143DOPC  H11R16964   3.254   1.435  16.021 -0.2168  0.0213 -0.6536
  143DOPC  H11S16965   3.382   1.318  16.070  1.3347 -0.3355 -1.5893
  143DOPC  C21216966   3.374   1.366  15.853  0.1531  0.0450  0.1390
  143DOPC  H12R16967   3.303   1.281  15.843 -0.3614  0.2956  1.4487
  143DOPC  H12S16968   3.475   1.333  15.820  0.2133 -0.1248  0.4859
  143DOPC  C21316969   3.313   1.464  15.747 -0.0781  0.5296 -0.1801
  143DOPC  H13R16970   3.377   1.553  15.728  0.2727  1.2112  3.4331
  143DOPC  H13S16971   3.220   1.511  15.786 -0.3504  0.3306 -0.5864
  143DOPC  C21416972   3.280   1.394  15.615 -0.9433 -0.1178 -0.3824
  143DOPC  H14R16973   3.210   1.309  15.629 -0.0426 -0.6256  1.1649
  143DOPC  H14S16974   3.377   1.363  15.570 -0.4885  0.5097  0.1495
  143DOPC  C21516975   3.216   1.486  15.505  0.2026  0.0169  0.6329
  143DOPC  H15R16976   3.248   1.593  15.501 -1.7072  0.5944 -0.8938
  143DOPC  H15S16977   3.108   1.486  15.531  0.0760  2.3586  0.3321
  143DOPC  C21616978   3.203   1.422  15.361 -0.0190  0.1156 -0.4302
  143DOPC  H16R16979   3.303   1.427  15.312 -0.2728  2.5537 -0.8179
  143DOPC  H16S16980   3.134   1.473  15.291  3.1875  2.4076 -2.1939
  143DOPC  C21716981   3.163   1.274  15.365 -0.0784  0.2962  0.5000
  143DOPC  H17R16982   3.071   1.278  15.427 -0.4057 -1.6765  0.2176
  143DOPC  H17S16983   3.237   1.209  15.417 -1.5304 -3.5891 -1.8593
  143DOPC  C21816984   3.150   1.207  15.223 -0.0835 -0.0360  0.0063
  143DOPC  H18R16985   3.098   1.281  15.159 -2.0109  0.4559  2.0055
  143DOPC  H18S16986   3.097   1.110  15.236 -1.2314  0.7209  1.2502
  143DOPC  H18T16987   3.245   1.178  15.172 -0.1955 -1.0994  0.3624
  143DOPC   C3316988   4.110   1.509  16.524 -0.6446 -0.1617 -0.1012
  143DOPC   H3X16989   4.211   1.489  16.565 -0.9814  1.4311  1.6204
  143DOPC   H3Y16990   4.098   1.618  16.540  0.6540 -0.0292  0.0148
  143DOPC   C3416991   4.105   1.481  16.368  0.1015  0.3235 -0.3102
  143DOPC   H4X16992   3.999   1.479  16.335  0.1331  1.5733 -0.5486
  143DOPC   H4Y16993   4.134   1.375  16.352  1.4116  0.3562  1.5592
  143DOPC   C3516994   4.182   1.572  16.275 -0.9740 -0.2522  0.5737
  143DOPC   H5X16995   4.292   1.557  16.281 -0.6463  1.6323 -0.0755
  143DOPC   H5Y16996   4.171   1.680  16.296 -0.5270  0.0657 -0.7304
  143DOPC   C3616997   4.143   1.547  16.128 -0.5034  0.2173 -0.0118
  143DOPC   H6X16998   4.162   1.440  16.109 -0.6265  0.0851  0.5957
  143DOPC   H6Y16999   4.034   1.564  16.118 -1.0650 -3.1684 -0.6680
  143DOPC   C3717000   4.218   1.649  16.032 -0.1282  0.2683 -0.6171
  143DOPC   H7X17001   4.189   1.750  16.067 -0.8539 -0.0713 -0.1980
  143DOPC   H7Y17002   4.326   1.643  16.058 -0.2592 -4.7624 -0.2191
  143DOPC   C3817003   4.201   1.641  15.880  0.0779  0.1041  0.2322
  143DOPC   H8X17004   4.252   1.726  15.830  1.2631 -0.9688 -0.4398
  143DOPC   H8Y17005   4.094   1.658  15.855  0.3178  0.6143 -0.4560
  143DOPC   C3917006   4.267   1.510  15.828  0.6230  0.1877  0.3001
  143DOPC   H9X17007   4.325   1.453  15.901 -2.1066 -0.3641  2.1713
  143DOPC  C31017008   4.227   1.455  15.708  0.1190  0.0614 -0.1488
  143DOPC  H10X17009   4.265   1.356  15.678  0.3904  0.1875 -0.2234
  143DOPC  C31117010   4.123   1.512  15.610  0.4220 -0.0339 -0.0343
  143DOPC  H11X17011   4.101   1.618  15.635  2.1477  0.4824 -0.5458
  143DOPC  H11Y17012   4.028   1.463  15.639  0.1801  0.3582 -0.1696
  143DOPC  C31217013   4.136   1.484  15.459 -0.5234 -0.1116 -0.1211
  143DOPC  H12X17014   4.135   1.375  15.441  0.5132 -0.4561  1.6541
  143DOPC  H12Y17015   4.240   1.516  15.434 -0.4325  0.0794  0.4764
  143DOPC  C31317016   4.032   1.554  15.365  0.6354  0.8410 -0.0398
  143DOPC  H13X17017   4.031   1.501  15.267 -0.0683  1.9227 -0.6361
  143DOPC  H13Y17018   3.933   1.545  15.415  0.7269 -0.9937 -0.0954
  143DOPC  C31417019   4.063   1.705  15.346 -0.5114 -0.2298  0.5325
  143DOPC  H14X17020   4.081   1.763  15.439  1.5243 -0.1590  0.1372
  143DOPC  H14Y17021   4.150   1.717  15.278  0.1134 -2.1299  0.9212
  143DOPC  C31517022   3.951   1.780  15.271  0.3506  0.5726 -0.4583
  143DOPC  H15X17023   3.861   1.775  15.336  0.2788 -0.0214 -0.6023
  143DOPC  H15Y17024   3.923   1.721  15.180  0.1854  1.1767 -0.8082
  143DOPC  C31617025   3.981   1.923  15.231  0.1057  0.2529 -0.8322
  143DOPC  H16X17026   3.996   1.990  15.319 -0.2013  1.4210 -1.6365
  143DOPC  H16Y17027   4.076   1.917  15.174  0.7940 -0.5014  0.3620
  143DOPC  C31717028   3.871   1.997  15.151 -0.4742  0.1905  0.0323
  143DOPC  H17X17029   3.857   1.922  15.070  1.3249 -1.2980  1.0287
  143DOPC  H17Y17030   3.777   2.003  15.209 -0.5781 -0.8020 -0.0198
  143DOPC  C31817031   3.909   2.135  15.090  0.4385  0.7310 -0.2813
  143DOPC  H18X17032   3.828   2.155  15.017  0.7224  2.0878 -0.2537
  143DOPC  H18Y17033   3.916   2.217  15.165 -1.3281  0.4515  0.2359
  143DOPC  H18Z17034   4.002   2.127  15.030  1.3199  0.7068  1.0324
  144DOPC     N17035   4.972   4.341  18.059 -0.3072  0.5815 -0.3327
  144DOPC   C1217036   5.002   4.482  18.023 -0.8576 -0.9708 -0.0033
  144DOPC  H12A17037   4.965   4.499  17.923  1.3847  0.5861 -0.6481
  144DOPC  H12B17038   5.109   4.497  18.021 -1.1153  1.0976  0.3360
  144DOPC   C1317039   4.835   4.299  18.044  0.3995 -0.2233  0.2714
  144DOPC  H13A17040   4.799   4.285  17.943  0.0190 -1.9328  0.6117
  144DOPC  H13B17041   4.819   4.198  18.080  0.6948 -1.1169 -1.9260
  144DOPC  H13C17042   4.771   4.359  18.107  0.4416  0.9854 -0.7962
  144DOPC   C1417043   5.014   4.308  18.201  0.3284  0.5697 -0.6110
  144DOPC  H14A17044   5.121   4.323  18.211 -0.0738  2.0294  2.4978
  144DOPC  H14B17045   4.955   4.370  18.267 -0.2120 -1.6307  1.0789
  144DOPC  H14C17046   4.993   4.208  18.233  1.4308  1.2360  2.5828
  144DOPC   C1517047   5.037   4.243  17.975  0.7829  0.9234 -0.2108
  144DOPC  H15A17048   5.020   4.142  18.010 -2.3886  1.0514 -1.0491
  144DOPC  H15B17049   5.145   4.250  17.975  0.9678 -1.0705 -1.6640
  144DOPC  H15C17050   5.012   4.243  17.870  1.1916 -1.7189 -0.3886
  144DOPC   C1117051   4.952   4.591  18.113 -0.7589 -0.5648  0.0423
  144DOPC  H11A17052   4.999   4.568  18.211 -1.1694 -0.0589  0.3626
  144DOPC  H11B17053   4.979   4.693  18.077 -1.7060 -0.8773 -1.6489
  144DOPC     P17054   4.716   4.669  18.014  0.1186  0.2267  0.1438
  144DOPC   O1317055   4.635   4.767  18.091  0.6412 -0.3339 -0.1268
  144DOPC   O1417056   4.645   4.567  17.936 -0.0657  0.1183  0.1807
  144DOPC   O1217057   4.809   4.592  18.122  0.3388  0.5240  0.6105
  144DOPC   O1117058   4.828   4.743  17.930  0.3864 -0.3258 -0.2992
  144DOPC    C117059   4.817   4.876  17.877  0.2689 -0.6887  0.2691
  144DOPC    HA17060   4.910   4.930  17.906  0.6056 -1.0049 -0.2146
  144DOPC    HB17061   4.734   4.936  17.922  0.2127 -1.6461  1.4930
  144DOPC    C217062   4.787   4.887  17.727  0.0151 -0.1057  0.4370
  144DOPC    HS17063   4.687   4.838  17.716 -0.2514 -0.7697  4.3064
  144DOPC   O2117064   4.884   4.815  17.657  0.9619  0.1606 -0.1842
  144DOPC   C2117065   4.842   4.765  17.538  0.4006  0.7401  0.5414
  144DOPC   O2217066   4.729   4.765  17.501  0.0045  0.0269 -0.0165
  144DOPC   C2217067   4.956   4.718  17.445  0.3759  0.1884  0.5095
  144DOPC   H2R17068   4.941   4.610  17.422  0.3748  0.5813 -1.4468
  144DOPC   H2S17069   5.048   4.730  17.506 -0.6038  3.0017  1.5961
  144DOPC    C317070   4.789   5.042  17.694  1.1532 -0.0545  0.0744
  144DOPC    HX17071   4.898   5.063  17.703  1.2026 -0.3087  0.0553
  144DOPC    HY17072   4.729   5.100  17.767  1.6061 -0.6384  0.9267
  144DOPC   O3117073   4.748   5.055  17.552  0.0683 -0.1306 -0.6566
  144DOPC   C3117074   4.620   5.044  17.530  0.0237 -0.0352  0.7577
  144DOPC   O3217075   4.537   5.037  17.612 -0.1457 -0.0213 -0.0952
  144DOPC   C3217076   4.590   5.047  17.377 -0.6399 -0.1391  0.4347
  144DOPC   H2X17077   4.682   5.022  17.322 -1.4664 -0.0953 -1.0194
  144DOPC   H2Y17078   4.510   4.974  17.353  0.6570 -3.0615  4.0308
  144DOPC   C2317079   4.968   4.794  17.307  0.1315  0.3686 -0.3171
  144DOPC   H3R17080   5.011   4.895  17.321 -1.1437  1.2124 -2.1616
  144DOPC   H3S17081   4.870   4.791  17.255  0.6067 -1.9418 -1.2105
  144DOPC   C2417082   5.070   4.726  17.211 -0.4678  0.5046 -0.1394
  144DOPC   H4R17083   5.052   4.616  17.210  1.3893  0.1869 -0.9526
  144DOPC   H4S17084   5.164   4.758  17.260 -1.8430  0.7887  2.5445
  144DOPC   C2517085   5.071   4.787  17.072 -0.2527 -0.3363  0.4608
  144DOPC   H5R17086   5.086   4.897  17.081 -1.3012 -0.0236 -1.1934
  144DOPC   H5S17087   4.969   4.773  17.029  0.4413  0.5795 -1.5747
  144DOPC   C2617088   5.187   4.738  16.980  0.2012  0.1771 -0.3014
  144DOPC   H6R17089   5.174   4.628  16.977  0.1993  0.1670  0.0506
  144DOPC   H6S17090   5.282   4.750  17.037 -0.2619  1.7843  0.2014
  144DOPC   C2717091   5.186   4.787  16.842 -0.7292 -0.1061 -0.0489
  144DOPC   H7R17092   5.255   4.874  16.842 -0.0623 -0.6315 -0.0840
  144DOPC   H7S17093   5.083   4.823  16.819 -0.9140 -0.5267  0.1085
  144DOPC   C2817094   5.251   4.690  16.738 -0.5024  0.2568  0.0833
  144DOPC   H8R17095   5.350   4.671  16.786  0.4804 -0.8401 -2.2170
  144DOPC   H8S17096   5.274   4.732  16.638  0.3903  0.8235  0.5106
  144DOPC   C2917097   5.174   4.563  16.724  0.6951  0.6264  0.4091
  144DOPC   H9R17098   5.191   4.488  16.802 -0.4232  0.1227  0.1909
  144DOPC  C21017099   5.093   4.529  16.616  1.1042  0.0171 -0.6713
  144DOPC  H10R17100   5.051   4.428  16.614  1.5264 -0.2999  2.1775
  144DOPC  C21117101   5.068   4.617  16.495  0.2519  0.1094  1.0386
  144DOPC  H11R17102   5.093   4.561  16.402 -1.3341  0.3889  0.3946
  144DOPC  H11S17103   5.121   4.715  16.499  1.3664 -0.5018  1.7447
  144DOPC  C21217104   4.915   4.651  16.479  1.1061  0.7689  0.3438
  144DOPC  H12R17105   4.882   4.707  16.569 -0.6483  0.9184 -0.3413
  144DOPC  H12S17106   4.868   4.551  16.468  0.0198  1.2480  0.4915
  144DOPC  C21317107   4.884   4.741  16.355  0.7995 -0.0124 -0.0676
  144DOPC  H13R17108   4.975   4.805  16.356 -0.8963  2.5193 -0.4948
  144DOPC  H13S17109   4.794   4.803  16.370  0.7543 -0.0087 -0.3518
  144DOPC  C21417110   4.867   4.664  16.220 -0.0448 -0.0946 -0.4858
  144DOPC  H14R17111   4.773   4.604  16.219 -0.4086  0.4643 -1.8451
  144DOPC  H14S17112   4.957   4.601  16.202  1.0324  1.0513  0.7082
  144DOPC  C21517113   4.849   4.764  16.113  0.0946 -0.0277  0.3591
  144DOPC  H15R17114   4.948   4.813  16.098  0.9722 -1.7509  0.2908
  144DOPC  H15S17115   4.777   4.846  16.134 -1.3298 -1.2515  0.3843
  144DOPC  C21617116   4.811   4.708  15.981  0.6479  0.0952  0.2649
  144DOPC  H16R17117   4.708   4.667  15.989  0.6467  0.2033  0.8264
  144DOPC  H16S17118   4.878   4.620  15.968  2.0702  1.0979  0.5404
  144DOPC  C21717119   4.837   4.801  15.857 -0.2704 -0.7621  0.2451
  144DOPC  H17R17120   4.805   4.744  15.767 -1.8221 -0.2256  0.4370
  144DOPC  H17S17121   4.941   4.840  15.846  0.0833 -1.6080  0.4739
  144DOPC  C21817122   4.740   4.919  15.871  0.3237 -0.3664  0.5087
  144DOPC  H18R17123   4.644   4.875  15.908  1.0798  0.0023  3.0905
  144DOPC  H18S17124   4.721   4.963  15.770  0.6580 -0.5242  0.3780
  144DOPC  H18T17125   4.755   4.997  15.949 -1.0808 -1.0851  1.5490
  144DOPC   C3317126   4.535   5.180  17.316 -0.6333 -0.6091 -0.3960
  144DOPC   H3X17127   4.619   5.252  17.330 -0.1036 -1.7973  3.9012
  144DOPC   H3Y17128   4.460   5.200  17.395  1.0394 -0.3669  1.1834
  144DOPC   C3417129   4.467   5.169  17.180 -0.0319  0.1449 -0.4966
  144DOPC   H4X17130   4.373   5.110  17.180 -0.5641  0.9702  0.0347
  144DOPC   H4Y17131   4.542   5.120  17.115 -0.0147  1.4111 -1.4833
  144DOPC   C3517132   4.417   5.311  17.139  0.2751 -0.0909 -0.6068
  144DOPC   H5X17133   4.497   5.388  17.137 -0.1847  0.4112 -0.0516
  144DOPC   H5Y17134   4.338   5.348  17.208 -2.1532 -0.2010 -3.1199
  144DOPC   C3617135   4.358   5.328  16.996  0.4906  0.5550  0.6799
  144DOPC   H6X17136   4.255   5.286  16.999  0.2753  1.0262  0.0731
  144DOPC   H6Y17137   4.344   5.436  16.974  1.7198  0.5331 -0.3180
  144DOPC   C3717138   4.433   5.255  16.885 -0.0780  0.0218  0.0422
  144DOPC   H7X17139   4.537   5.281  16.914 -1.0225  1.9223  1.9873
  144DOPC   H7Y17140   4.419   5.146  16.904  0.6051 -0.6886 -2.9711
  144DOPC   C3817141   4.384   5.287  16.739  0.0935  0.0083 -0.6978
  144DOPC   H8X17142   4.424   5.390  16.726 -0.7778  0.4060 -0.2804
  144DOPC   H8Y17143   4.274   5.303  16.747 -0.0115 -0.5757 -0.9358
  144DOPC   C3917144   4.426   5.185  16.640 -0.6813  0.0942 -0.5189
  144DOPC   H9X17145   4.482   5.100  16.679  1.3555  1.0131 -1.2951
  144DOPC  C31017146   4.423   5.200  16.504 -0.4160  0.4291 -0.6295
  144DOPC  H10X17147   4.457   5.117  16.442 -1.1781 -1.3910  1.2689
  144DOPC  C31117148   4.370   5.325  16.430  0.1879  0.2704 -0.2109
  144DOPC  H11X17149   4.314   5.385  16.505 -0.2206  0.1777 -0.4443
  144DOPC  H11Y17150   4.293   5.291  16.358  0.2503 -0.8460  0.2414
  144DOPC  C31217151   4.487   5.382  16.353  0.7982 -0.2640 -0.0761
  144DOPC  H12X17152   4.567   5.398  16.427 -0.7374 -2.0999  2.1039
  144DOPC  H12Y17153   4.464   5.476  16.299  1.7450 -0.2179 -0.4194
  144DOPC  C31317154   4.550   5.296  16.242 -0.2725 -0.5910  0.2209
  144DOPC  H13X17155   4.649   5.343  16.223 -0.1471 -0.7430  0.4812
  144DOPC  H13Y17156   4.582   5.201  16.290 -2.1289 -1.2462  0.2450
  144DOPC  C31417157   4.468   5.292  16.110 -0.0319 -0.1340  0.4422
  144DOPC  H14X17158   4.368   5.259  16.145  1.1225 -0.9092  3.3794
  144DOPC  H14Y17159   4.455   5.392  16.065  1.2386 -0.6015 -1.0271
  144DOPC  C31517160   4.535   5.191  16.024 -0.3363  0.0169  0.1332
  144DOPC  H15X17161   4.544   5.099  16.086  2.1242  1.1225  1.6048
  144DOPC  H15Y17162   4.641   5.218  16.004 -1.0395  1.8705 -1.3448
  144DOPC  C31617163   4.461   5.156  15.896 -0.2756 -0.3130 -0.4263
  144DOPC  H16X17164   4.482   5.048  15.878 -0.8825 -0.9860  2.4604
  144DOPC  H16Y17165   4.352   5.155  15.915 -0.3405  0.8203 -0.6937
  144DOPC  C31717166   4.506   5.244  15.777 -0.4313  0.4586 -0.1291
  144DOPC  H17X17167   4.483   5.349  15.807 -0.8713 -0.3065  2.4780
  144DOPC  H17Y17168   4.617   5.232  15.775 -0.0483  2.8142  1.6400
  144DOPC  C31817169   4.456   5.204  15.633 -0.4153 -0.2299  0.3247
  144DOPC  H18X17170   4.493   5.104  15.600  0.6315  0.7896 -1.7747
  144DOPC  H18Y17171   4.346   5.213  15.628 -0.3607  0.0047 -0.7465
  144DOPC  H18Z17172   4.510   5.273  15.565  1.4552 -0.5309  1.4381
  145DOPC     N17173   5.007   0.781  17.739  0.0211  0.1659  0.0544
  145DOPC   C1217174   4.910   0.794  17.619 -0.6115  0.2464 -0.5674
  145DOPC  H12A17175   4.968   0.831  17.536 -0.1354 -1.6377 -1.1228
  145DOPC  H12B17176   4.834   0.864  17.648 -2.6384 -1.9227 -0.3294
  145DOPC   C1317177   4.956   0.701  17.858 -0.3708  0.1223  0.0345
  145DOPC  H13A17178   4.892   0.753  17.929  0.2885  1.5112 -0.3510
  145DOPC  H13B17179   4.900   0.618  17.817 -0.8715 -0.8164  2.4305
  145DOPC  H13C17180   5.037   0.659  17.916 -1.9418 -0.4806  1.9238
  145DOPC   C1417181   5.037   0.918  17.792  0.0220 -0.0099 -0.2229
  145DOPC  H14A17182   4.946   0.973  17.808  0.7181  0.6566  1.7235
  145DOPC  H14B17183   5.101   0.900  17.877  0.9335  1.0116 -0.6677
  145DOPC  H14C17184   5.092   0.973  17.717 -2.2946  1.1852 -1.1465
  145DOPC   C1517185   5.130   0.715  17.691 -0.3677  0.5187 -0.3057
  145DOPC  H15A17186   5.196   0.690  17.772  0.9830  0.6687 -1.3192
  145DOPC  H15B17187   5.194   0.775  17.629  1.1285 -1.9876 -1.3406
  145DOPC  H15C17188   5.101   0.629  17.632  1.5602 -0.6534  0.3782
  145DOPC   C1117189   4.845   0.664  17.567  0.2538 -0.1115 -0.2731
  145DOPC  H11A17190   4.802   0.687  17.467  1.2409  2.2390 -0.2439
  145DOPC  H11B17191   4.910   0.577  17.543 -0.6765 -0.5574 -1.2299
  145DOPC     P17192   4.609   0.679  17.663 -0.0507 -0.0899 -0.3003
  145DOPC   O1317193   4.609   0.828  17.682 -0.0312  0.1619  0.1379
  145DOPC   O1417194   4.537   0.601  17.767 -0.2408 -0.2092 -0.2720
  145DOPC   O1217195   4.751   0.618  17.665  0.3085 -0.3974 -0.5504
  145DOPC   O1117196   4.542   0.646  17.519  0.2136  0.3723  0.1334
  145DOPC    C117197   4.555   0.507  17.474 -0.8889 -0.0145 -0.1487
  145DOPC    HA17198   4.476   0.449  17.526  0.6741  0.8022  3.4829
  145DOPC    HB17199   4.658   0.465  17.482  0.3925  2.2363 -2.8589
  145DOPC    C217200   4.521   0.505  17.314 -0.4128 -0.1735  0.0450
  145DOPC    HS17201   4.522   0.403  17.270 -1.0540 -0.2766  0.2450
  145DOPC   O2117202   4.609   0.593  17.240  0.1142  0.3006  0.5536
  145DOPC   C2117203   4.731   0.550  17.230  0.0274 -0.5142 -0.4063
  145DOPC   O2217204   4.775   0.449  17.279  0.2565  0.2111  0.2493
  145DOPC   C2217205   4.810   0.658  17.155 -0.3009 -0.4737 -0.3459
  145DOPC   H2R17206   4.820   0.748  17.219  3.5474 -0.9308 -0.0096
  145DOPC   H2S17207   4.755   0.686  17.063 -0.9196  2.9628  0.9405
  145DOPC    C317208   4.383   0.559  17.294 -0.3296 -0.4071 -0.2404
  145DOPC    HX17209   4.378   0.668  17.311 -1.0902 -0.3757 -0.6270
  145DOPC    HY17210   4.316   0.511  17.369 -0.3506 -0.0822 -0.0512
  145DOPC   O3117211   4.357   0.518  17.159  0.3117  0.0235  0.1121
  145DOPC   C3117212   4.341   0.611  17.063 -0.5714 -0.3446  0.1183
  145DOPC   O3217213   4.317   0.731  17.078 -0.5032 -0.1210  0.5152
  145DOPC   C3217214   4.356   0.547  16.925  0.1880  0.0584 -0.1319
  145DOPC   H2X17215   4.461   0.510  16.924  0.6420  1.3039  0.2337
  145DOPC   H2Y17216   4.298   0.454  16.908  1.0043 -0.1323 -2.2231
  145DOPC   C2317217   4.945   0.595  17.112  0.4134 -0.4395  0.3046
  145DOPC   H3R17218   4.934   0.485  17.102 -1.3049 -0.3861  1.2199
  145DOPC   H3S17219   5.013   0.607  17.199  0.6562 -1.2462  0.2247
  145DOPC   C2417220   5.016   0.653  16.990  0.3602 -0.6013 -0.6669
  145DOPC   H4R17221   5.103   0.594  16.956  0.1781  0.4622 -3.1679
  145DOPC   H4S17222   5.053   0.754  17.018  0.4475 -0.8441  0.1349
  145DOPC   C2517223   4.930   0.662  16.861  0.1301 -0.2036 -0.5038
  145DOPC   H5R17224   4.850   0.586  16.868  0.8404 -0.8270  1.3255
  145DOPC   H5S17225   5.002   0.629  16.782 -0.3812  0.0057 -1.0710
  145DOPC   C2617226   4.868   0.803  16.828 -0.2471  0.5839  0.1971
  145DOPC   H6R17227   4.949   0.879  16.832 -0.4174  0.7663  0.1888
  145DOPC   H6S17228   4.799   0.833  16.909  0.2924  1.4173  0.3575
  145DOPC   C2717229   4.789   0.821  16.699  0.3725 -0.0104  0.1403
  145DOPC   H7R17230   4.764   0.928  16.688 -0.7279 -0.4968 -3.7799
  145DOPC   H7S17231   4.701   0.754  16.701 -0.8086  1.5219  0.6904
  145DOPC   C2817232   4.876   0.786  16.585  0.2052  0.5159  0.1661
  145DOPC   H8R17233   4.938   0.697  16.608  0.6498  0.5459 -0.8283
  145DOPC   H8S17234   4.946   0.871  16.570 -0.9468  1.3198 -0.8228
  145DOPC   C2917235   4.791   0.762  16.457  0.0390  0.3931 -0.4785
  145DOPC   H9R17236   4.687   0.793  16.472  0.9089  2.3163  2.5996
  145DOPC  C21017237   4.825   0.717  16.341  0.4760  0.0373 -0.5815
  145DOPC  H10R17238   4.749   0.698  16.264  0.4233  0.1933 -0.5675
  145DOPC  C21117239   4.968   0.684  16.308 -0.0349  0.1993  0.0752
  145DOPC  H11R17240   4.988   0.575  16.311  0.8846  0.3280 -0.9075
  145DOPC  H11S17241   5.042   0.722  16.382 -0.1815  1.3833 -0.3620
  145DOPC  C21217242   5.016   0.745  16.169 -0.2955 -0.0912 -0.4672
  145DOPC  H12R17243   5.120   0.712  16.149  0.4916 -0.1479  3.0268
  145DOPC  H12S17244   4.992   0.853  16.182 -3.3174 -0.9441  2.4308
  145DOPC  C21317245   4.937   0.706  16.043  0.0742 -0.1747  0.0194
  145DOPC  H13R17246   4.960   0.779  15.963 -0.9841 -2.5460 -2.6250
  145DOPC  H13S17247   4.831   0.733  16.062  0.4118  0.3695  1.2408
  145DOPC  C21417248   4.951   0.568  15.987 -0.1657  0.8233  0.1943
  145DOPC  H14R17249   4.904   0.492  16.055  2.1975  0.9962  2.1624
  145DOPC  H14S17250   5.056   0.534  15.980 -0.1418  1.1176 -1.0902
  145DOPC  C21517251   4.900   0.548  15.837 -0.4339  0.9314 -0.5158
  145DOPC  H15R17252   4.884   0.652  15.802  1.9030  1.7974  0.7183
  145DOPC  H15S17253   4.802   0.496  15.840 -0.2002  0.5071  1.1445
  145DOPC  C21617254   4.998   0.480  15.742 -0.6319  0.6051 -0.5376
  145DOPC  H16R17255   5.049   0.389  15.781 -1.7049 -0.7250 -2.0676
  145DOPC  H16S17256   5.075   0.558  15.724 -0.6417  0.2016 -2.6031
  145DOPC  C21717257   4.931   0.444  15.609  0.2704  0.0736  0.2162
  145DOPC  H17R17258   4.853   0.513  15.570 -0.0559 -0.7607 -0.6512
  145DOPC  H17S17259   4.882   0.344  15.615 -3.4931  1.6548 -1.0160
  145DOPC  C21817260   5.041   0.433  15.501  0.5340  0.1637  0.3058
  145DOPC  H18R17261   5.119   0.511  15.515  1.7306 -1.0765  0.7916
  145DOPC  H18S17262   5.006   0.428  15.396  0.3086 -3.1757  0.4579
  145DOPC  H18T17263   5.097   0.339  15.519  1.6119  0.8648  0.7412
  145DOPC   C3317264   4.332   0.652  16.817  0.0131  0.0324  0.1477
  145DOPC   H3X17265   4.397   0.740  16.834 -1.1416  1.2121 -1.3134
  145DOPC   H3Y17266   4.231   0.697  16.824 -0.3570 -0.2435 -2.4860
  145DOPC   C3417267   4.340   0.603  16.673  0.1607  0.6990  0.1072
  145DOPC   H4X17268   4.249   0.550  16.637 -1.0289  2.4984  0.2961
  145DOPC   H4Y17269   4.425   0.532  16.666  1.0529  1.3305  3.0230
  145DOPC   C3517270   4.367   0.722  16.579 -0.3599 -0.1343 -0.1177
  145DOPC   H5X17271   4.476   0.728  16.598 -0.2859 -3.5645  1.3415
  145DOPC   H5Y17272   4.299   0.807  16.600 -2.4635 -1.4603 -1.1782
  145DOPC   C3617273   4.363   0.688  16.433 -0.5479 -0.3228 -0.4573
  145DOPC   H6X17274   4.259   0.659  16.408 -0.5762 -2.3354  1.6811
  145DOPC   H6Y17275   4.380   0.782  16.376  0.0160  0.3690  0.8108
  145DOPC   C3717276   4.467   0.586  16.377  0.8349  0.6066 -0.7055
  145DOPC   H7X17277   4.553   0.651  16.348  1.3289  1.4456  2.2951
  145DOPC   H7Y17278   4.503   0.507  16.446 -1.4754 -0.6737 -0.8503
  145DOPC   C3817279   4.415   0.517  16.249 -0.7810 -0.4472  0.7658
  145DOPC   H8X17280   4.341   0.445  16.289  0.0510 -2.6355 -1.4126
  145DOPC   H8Y17281   4.492   0.451  16.204  0.6182  1.5556  0.0846
  145DOPC   C3917282   4.355   0.606  16.148 -0.1897 -0.4334  0.2552
  145DOPC   H9X17283   4.265   0.661  16.180  1.6769  3.1092 -0.0736
  145DOPC  C31017284   4.416   0.642  16.031  0.3544  0.0442 -0.5804
  145DOPC  H10X17285   4.366   0.719  15.970  1.6316 -0.1731 -1.9407
  145DOPC  C31117286   4.540   0.593  15.968 -0.2242  0.6441  0.3890
  145DOPC  H11X17287   4.616   0.552  16.038 -0.1586 -0.6293 -0.4005
  145DOPC  H11Y17288   4.598   0.675  15.919 -0.3324  0.1929 -0.4993
  145DOPC  C31217289   4.518   0.479  15.870  0.1574  0.6054 -0.0248
  145DOPC  H12X17290   4.453   0.401  15.915  1.1599  0.0724  0.5383
  145DOPC  H12Y17291   4.614   0.431  15.842  0.3432  1.3392 -0.6936
  145DOPC  C31317292   4.454   0.519  15.733  0.1314 -0.0081  0.0027
  145DOPC  H13X17293   4.348   0.485  15.732  0.2373 -0.3875  0.7396
  145DOPC  H13Y17294   4.441   0.629  15.731 -1.6460 -0.1602  1.1246
  145DOPC  C31417295   4.526   0.457  15.612  0.2701  0.2945 -0.7423
  145DOPC  H14X17296   4.633   0.485  15.614  1.1733 -2.7887  1.4876
  145DOPC  H14Y17297   4.514   0.348  15.631 -1.6403  0.9898  2.9720
  145DOPC  C31517298   4.463   0.487  15.474 -0.5745 -0.5594 -0.7617
  145DOPC  H15X17299   4.510   0.412  15.407 -1.3542 -0.5976 -1.2770
  145DOPC  H15Y17300   4.473   0.590  15.434 -1.7254 -0.0229  0.2548
  145DOPC  C31617301   4.308   0.466  15.478 -0.7683 -0.7355  0.6243
  145DOPC  H16X17302   4.284   0.365  15.517  0.3566 -0.7527  1.3343
  145DOPC  H16Y17303   4.258   0.543  15.541  0.7768  2.2021 -1.4622
  145DOPC  C31717304   4.252   0.468  15.330 -0.0633 -0.8066  0.1205
  145DOPC  H17X17305   4.289   0.560  15.279 -1.9009  0.5051  1.0333
  145DOPC  H17Y17306   4.295   0.377  15.283 -0.3335 -1.3865  0.9694
  145DOPC  C31817307   4.100   0.461  15.328 -0.5844 -0.3318  0.2019
  145DOPC  H18X17308   4.044   0.555  15.345  0.7091  0.3802  0.6987
  145DOPC  H18Y17309   4.083   0.421  15.225  1.2834 -0.9407  0.0798
  145DOPC  H18Z17310   4.068   0.385  15.402 -0.2232 -0.1097  0.5896
  146DOPC     N17311   5.121   5.303  18.480  0.6836  0.3574 -0.4483
  146DOPC   C1217312   5.016   5.416  18.472  0.6693 -0.0093  0.3049
  146DOPC  H12A17313   5.069   5.509  18.463  0.8883 -0.0924  0.7188
  146DOPC  H12B17314   4.961   5.432  18.563 -0.1798  0.7713 -0.3236
  146DOPC   C1317315   5.064   5.167  18.497  0.2563  0.2303 -0.1255
  146DOPC  H13A17316   4.998   5.159  18.582 -2.4720 -0.5675 -2.1757
  146DOPC  H13B17317   5.001   5.141  18.413 -0.3505 -0.1443  0.4401
  146DOPC  H13C17318   5.141   5.091  18.503  0.7288  0.6556 -0.6766
  146DOPC   C1417319   5.204   5.331  18.607  0.0557 -0.3212 -0.5331
  146DOPC  H14A17320   5.271   5.415  18.594 -0.7223  0.3169 -0.5356
  146DOPC  H14B17321   5.137   5.360  18.686  2.3486  2.0796  0.6778
  146DOPC  H14C17322   5.276   5.254  18.630 -0.0335  0.4509  2.7560
  146DOPC   C1517323   5.213   5.306  18.360  0.2206  0.0339 -0.7289
  146DOPC  H15A17324   5.150   5.301  18.272  0.1049  0.2084 -0.6562
  146DOPC  H15B17325   5.274   5.217  18.356 -0.6442 -0.7035  1.2594
  146DOPC  H15C17326   5.267   5.399  18.349  0.7608  0.1955  2.3021
  146DOPC   C1117327   4.913   5.405  18.359  0.2430  0.0406 -0.2148
  146DOPC  H11A17328   4.860   5.308  18.362  1.9173 -0.8911  0.8177
  146DOPC  H11B17329   4.837   5.484  18.380  1.1281  1.0027 -0.5230
  146DOPC     P17330   4.876   5.449  18.106 -0.3830  0.2705 -0.1635
  146DOPC   O1317331   4.776   5.555  18.133  0.0946  0.0305 -0.0134
  146DOPC   O1417332   4.825   5.317  18.062  0.2577 -0.7383 -0.4564
  146DOPC   O1217333   4.972   5.429  18.230 -0.7610 -0.4141 -0.4442
  146DOPC   O1117334   4.989   5.504  18.008  0.2730  0.6151 -0.1879
  146DOPC    C117335   5.101   5.424  17.979 -0.0077  0.5170 -0.6938
  146DOPC    HA17336   5.108   5.326  18.031 -0.2542 -0.6639 -2.7769
  146DOPC    HB17337   5.195   5.472  18.011 -0.2481  0.2045  0.5400
  146DOPC    C217338   5.110   5.383  17.824 -0.0522  0.0514 -0.6663
  146DOPC    HS17339   5.181   5.298  17.813  1.6917  1.6448 -2.5947
  146DOPC   O2117340   5.157   5.500  17.755 -0.3169 -0.8335  0.1237
  146DOPC   C2117341   5.285   5.494  17.713  0.7280  0.3175 -0.3691
  146DOPC   O2217342   5.353   5.395  17.733  0.1452  0.5907  0.0666
  146DOPC   C2217343   5.321   5.613  17.635 -0.1118 -0.1988 -1.0887
  146DOPC   H2R17344   5.429   5.600  17.613  0.4357  1.5373  0.3571
  146DOPC   H2S17345   5.320   5.704  17.699  1.1734 -1.6257  1.0858
  146DOPC    C317346   4.966   5.346  17.773  0.1256  0.0383  0.4340
  146DOPC    HX17347   4.897   5.432  17.781  0.0061  0.0172 -0.2371
  146DOPC    HY17348   4.922   5.270  17.841  1.3715 -0.0345  1.1945
  146DOPC   O3117349   4.978   5.302  17.641  0.5294 -0.0694  0.0372
  146DOPC   C3117350   4.936   5.378  17.536 -0.1445 -0.9039  0.4672
  146DOPC   O3217351   4.891   5.489  17.541  0.3723 -0.3062 -0.3582
  146DOPC   C3217352   4.955   5.301  17.408  0.0874 -0.4909  0.1104
  146DOPC   H2X17353   5.059   5.264  17.403  1.0816  2.1706 -1.5132
  146DOPC   H2Y17354   4.873   5.227  17.410 -0.7689  0.3554 -1.2942
  146DOPC   C2317355   5.230   5.637  17.508 -0.5660  0.3776  0.8971
  146DOPC   H3R17356   5.233   5.739  17.464  1.8656  0.5679  1.3599
  146DOPC   H3S17357   5.125   5.615  17.536  0.1928 -1.2437  2.6923
  146DOPC   C2417358   5.273   5.549  17.392 -0.5551  0.4694  0.0688
  146DOPC   H4R17359   5.219   5.452  17.396 -0.4194  0.4093  0.4611
  146DOPC   H4S17360   5.381   5.523  17.405 -0.1541  1.4745 -1.0388
  146DOPC   C2517361   5.246   5.622  17.254 -0.1517 -0.2864  0.0944
  146DOPC   H5R17362   5.303   5.717  17.247 -0.3023 -0.1435  0.7174
  146DOPC   H5S17363   5.138   5.647  17.257 -0.1568 -0.1878 -0.7143
  146DOPC   C2617364   5.298   5.539  17.140 -0.8201  0.6918 -0.3055
  146DOPC   H6R17365   5.251   5.439  17.137  2.3337 -0.8948 -1.0453
  146DOPC   H6S17366   5.405   5.512  17.151 -0.5599  1.3496 -1.1176
  146DOPC   C2717367   5.271   5.621  17.012  0.1333  0.5537  0.2363
  146DOPC   H7R17368   5.320   5.721  17.021 -0.0384  0.5329  1.6373
  146DOPC   H7S17369   5.162   5.640  17.018  0.1778  1.8718 -2.0409
  146DOPC   C2817370   5.316   5.554  16.884  0.1417  0.5287 -0.1490
  146DOPC   H8R17371   5.425   5.575  16.879 -0.2002  2.5800 -0.0253
  146DOPC   H8S17372   5.273   5.607  16.797 -2.7207 -0.2496  0.6690
  146DOPC   C2917373   5.295   5.407  16.863 -0.9630 -0.4324  0.0236
  146DOPC   H9R17374   5.343   5.344  16.939 -2.1924 -0.8398  0.4865
  146DOPC  C21017375   5.200   5.343  16.791  0.6145 -0.2990  0.3393
  146DOPC  H10R17376   5.203   5.234  16.774 -1.5129 -0.1790 -1.2919
  146DOPC  C21117377   5.100   5.411  16.701 -0.3427 -0.4143 -0.3721
  146DOPC  H11R17378   5.080   5.514  16.736 -0.0261 -0.2555 -0.6581
  146DOPC  H11S17379   5.006   5.351  16.708 -1.4594  0.9006 -2.7745
  146DOPC  C21217380   5.134   5.411  16.550  0.3828 -0.2304 -0.7428
  146DOPC  H12R17381   5.050   5.445  16.487 -1.5419 -1.6058  0.9471
  146DOPC  H12S17382   5.176   5.309  16.531 -0.1206 -0.5229 -0.3129
  146DOPC  C21317383   5.258   5.503  16.524 -0.0744 -0.2012 -0.2624
  146DOPC  H13R17384   5.352   5.450  16.550  0.6544  0.9023 -0.5791
  146DOPC  H13S17385   5.266   5.594  16.588  0.3910 -0.1973 -0.3225
  146DOPC  C21417386   5.260   5.560  16.383  0.4719  0.5576  0.2714
  146DOPC  H14R17387   5.331   5.645  16.379  1.5693 -0.3153  0.5079
  146DOPC  H14S17388   5.161   5.589  16.342  0.0610  1.5553  1.8795
  146DOPC  C21517389   5.326   5.451  16.290  0.3238 -0.3952 -0.4076
  146DOPC  H15R17390   5.259   5.363  16.288 -0.7909  0.3981  0.6605
  146DOPC  H15S17391   5.419   5.419  16.342 -1.1681  0.0870  2.8166
  146DOPC  C21617392   5.349   5.499  16.155 -0.0937  0.3191 -1.1473
  146DOPC  H16R17393   5.433   5.572  16.155  0.1065  0.1026 -0.0508
  146DOPC  H16S17394   5.253   5.530  16.108 -1.9920 -2.0198  0.9240
  146DOPC  C21717395   5.404   5.385  16.066 -0.1809 -0.3676  0.3166
  146DOPC  H17R17396   5.348   5.289  16.078 -1.1102  0.3242  1.9117
  146DOPC  H17S17397   5.504   5.363  16.112 -0.4212 -1.0262  0.5391
  146DOPC  C21817398   5.422   5.433  15.919 -0.4950  0.4103  0.4002
  146DOPC  H18R17399   5.323   5.452  15.873  0.3722 -1.5368 -2.5796
  146DOPC  H18S17400   5.474   5.363  15.851  2.7741  3.6568 -0.7613
  146DOPC  H18T17401   5.491   5.519  15.904 -0.2711  0.1272 -0.2233
  146DOPC   C3317402   4.928   5.400  17.292 -0.1298  0.4073 -0.3818
  146DOPC   H3X17403   4.986   5.493  17.305 -1.7042  1.5298 -1.0407
  146DOPC   H3Y17404   4.823   5.436  17.301  0.2833  1.9510 -1.3714
  146DOPC   C3417405   4.968   5.341  17.157  0.0531 -0.4753 -0.1200
  146DOPC   H4X17406   5.067   5.290  17.161  0.4321  0.0802 -1.7781
  146DOPC   H4Y17407   4.958   5.422  17.082 -0.7221  0.1696  0.6487
  146DOPC   C3517408   4.861   5.238  17.101  0.8960  0.0040 -0.0631
  146DOPC   H5X17409   4.759   5.263  17.137  1.6670  0.7489  1.7162
  146DOPC   H5Y17410   4.886   5.135  17.135 -1.9876 -0.8140 -0.2042
  146DOPC   C3617411   4.886   5.215  16.951  0.3261 -0.3169 -0.4414
  146DOPC   H6X17412   4.855   5.311  16.905  2.7879  0.6089 -0.2870
  146DOPC   H6Y17413   4.990   5.206  16.916  0.4283 -0.4525 -0.1101
  146DOPC   C3717414   4.799   5.103  16.890  0.1472  0.1888 -0.3446
  146DOPC   H7X17415   4.850   5.008  16.916  2.5953  1.0735 -1.5359
  146DOPC   H7Y17416   4.698   5.104  16.936 -0.2367  2.2965 -1.1106
  146DOPC   C3817417   4.787   5.102  16.735 -0.0867  0.4021 -0.3068
  146DOPC   H8X17418   4.737   5.192  16.693  2.1699  1.6486 -0.4528
  146DOPC   H8Y17419   4.730   5.011  16.705  1.4207 -0.0844 -1.7865
  146DOPC   C3917420   4.922   5.085  16.667  0.1898  0.2296 -0.0320
  146DOPC   H9X17421   5.009   5.046  16.721  1.3554 -1.1013 -2.6847
  146DOPC  C31017422   4.944   5.106  16.530 -0.0534  0.3805 -0.0011
  146DOPC  H10X17423   5.044   5.088  16.489  0.2297 -3.6192  1.9026
  146DOPC  C31117424   4.834   5.139  16.428 -0.5458  0.1914  0.7519
  146DOPC  H11X17425   4.808   5.246  16.437  0.2062  0.4871 -0.3482
  146DOPC  H11Y17426   4.757   5.066  16.461  1.1496 -1.2188  1.7301
  146DOPC  C31217427   4.883   5.116  16.280  0.1870  0.1894  0.1424
  146DOPC  H12X17428   4.790   5.117  16.220 -1.8010  1.7194  3.0115
  146DOPC  H12Y17429   4.929   5.015  16.279  2.0742  0.9812  0.7458
  146DOPC  C31317430   4.992   5.216  16.233  0.0629  0.3628 -0.2448
  146DOPC  H13X17431   4.962   5.318  16.267  0.8007 -0.4485  3.1961
  146DOPC  H13Y17432   5.088   5.188  16.282 -0.2988 -0.8260 -0.2057
  146DOPC  C31417433   5.022   5.217  16.083  0.1318  0.6571 -0.1365
  146DOPC  H14X17434   5.121   5.170  16.063  0.2384 -0.8005  3.0978
  146DOPC  H14Y17435   4.940   5.151  16.048 -0.5458  0.7593  1.1805
  146DOPC  C31517436   5.007   5.359  16.040 -0.2142  0.0769 -0.7252
  146DOPC  H15X17437   5.084   5.407  16.104 -1.1785  0.1348  0.4269
  146DOPC  H15Y17438   4.914   5.407  16.078 -0.9674 -2.0378  0.2480
  146DOPC  C31617439   5.061   5.380  15.902  0.6805  0.0563 -0.0388
  146DOPC  H16X17440   5.079   5.489  15.890  1.3217 -0.1395 -1.0246
  146DOPC  H16Y17441   5.166   5.341  15.898  0.8723  0.5829 -0.2273
  146DOPC  C31717442   4.977   5.324  15.787  0.5786  0.1779 -0.9168
  146DOPC  H17X17443   5.044   5.341  15.700  2.4791 -0.1895  0.4056
  146DOPC  H17Y17444   4.966   5.214  15.795  0.3876  0.2496 -0.1536
  146DOPC  C31817445   4.839   5.385  15.772 -0.1923  0.0806  0.4030
  146DOPC  H18X17446   4.795   5.357  15.674 -0.0788  2.5202 -0.4241
  146DOPC  H18Y17447   4.771   5.335  15.845 -4.0166 -0.1304 -2.9487
  146DOPC  H18Z17448   4.840   5.496  15.783  0.3682  0.0983  0.1692
  147DOPC     N17449   4.130   6.267  17.737 -0.0674  0.8903  0.9145
  147DOPC   C1217450   4.039   6.190  17.638  0.1748  0.2456  0.1882
  147DOPC  H12A17451   4.010   6.097  17.686  0.8710 -0.1017 -0.0584
  147DOPC  H12B17452   4.106   6.160  17.559  0.3174 -0.1580  0.4570
  147DOPC   C1317453   4.207   6.374  17.663  0.1306 -0.5532 -0.1139
  147DOPC  H13A17454   4.269   6.331  17.585  0.6209  0.9239 -0.5635
  147DOPC  H13B17455   4.144   6.454  17.628 -0.1004 -0.4663  0.4783
  147DOPC  H13C17456   4.284   6.419  17.725  0.7462 -0.6246 -0.8155
  147DOPC   C1417457   4.224   6.160  17.794  0.0679 -0.1706 -0.7688
  147DOPC  H14A17458   4.173   6.075  17.836  1.0167  0.4900  1.9226
  147DOPC  H14B17459   4.294   6.125  17.720  3.9304  0.5717  2.1912
  147DOPC  H14C17460   4.287   6.199  17.873  0.0800  1.4786 -1.5310
  147DOPC   C1517461   4.045   6.322  17.849 -0.8300 -0.1596  0.5644
  147DOPC  H15A17462   4.102   6.391  17.910  0.1426 -1.6609  1.4171
  147DOPC  H15B17463   4.004   6.246  17.914  1.4051 -0.9725  1.0851
  147DOPC  H15C17464   3.967   6.379  17.799  0.6247  0.6535 -0.8725
  147DOPC   C1117465   3.909   6.261  17.586 -0.3008  0.7006  0.2910
  147DOPC  H11A17466   3.927   6.370  17.582  0.2732  0.6607  1.3901
  147DOPC  H11B17467   3.880   6.215  17.489  0.5220  2.8596 -1.0301
  147DOPC     P17468   3.728   6.098  17.704  0.0509 -0.0361 -0.0084
  147DOPC   O1317469   3.597   6.119  17.773  0.6226 -0.0235 -0.1961
  147DOPC   O1417470   3.830   6.001  17.763  0.2159  0.3344  0.1738
  147DOPC   O1217471   3.802   6.239  17.680  0.8161 -0.1793 -0.3011
  147DOPC   O1117472   3.703   6.046  17.556  0.0424 -0.3455  0.8998
  147DOPC    C117473   3.617   6.120  17.463 -0.0829 -1.1879 -0.0859
  147DOPC    HA17474   3.650   6.120  17.357 -0.9832  0.9418 -0.4104
  147DOPC    HB17475   3.607   6.225  17.497  1.7822 -1.4194  1.2873
  147DOPC    C217476   3.478   6.056  17.453 -0.5264  0.1041 -0.0647
  147DOPC    HS17477   3.434   6.056  17.555 -0.1458 -0.1695  0.1006
  147DOPC   O2117478   3.502   5.929  17.398  0.3913  0.8362 -0.1464
  147DOPC   C2117479   3.397   5.838  17.413 -0.8325  0.5656 -0.5181
  147DOPC   O2217480   3.301   5.863  17.482  0.9888 -0.2575 -0.4479
  147DOPC   C2217481   3.425   5.706  17.338  0.2891 -0.1473  1.0215
  147DOPC   H2R17482   3.430   5.622  17.410 -2.4623 -0.4449  0.9729
  147DOPC   H2S17483   3.524   5.719  17.288  0.2114  2.0011  1.3580
  147DOPC    C317484   3.384   6.129  17.362  0.1367 -0.7089  0.3203
  147DOPC    HX17485   3.366   6.232  17.401  0.0971 -0.9751  1.0160
  147DOPC    HY17486   3.285   6.079  17.362 -0.4433  0.3731  1.7769
  147DOPC   O3117487   3.431   6.137  17.226  0.3571  0.0367 -0.2948
  147DOPC   C3117488   3.334   6.175  17.146  0.2289 -0.1710  0.0974
  147DOPC   O3217489   3.225   6.220  17.174 -0.1783  0.0329  0.1266
  147DOPC   C3217490   3.368   6.162  16.999 -0.0875  0.3636 -0.0605
  147DOPC   H2X17491   3.468   6.115  16.989  0.2531  0.6630  1.5985
  147DOPC   H2Y17492   3.287   6.093  16.967  0.5040  0.0049 -0.8273
  147DOPC   C2317493   3.311   5.665  17.233  0.2329 -0.0251 -0.5928
  147DOPC   H3R17494   3.208   5.696  17.259  0.0307  0.9971 -2.4196
  147DOPC   H3S17495   3.322   5.556  17.213 -0.7281 -0.4697  1.1536
  147DOPC   C2417496   3.340   5.739  17.096  0.2623  0.3787 -0.6458
  147DOPC   H4R17497   3.433   5.711  17.043  0.0136  0.8591 -1.3652
  147DOPC   H4S17498   3.339   5.841  17.141  2.4344 -0.3659  1.2643
  147DOPC   C2517499   3.229   5.709  16.988 -0.1008  0.6481 -0.1877
  147DOPC   H5R17500   3.138   5.755  17.032  0.1413 -1.6692  3.0307
  147DOPC   H5S17501   3.209   5.600  16.987  0.4736  0.4822  2.0996
  147DOPC   C2617502   3.243   5.775  16.851 -0.2027  0.4430 -0.5963
  147DOPC   H6R17503   3.340   5.758  16.799  0.0593 -2.8573  0.7232
  147DOPC   H6S17504   3.228   5.883  16.868  2.8718  0.6417  1.5759
  147DOPC   C2717505   3.131   5.734  16.756 -0.1902 -0.6346 -0.8362
  147DOPC   H7R17506   3.035   5.768  16.800  0.7014  3.0687 -1.3892
  147DOPC   H7S17507   3.134   5.623  16.752  0.6706 -0.7011  0.8660
  147DOPC   C2817508   3.139   5.809  16.620  0.7144 -0.3062  0.2379
  147DOPC   H8R17509   3.139   5.919  16.634 -0.8231  0.2144 -3.0045
  147DOPC   H8S17510   3.045   5.787  16.565  1.8706  0.4804 -2.1580
  147DOPC   C2917511   3.248   5.761  16.535 -0.0311  0.4948  0.6456
  147DOPC   H9R17512   3.265   5.652  16.537 -0.3816  0.2999 -2.0295
  147DOPC  C21017513   3.319   5.821  16.444 -0.0364 -0.0449 -0.4874
  147DOPC  H10R17514   3.384   5.756  16.382 -0.9734  1.3931 -3.1466
  147DOPC  C21117515   3.320   5.963  16.407 -0.5775 -0.5672 -0.1459
  147DOPC  H11R17516   3.406   5.988  16.341  0.2078 -0.8402  0.7555
  147DOPC  H11S17517   3.326   6.029  16.496  1.2965 -2.7330  1.4779
  147DOPC  C21217518   3.195   6.006  16.331 -0.3862 -0.0680 -0.1948
  147DOPC  H12R17519   3.198   6.108  16.286 -0.8223 -0.5732 -1.4287
  147DOPC  H12S17520   3.106   6.017  16.398 -0.7206  1.1210 -0.8045
  147DOPC  C21317521   3.163   5.917  16.211 -0.2182 -0.0856  0.3353
  147DOPC  H13R17522   3.060   5.943  16.177  0.6049  1.0088 -1.4456
  147DOPC  H13S17523   3.161   5.813  16.249 -2.0368 -1.1227 -2.3167
  147DOPC  C21417524   3.269   5.933  16.106  0.3046 -0.2986  0.2328
  147DOPC  H14R17525   3.369   5.907  16.149  0.7046 -2.2539 -1.6909
  147DOPC  H14S17526   3.266   6.036  16.064  0.1354 -0.3322  0.1656
  147DOPC  C21517527   3.250   5.833  15.991  0.0269 -0.0723 -0.2678
  147DOPC  H15R17528   3.148   5.851  15.952  0.0376 -1.5233 -1.0141
  147DOPC  H15S17529   3.252   5.726  16.020  0.2982  0.3395  1.3478
  147DOPC  C21617530   3.358   5.856  15.885  0.0484 -0.6544 -0.6001
  147DOPC  H16R17531   3.339   5.777  15.809  0.1380 -0.9821 -0.2877
  147DOPC  H16S17532   3.458   5.843  15.933 -0.8933 -0.2874  1.5408
  147DOPC  C21717533   3.356   5.992  15.814  0.3851 -0.2041 -0.0838
  147DOPC  H17R17534   3.410   6.053  15.890  2.9582 -2.1903 -0.2067
  147DOPC  H17S17535   3.252   6.024  15.792 -0.0455 -2.3432 -1.4398
  147DOPC  C21817536   3.425   6.002  15.680 -0.4101  0.2785  0.3209
  147DOPC  H18R17537   3.532   5.973  15.675 -0.5373 -0.0568 -4.0732
  147DOPC  H18S17538   3.427   6.111  15.657  1.8250  0.0546 -0.8524
  147DOPC  H18T17539   3.380   5.946  15.595  1.4683 -0.2353 -0.3886
  147DOPC   C3317540   3.348   6.291  16.921 -0.2332  0.1228 -0.7911
  147DOPC   H3X17541   3.439   6.354  16.929  0.1091 -0.5279  0.9164
  147DOPC   H3Y17542   3.272   6.358  16.966  0.8675  1.0176 -0.2032
  147DOPC   C3417543   3.309   6.262  16.773 -0.1304  0.2999 -0.2545
  147DOPC   H4X17544   3.209   6.212  16.771  0.0381 -0.0571  0.1141
  147DOPC   H4Y17545   3.385   6.187  16.742  1.1823  0.8883  1.4162
  147DOPC   C3517546   3.326   6.382  16.675 -0.7543 -0.0860 -0.0467
  147DOPC   H5X17547   3.430   6.416  16.661 -0.5143 -1.7071 -3.3214
  147DOPC   H5Y17548   3.261   6.464  16.713  0.5664  1.3179 -0.6970
  147DOPC   C3617549   3.280   6.346  16.536 -0.7024  0.1994  0.2473
  147DOPC   H6X17550   3.332   6.263  16.483 -1.4598 -0.5307  0.6420
  147DOPC   H6Y17551   3.175   6.311  16.544 -0.7434 -0.0973 -1.2570
  147DOPC   C3717552   3.272   6.471  16.442  0.3245  0.6595  0.2941
  147DOPC   H7X17553   3.191   6.537  16.479 -0.4041 -0.8517  1.4784
  147DOPC   H7Y17554   3.364   6.533  16.440  0.2335  0.7951  0.3023
  147DOPC   C3817555   3.240   6.422  16.299 -1.3651  0.8243  0.1883
  147DOPC   H8X17556   3.189   6.507  16.248  0.6605  0.4051 -2.7525
  147DOPC   H8Y17557   3.168   6.338  16.298  0.6409 -0.9681  0.1534
  147DOPC   C3917558   3.366   6.376  16.228  0.1024 -0.2002 -0.4304
  147DOPC   H9X17559   3.423   6.300  16.284 -0.2196 -0.3460 -0.2978
  147DOPC  C31017560   3.426   6.423  16.122 -0.1297  0.3207  0.7491
  147DOPC  H10X17561   3.526   6.384  16.098 -1.2950 -1.5382 -1.5856
  147DOPC  C31117562   3.370   6.540  16.038 -0.5634  0.3338  0.4304
  147DOPC  H11X17563   3.448   6.618  16.020  1.3937 -1.9184 -1.7130
  147DOPC  H11Y17564   3.284   6.586  16.090  1.1939  1.5764  2.3819
  147DOPC  C31217565   3.325   6.508  15.894 -0.2519 -0.2966  0.2135
  147DOPC  H12X17566   3.285   6.605  15.857  0.0226  0.6550  2.3150
  147DOPC  H12Y17567   3.251   6.425  15.886  0.6669 -1.0580 -0.6550
  147DOPC  C31317568   3.442   6.459  15.809 -0.1766 -0.2787 -0.4765
  147DOPC  H13X17569   3.517   6.541  15.809 -0.5375  0.0669  0.2617
  147DOPC  H13Y17570   3.490   6.369  15.854 -0.1290 -0.2972 -0.5651
  147DOPC  C31417571   3.409   6.419  15.668 -0.6952 -0.8507 -0.2809
  147DOPC  H14X17572   3.499   6.397  15.608  0.5638 -0.8891  1.5415
  147DOPC  H14Y17573   3.348   6.326  15.663 -2.7122  0.3249  0.8648
  147DOPC  C31517574   3.327   6.531  15.594 -0.5168  0.1181  1.2066
  147DOPC  H15X17575   3.370   6.632  15.607 -1.0559  0.9567 -2.4871
  147DOPC  H15Y17576   3.234   6.524  15.656 -1.1972  2.7274  0.6131
  147DOPC  C31617577   3.328   6.508  15.447  0.7646  0.1156 -0.2371
  147DOPC  H16X17578   3.427   6.509  15.398  1.3802  1.3189  0.9657
  147DOPC  H16Y17579   3.274   6.412  15.435  2.4733 -0.7794 -1.0072
  147DOPC  C31717580   3.235   6.616  15.382 -0.2980  0.2800  0.1685
  147DOPC  H17X17581   3.278   6.715  15.409 -0.3467  0.4117 -0.2369
  147DOPC  H17Y17582   3.244   6.610  15.272  0.1554  1.3068  0.1337
  147DOPC  C31817583   3.090   6.602  15.426 -0.5137 -0.0554 -0.2678
  147DOPC  H18X17584   3.063   6.658  15.518  0.0633  0.6528 -0.5242
  147DOPC  H18Y17585   3.031   6.646  15.343  0.6047  4.3728  1.0021
  147DOPC  H18Z17586   3.061   6.495  15.429  2.1901 -0.8436  0.8549
  148DOPC     N17587   1.929   2.863  18.109 -0.5499  0.3614 -0.4946
  148DOPC   C1217588   1.827   2.902  17.995  0.2382 -0.1920 -0.5987
  148DOPC  H12A17589   1.884   2.950  17.917 -1.2898  2.9809  0.0883
  148DOPC  H12B17590   1.768   2.981  18.039  0.9595  1.7002 -2.8739
  148DOPC   C1317591   1.995   2.988  18.157 -0.1587  0.7567 -0.9066
  148DOPC  H13A17592   2.055   2.969  18.245  0.5317  2.1314 -1.0445
  148DOPC  H13B17593   2.065   3.019  18.080  3.0310 -1.3223  0.9367
  148DOPC  H13C17594   1.915   3.051  18.193 -1.1108 -0.1619 -1.3766
  148DOPC   C1417595   2.044   2.780  18.064 -0.6820  0.3816 -0.7991
  148DOPC  H14A17596   2.103   2.835  17.991  1.1747 -2.0193 -1.2370
  148DOPC  H14B17597   2.110   2.760  18.147  0.1476  1.4284 -1.1715
  148DOPC  H14C17598   2.010   2.687  18.022 -1.1211 -0.2398  0.8584
  148DOPC   C1517599   1.867   2.800  18.228  0.2019  0.1629  0.1910
  148DOPC  H15A17600   1.805   2.719  18.192  0.0136  1.7037 -3.4063
  148DOPC  H15B17601   1.797   2.870  18.271 -0.6921 -1.5846  1.7381
  148DOPC  H15C17602   1.928   2.765  18.310  1.7134 -1.4115 -1.5093
  148DOPC   C1117603   1.723   2.800  17.941 -0.1365 -0.0995  0.1627
  148DOPC  H11A17604   1.666   2.841  17.855 -0.4748 -0.7841  0.0521
  148DOPC  H11B17605   1.772   2.708  17.902  1.4612 -0.4299  2.7439
  148DOPC     P17606   1.514   2.863  18.079 -0.6584 -0.2025 -0.0558
  148DOPC   O1317607   1.551   3.004  18.053 -0.3957  0.0511 -0.5827
  148DOPC   O1417608   1.459   2.832  18.213  0.2028 -0.1549  0.1252
  148DOPC   O1217609   1.640   2.774  18.055 -0.1417 -0.1016 -0.4013
  148DOPC   O1117610   1.416   2.819  17.964  0.2542  0.1860  0.0420
  148DOPC    C117611   1.381   2.687  17.935 -0.1950  0.3662  0.5202
  148DOPC    HA17612   1.271   2.675  17.930  0.0275 -1.5340 -1.1024
  148DOPC    HB17613   1.421   2.604  17.997  0.1240 -0.0541 -0.2214
  148DOPC    C217614   1.436   2.659  17.785  0.4352  0.2431 -0.7525
  148DOPC    HS17615   1.544   2.650  17.810  0.0930  0.3207  0.8953
  148DOPC   O2117616   1.397   2.776  17.714 -0.1536 -0.3559 -0.4766
  148DOPC   C2117617   1.482   2.810  17.618  0.3015  0.3224 -0.6264
  148DOPC   O2217618   1.592   2.755  17.598  0.5978 -0.5090 -0.1114
  148DOPC   C2217619   1.429   2.933  17.543 -0.4278 -0.4575 -0.4781
  148DOPC   H2R17620   1.365   2.989  17.615  1.4503  0.9248  0.1940
  148DOPC   H2S17621   1.358   2.897  17.467 -1.0133 -0.7252  0.1817
  148DOPC    C317622   1.383   2.531  17.719 -0.0390 -0.0894  0.3572
  148DOPC    HX17623   1.273   2.526  17.736 -0.0068 -2.2958  0.2662
  148DOPC    HY17624   1.435   2.448  17.771  1.6178 -0.2757 -1.4550
  148DOPC   O3117625   1.406   2.527  17.575  0.1693  0.4217  0.7593
  148DOPC   C3117626   1.521   2.474  17.536  0.1883  0.7380 -0.2423
  148DOPC   O3217627   1.602   2.417  17.606  0.0207  0.3953 -0.1358
  148DOPC   C3217628   1.541   2.494  17.386  0.4176  0.2839 -0.1555
  148DOPC   H2X17629   1.489   2.586  17.352  1.0178  0.8185  0.3476
  148DOPC   H2Y17630   1.647   2.521  17.370  0.1923  1.4940  0.3148
  148DOPC   C2317631   1.527   3.020  17.471 -0.5661 -0.2109  0.2733
  148DOPC   H3R17632   1.616   3.044  17.533 -1.1932 -3.1971  2.5442
  148DOPC   H3S17633   1.476   3.116  17.448 -1.7153 -1.3844 -2.4714
  148DOPC   C2417634   1.561   2.955  17.331 -0.2545  0.8115  0.5790
  148DOPC   H4R17635   1.470   2.906  17.290  0.3119 -0.5949  0.9510
  148DOPC   H4S17636   1.641   2.880  17.346 -1.0601 -0.3158 -0.5446
  148DOPC   C2517637   1.626   3.047  17.232 -0.8118 -0.4398  0.0245
  148DOPC   H5R17638   1.718   3.089  17.278 -1.4108  2.9411 -1.5708
  148DOPC   H5S17639   1.562   3.137  17.214 -0.2331  0.2952  1.5422
  148DOPC   C2617640   1.656   2.977  17.106  0.7567  0.1945 -0.3909
  148DOPC   H6R17641   1.648   3.054  17.026 -1.2323  0.2921 -0.1663
  148DOPC   H6S17642   1.568   2.910  17.097  1.4759 -0.7798 -0.2327
  148DOPC   C2717643   1.792   2.910  17.083 -0.2589 -0.2506 -0.6898
  148DOPC   H7R17644   1.795   2.820  17.148 -2.7067  0.0146 -0.1414
  148DOPC   H7S17645   1.868   2.983  17.118 -0.8048  0.0256 -0.0635
  148DOPC   C2817646   1.810   2.855  16.942  0.0879 -0.0982 -0.0061
  148DOPC   H8R17647   1.901   2.791  16.951 -0.4552 -0.7924  0.7071
  148DOPC   H8S17648   1.831   2.944  16.879  2.0399 -0.7821 -0.3909
  148DOPC   C2917649   1.693   2.766  16.898 -0.1568  0.0826  0.1063
  148DOPC   H9R17650   1.668   2.693  16.976  0.2784  1.4106  1.5423
  148DOPC  C21017651   1.615   2.770  16.789 -0.3514  0.5434 -0.2117
  148DOPC  H10R17652   1.550   2.684  16.765 -0.0477  0.6533 -1.4572
  148DOPC  C21117653   1.639   2.860  16.670 -0.9265  0.3724 -0.0039
  148DOPC  H11R17654   1.727   2.925  16.688  1.6652 -1.6639 -3.9213
  148DOPC  H11S17655   1.544   2.916  16.654 -0.2363  1.8131  0.7407
  148DOPC  C21217656   1.674   2.775  16.546  0.3588 -0.3108  0.5168
  148DOPC  H12R17657   1.585   2.713  16.525 -0.7106  0.9703  1.0589
  148DOPC  H12S17658   1.759   2.705  16.560  0.0074 -0.4935  1.9571
  148DOPC  C21317659   1.691   2.873  16.425  0.3447  0.4688 -0.6063
  148DOPC  H13R17660   1.771   2.948  16.443 -0.9798  1.5835  0.9043
  148DOPC  H13S17661   1.594   2.926  16.412 -0.8200 -1.5785 -0.7975
  148DOPC  C21417662   1.730   2.809  16.293  0.1188  0.4321 -0.2521
  148DOPC  H14R17663   1.673   2.716  16.274  1.0924 -0.4746  1.0205
  148DOPC  H14S17664   1.836   2.774  16.286 -1.3176 -4.3915 -2.0467
  148DOPC  C21517665   1.706   2.919  16.186  0.2893 -0.3194 -0.4791
  148DOPC  H15R17666   1.778   3.000  16.211 -0.3532 -0.0104  0.4526
  148DOPC  H15S17667   1.610   2.974  16.200  0.8877  0.8449 -0.7757
  148DOPC  C21617668   1.717   2.868  16.040 -0.0594  0.2187  0.0154
  148DOPC  H16R17669   1.624   2.816  16.011 -0.5248  0.8175  0.4141
  148DOPC  H16S17670   1.804   2.799  16.033  0.8042  1.4005 -1.4045
  148DOPC  C21717671   1.756   2.985  15.952 -0.4596 -0.6216  0.0828
  148DOPC  H17R17672   1.853   3.026  15.988 -1.4299  1.1232  0.8116
  148DOPC  H17S17673   1.676   3.060  15.961  0.4282  0.2357  1.0600
  148DOPC  C21817674   1.778   2.951  15.807  0.0975  0.3085  0.5872
  148DOPC  H18R17675   1.691   2.914  15.749 -0.3092  1.2647  0.5680
  148DOPC  H18S17676   1.851   2.868  15.801  0.8878  0.9396  1.2705
  148DOPC  H18T17677   1.825   3.026  15.739 -0.7722 -0.5771 -1.0716
  148DOPC   C3317678   1.516   2.365  17.307  0.4425 -0.0526  0.0246
  148DOPC   H3X17679   1.406   2.349  17.301  0.3502  0.5349  0.0865
  148DOPC   H3Y17680   1.543   2.279  17.371 -2.6463  0.4174  2.1700
  148DOPC   C3417681   1.568   2.365  17.168 -0.4758 -0.3387  0.4747
  148DOPC   H4X17682   1.675   2.394  17.172 -0.3543 -0.6512 -0.4031
  148DOPC   H4Y17683   1.511   2.447  17.119 -1.2516 -0.5357  1.0318
  148DOPC   C3517684   1.543   2.234  17.092 -0.4395  0.3144 -0.1932
  148DOPC   H5X17685   1.434   2.222  17.077 -0.2763 -2.3960  0.2286
  148DOPC   H5Y17686   1.568   2.155  17.166 -0.1271  0.8392  0.2712
  148DOPC   C3617687   1.640   2.209  16.970  0.4826  0.2451  0.4694
  148DOPC   H6X17688   1.741   2.225  17.013  0.0233 -1.5111  2.4070
  148DOPC   H6Y17689   1.625   2.111  16.920 -1.3172  1.4134 -1.4460
  148DOPC   C3717690   1.631   2.318  16.864  0.0831 -0.0803  0.0021
  148DOPC   H7X17691   1.528   2.331  16.823  0.3917 -1.4599 -1.3169
  148DOPC   H7Y17692   1.661   2.419  16.899  1.5143 -0.1707 -0.8987
  148DOPC   C3817693   1.717   2.290  16.746  0.3257 -0.0481  0.4622
  148DOPC   H8X17694   1.825   2.296  16.772  0.5360  2.0075 -0.6929
  148DOPC   H8Y17695   1.697   2.373  16.675 -0.7354  1.0144  1.9380
  148DOPC   C3917696   1.686   2.157  16.687 -0.3261  0.5733 -0.0445
  148DOPC   H9X17697   1.763   2.080  16.701  0.1961  0.2157 -3.8503
  148DOPC  C31017698   1.593   2.130  16.590  0.2000  0.1369 -0.2793
  148DOPC  H10X17699   1.592   2.029  16.547  1.4462  0.1972 -0.4934
  148DOPC  C31117700   1.490   2.228  16.532 -0.2590 -0.1303 -0.0386
  148DOPC  H11X17701   1.511   2.328  16.575 -0.2807 -0.1129 -0.0694
  148DOPC  H11Y17702   1.389   2.198  16.567  0.6479 -3.7639 -0.1589
  148DOPC  C31217703   1.473   2.236  16.379  0.1125  0.7533  0.8902
  148DOPC  H12X17704   1.395   2.312  16.364 -0.2410  0.2535  0.1254
  148DOPC  H12Y17705   1.432   2.141  16.336 -0.9683  1.7348 -0.3219
  148DOPC  C31317706   1.599   2.276  16.302 -0.5060 -0.0983  0.3675
  148DOPC  H13X17707   1.642   2.372  16.339 -0.4147 -0.4193  1.1308
  148DOPC  H13Y17708   1.687   2.209  16.320  2.3839  2.9724 -1.1810
  148DOPC  C31417709   1.563   2.300  16.156 -0.6546  0.6826 -0.0867
  148DOPC  H14X17710   1.520   2.208  16.111 -1.8893  1.3483 -0.3126
  148DOPC  H14Y17711   1.484   2.378  16.143 -0.6247  0.8714  0.7595
  148DOPC  C31517712   1.682   2.343  16.070 -0.7834  0.1558 -0.6061
  148DOPC  H15X17713   1.773   2.304  16.121 -2.4490 -2.6506  0.4646
  148DOPC  H15Y17714   1.690   2.453  16.081 -0.2276 -0.0589  1.5900
  148DOPC  C31617715   1.674   2.312  15.924  0.2339  0.0058 -0.2452
  148DOPC  H16X17716   1.782   2.310  15.895  0.5341 -1.9022  0.8463
  148DOPC  H16Y17717   1.635   2.211  15.901  0.7125 -0.4279  0.7731
  148DOPC  C31717718   1.595   2.411  15.851  0.8570 -0.5933 -0.2020
  148DOPC  H17X17719   1.501   2.429  15.906 -0.3434 -1.3726 -1.9337
  148DOPC  H17Y17720   1.645   2.510  15.863 -1.3619  0.8177 -1.8099
  148DOPC  C31817721   1.561   2.387  15.704  0.3448  0.3291 -0.0969
  148DOPC  H18X17722   1.644   2.434  15.646 -0.0467  0.3155 -0.6698
  148DOPC  H18Y17723   1.573   2.277  15.695 -1.9236 -0.0507  0.9185
  148DOPC  H18Z17724   1.459   2.422  15.679  0.8053  0.9186 -1.2093
  149DOPC     N17725   4.876   5.833  17.824 -0.0327 -0.0351 -0.8940
  149DOPC   C1217726   4.761   5.764  17.899 -0.6148  0.1725  0.2313
  149DOPC  H12A17727   4.724   5.829  17.978 -0.4152  0.0930  0.3929
  149DOPC  H12B17728   4.805   5.676  17.943 -1.6643 -0.0463  0.8961
  149DOPC   C1317729   4.998   5.848  17.918 -0.1998  0.1176  0.3315
  149DOPC  H13A17730   5.039   5.753  17.949 -0.4586  0.7433  2.8339
  149DOPC  H13B17731   5.089   5.884  17.872  0.6297 -2.2971 -0.0490
  149DOPC  H13C17732   4.981   5.906  18.008 -0.4049 -2.3265  1.9417
  149DOPC   C1417733   4.827   5.971  17.772 -0.9692  0.3193 -0.3054
  149DOPC  H14A17734   4.832   6.054  17.841  0.4104  0.3020 -0.3620
  149DOPC  H14B17735   4.893   5.998  17.691 -0.6964  2.8000  0.6770
  149DOPC  H14C17736   4.722   5.964  17.746 -1.1820  1.1633  0.2851
  149DOPC   C1517737   4.928   5.750  17.713  0.2502 -0.0492 -0.2065
  149DOPC  H15A17738   4.952   5.657  17.763 -3.4071 -0.1892  1.6201
  149DOPC  H15B17739   5.018   5.789  17.669 -0.4185  0.4157 -1.2037
  149DOPC  H15C17740   4.853   5.734  17.637 -0.1351  1.4606 -0.1617
  149DOPC   C1117741   4.627   5.719  17.832 -0.3922  0.0739  0.0076
  149DOPC  H11A17742   4.662   5.662  17.743 -0.1480  1.5938 -0.9097
  149DOPC  H11B17743   4.565   5.656  17.899 -0.5764  0.1128 -0.1266
  149DOPC     P17744   4.447   5.820  17.664  0.1219 -0.3693 -0.1375
  149DOPC   O1317745   4.507   5.719  17.574  0.5007 -0.4269  0.1494
  149DOPC   O1417746   4.425   5.959  17.610  0.1432 -0.1511  0.9193
  149DOPC   O1217747   4.547   5.838  17.789 -0.1867  0.2312  0.3394
  149DOPC   O1117748   4.320   5.762  17.742 -0.5472  0.3261 -0.2165
  149DOPC    C117749   4.265   5.631  17.704 -0.5010 -0.2789 -0.8335
  149DOPC    HA17750   4.217   5.592  17.796 -3.6004 -0.5798 -2.4520
  149DOPC    HB17751   4.335   5.551  17.670 -1.7871 -1.6493 -0.3643
  149DOPC    C217752   4.149   5.645  17.609 -0.1062 -0.0681 -0.0376
  149DOPC    HS17753   4.098   5.546  17.608  1.0613 -0.6864 -0.6713
  149DOPC   O2117754   4.191   5.685  17.481 -0.2232 -0.0073  0.5987
  149DOPC   C2117755   4.219   5.579  17.401  0.1339  0.7185 -0.0556
  149DOPC   O2217756   4.208   5.462  17.430  0.2274 -0.2530  0.0413
  149DOPC   C2217757   4.267   5.615  17.263 -0.1140 -1.0720  0.1229
  149DOPC   H2R17758   4.346   5.540  17.242 -0.1682 -0.7683 -1.2923
  149DOPC   H2S17759   4.312   5.717  17.266 -1.6616 -0.2509 -1.7714
  149DOPC    C317760   4.042   5.747  17.657 -0.9079 -0.2714 -0.0023
  149DOPC    HX17761   4.087   5.847  17.672 -1.4508  0.3391 -2.0390
  149DOPC    HY17762   4.005   5.697  17.749 -1.4218 -3.2781 -1.7023
  149DOPC   O3117763   3.929   5.747  17.562  0.2186  0.2783  0.2646
  149DOPC   C3117764   3.948   5.838  17.465 -0.7063  0.9004 -0.0804
  149DOPC   O3217765   4.029   5.925  17.465  0.0322 -0.5813  0.4293
  149DOPC   C3217766   3.854   5.803  17.349 -0.1493 -0.3486 -0.1345
  149DOPC   H2X17767   3.887   5.707  17.304  1.8908  0.6452 -0.8924
  149DOPC   H2Y17768   3.750   5.802  17.387 -0.3281 -1.9035 -0.5888
  149DOPC   C2317769   4.149   5.609  17.165 -0.5616 -0.3393  0.1243
  149DOPC   H3R17770   4.079   5.677  17.217  1.8483  0.5244  2.4807
  149DOPC   H3S17771   4.118   5.505  17.142 -0.6859  0.3954 -3.8292
  149DOPC   C2417772   4.166   5.683  17.030 -0.1807  0.4666 -0.6070
  149DOPC   H4R17773   4.269   5.654  17.000 -0.1133  0.3564 -0.2697
  149DOPC   H4S17774   4.178   5.792  17.051 -1.0317  0.0962  2.2247
  149DOPC   C2517775   4.061   5.649  16.925 -0.0214  0.0080  0.3846
  149DOPC   H5R17776   3.958   5.673  16.961 -0.0620 -0.2861  0.4679
  149DOPC   H5S17777   4.075   5.542  16.900  3.2496  0.5766 -0.6330
  149DOPC   C2617778   4.079   5.715  16.789 -0.0422 -0.3522  0.3910
  149DOPC   H6R17779   4.185   5.707  16.757  0.1726  2.2776  0.2509
  149DOPC   H6S17780   4.042   5.819  16.800 -2.3296 -1.2143  1.6470
  149DOPC   C2717781   3.996   5.637  16.689 -0.3753  0.4165  0.0925
  149DOPC   H7R17782   3.889   5.657  16.710 -0.1387  1.1109  0.6467
  149DOPC   H7S17783   4.017   5.528  16.701 -0.6581  0.3231 -0.2323
  149DOPC   C2817784   4.016   5.665  16.544  0.0504  0.0746 -0.5179
  149DOPC   H8R17785   4.013   5.774  16.524 -2.2364  0.2016  0.2811
  149DOPC   H8S17786   3.932   5.614  16.494 -1.5712  1.4967  0.6331
  149DOPC   C2917787   4.134   5.601  16.485 -0.3679  0.2566  0.6178
  149DOPC   H9R17788   4.160   5.503  16.528  1.2768 -0.3573 -1.5506
  149DOPC  C21017789   4.185   5.616  16.358 -0.0872  0.3610 -0.0861
  149DOPC  H10R17790   4.269   5.556  16.319 -0.5745  0.2818 -1.0544
  149DOPC  C21117791   4.136   5.714  16.263 -0.4618  0.0670 -0.1002
  149DOPC  H11R17792   4.183   5.811  16.287 -1.6284  0.8314 -0.7724
  149DOPC  H11S17793   4.025   5.719  16.271 -0.6048 -1.6132 -0.4759
  149DOPC  C21217794   4.186   5.678  16.121 -0.0085  0.0641 -0.0151
  149DOPC  H12R17795   4.292   5.646  16.128 -0.2567 -0.9575 -0.7566
  149DOPC  H12S17796   4.178   5.765  16.052 -0.8622  0.2898  0.3476
  149DOPC  C21317797   4.098   5.575  16.060  1.1005 -0.9289  0.0567
  149DOPC  H13R17798   4.001   5.621  16.031  0.8440 -3.1525 -3.0530
  149DOPC  H13S17799   4.074   5.490  16.127 -2.5053  0.7483  1.1724
  149DOPC  C21417800   4.150   5.520  15.926 -0.3145  0.3294 -0.1370
  149DOPC  H14R17801   4.077   5.446  15.888  0.4990 -1.9862  2.5073
  149DOPC  H14S17802   4.225   5.447  15.962  1.1626  2.0964  0.5882
  149DOPC  C21517803   4.172   5.621  15.806  0.2044 -0.8612 -0.2006
  149DOPC  H15R17804   4.251   5.693  15.836 -2.0521  1.9994 -0.7082
  149DOPC  H15S17805   4.075   5.675  15.803  0.1617 -0.9662 -0.9488
  149DOPC  C21617806   4.192   5.552  15.675  0.2564 -0.1497 -0.1509
  149DOPC  H16R17807   4.122   5.467  15.660  0.4077 -0.7380  2.1767
  149DOPC  H16S17808   4.291   5.501  15.672 -0.3504 -1.3472 -0.8646
  149DOPC  C21717809   4.173   5.654  15.560 -0.1431  0.4665  0.0219
  149DOPC  H17R17810   4.067   5.687  15.558  0.0111  0.9905  0.4722
  149DOPC  H17S17811   4.197   5.599  15.466 -0.1671  2.1239 -0.9798
  149DOPC  C21817812   4.254   5.778  15.575 -0.0915 -0.1572  0.4742
  149DOPC  H18R17813   4.248   5.843  15.485 -0.8565 -0.8770 -0.0085
  149DOPC  H18S17814   4.359   5.748  15.594  0.2771 -1.1525 -2.6696
  149DOPC  H18T17815   4.211   5.843  15.655  1.4195  2.7072 -0.8949
  149DOPC   C3317816   3.864   5.907  17.228  0.1089  0.0340 -0.6174
  149DOPC   H3X17817   3.972   5.923  17.208  1.0149 -0.1982  3.3297
  149DOPC   H3Y17818   3.831   6.010  17.253  0.1334  0.1161 -0.9271
  149DOPC   C3417819   3.779   5.867  17.107  0.0517  0.5123 -0.2680
  149DOPC   H4X17820   3.669   5.874  17.124  0.0081 -1.2001  0.3616
  149DOPC   H4Y17821   3.799   5.762  17.079 -2.0817  0.6989 -2.8630
  149DOPC   C3517822   3.811   5.960  16.996  0.2556 -0.1216  0.4887
  149DOPC   H5X17823   3.918   5.956  16.967  0.6727  2.8363  1.2962
  149DOPC   H5Y17824   3.799   6.067  17.022 -1.9538 -0.0452 -0.6027
  149DOPC   C3617825   3.728   5.931  16.866 -0.1849 -0.1256 -0.7837
  149DOPC   H6X17826   3.750   5.830  16.824 -1.5975 -0.7259 -0.1699
  149DOPC   H6Y17827   3.623   5.927  16.904 -0.0445 -0.3624 -0.4036
  149DOPC   C3717828   3.750   6.044  16.755  0.5598  0.0276 -0.7171
  149DOPC   H7X17829   3.710   6.138  16.799  1.1768 -0.0605  0.0578
  149DOPC   H7Y17830   3.859   6.050  16.732  0.5360  1.8526 -0.4792
  149DOPC   C3817831   3.657   6.017  16.638 -0.2912  0.1483  0.3844
  149DOPC   H8X17832   3.551   5.999  16.668 -1.8845 -3.1969 -5.6287
  149DOPC   H8Y17833   3.680   5.915  16.602 -1.8402  0.5717 -2.0482
  149DOPC   C3917834   3.669   6.112  16.533 -0.0434 -0.2189  0.7326
  149DOPC   H9X17835   3.618   6.206  16.558 -0.5472 -0.9832  2.8242
  149DOPC  C31017836   3.731   6.091  16.412 -0.5738 -0.6974 -0.0118
  149DOPC  H10X17837   3.745   6.179  16.348  2.2212  0.7761  2.3596
  149DOPC  C31117838   3.791   5.956  16.369 -0.4606  0.2751  0.9808
  149DOPC  H11X17839   3.811   5.886  16.453 -3.2600 -2.3221 -0.3234
  149DOPC  H11Y17840   3.891   5.980  16.326 -0.6025 -0.3207  0.2952
  149DOPC  C31217841   3.695   5.894  16.259  0.0717  0.2892  0.0497
  149DOPC  H12X17842   3.591   5.886  16.297 -0.1264  0.3962 -0.4620
  149DOPC  H12Y17843   3.732   5.796  16.222 -2.8183 -0.1001 -2.2377
  149DOPC  C31317844   3.685   5.976  16.127  0.0823  0.1152 -0.9227
  149DOPC  H13X17845   3.582   5.964  16.085 -0.8908  2.3502  0.6320
  149DOPC  H13Y17846   3.677   6.084  16.150 -1.8588  0.3506 -2.4300
  149DOPC  C31417847   3.800   5.960  16.035  0.1056  0.6273  0.1875
  149DOPC  H14X17848   3.890   6.005  16.081 -0.6680  1.7666  0.6121
  149DOPC  H14Y17849   3.839   5.856  16.033 -1.0843  0.1694 -1.0399
  149DOPC  C31517850   3.777   6.027  15.902 -0.1216  0.7178  1.7174
  149DOPC  H15X17851   3.767   6.137  15.917  0.9538  1.0009  0.5297
  149DOPC  H15Y17852   3.680   5.984  15.869  1.7191 -3.7020  1.4623
  149DOPC  C31617853   3.893   6.015  15.805 -0.3987  0.3535  0.0010
  149DOPC  H16X17854   3.976   6.083  15.835 -0.7971  0.5652  0.6310
  149DOPC  H16Y17855   3.927   5.910  15.808  1.7410  0.8585 -2.4067
  149DOPC  C31717856   3.846   6.033  15.659  0.0609 -0.1166 -0.0683
  149DOPC  H17X17857   3.927   6.003  15.589 -0.1699  0.3515 -0.5476
  149DOPC  H17Y17858   3.757   5.973  15.633 -1.2043  0.4539  2.5973
  149DOPC  C31817859   3.800   6.180  15.629 -0.1077 -0.8276 -0.0347
  149DOPC  H18X17860   3.700   6.197  15.674 -0.2387 -0.8357 -0.3187
  149DOPC  H18Y17861   3.869   6.260  15.665  1.0186 -1.2200 -1.2144
  149DOPC  H18Z17862   3.789   6.185  15.518  1.9004  2.5759 -0.2385
  150DOPC     N17863   0.226   1.602  18.289 -0.0558 -0.1803 -0.0063
  150DOPC   C1217864   0.362   1.585  18.211 -0.6887 -0.1767  0.0599
  150DOPC  H12A17865   0.428   1.669  18.226 -2.2556  1.2046 -0.4162
  150DOPC  H12B17866   0.348   1.593  18.104 -1.1758  3.0908  0.2704
  150DOPC   C1317867   0.130   1.498  18.249 -0.6801 -0.1373 -0.0010
  150DOPC  H13A17868   0.051   1.487  18.322  1.4766 -1.6450  2.2886
  150DOPC  H13B17869   0.094   1.520  18.150  0.9638 -0.5173 -0.7151
  150DOPC  H13C17870   0.178   1.401  18.254  0.2009  0.2437 -0.8571
  150DOPC   C1417871   0.171   1.740  18.270 -0.0060 -0.0180  0.3025
  150DOPC  H14A17872   0.238   1.820  18.297  1.0214 -0.1313 -1.7453
  150DOPC  H14B17873   0.139   1.749  18.167  0.0279 -2.3582  0.0488
  150DOPC  H14C17874   0.089   1.759  18.338 -0.1178  1.1054 -0.1060
  150DOPC   C1517875   0.253   1.594  18.435  0.1831  0.7384  0.4446
  150DOPC  H15A17876   0.314   1.680  18.456  0.6003  1.5676 -3.3051
  150DOPC  H15B17877   0.296   1.498  18.458 -0.0580  0.5212  0.0123
  150DOPC  H15C17878   0.165   1.606  18.495  0.9687  0.1700  1.7446
  150DOPC   C1117879   0.450   1.459  18.243 -0.5794  0.0235  0.2992
  150DOPC  H11A17880   0.549   1.476  18.194 -0.6577 -1.1089 -0.2696
  150DOPC  H11B17881   0.483   1.461  18.349 -0.2849 -1.1531  0.2417
  150DOPC     P17882   0.379   1.278  18.069  0.0098  0.1424  0.2206
  150DOPC   O1317883   0.244   1.220  18.068 -0.2640  0.3000  0.2687
  150DOPC   O1417884   0.492   1.187  18.030 -0.1745 -0.0442 -0.3352
  150DOPC   O1217885   0.394   1.332  18.215 -0.5750  0.4538  0.0461
  150DOPC   O1117886   0.385   1.415  17.975  0.4575  0.5391 -0.1259
  150DOPC    C117887   0.268   1.470  17.920  0.2693 -0.0778  0.1935
  150DOPC    HA17888   0.285   1.580  17.917 -2.4982  0.4236 -0.4960
  150DOPC    HB17889   0.178   1.442  17.979 -1.4097  0.1693 -2.0847
  150DOPC    C217890   0.237   1.430  17.769 -0.1778 -0.0245 -0.2361
  150DOPC    HS17891   0.195   1.328  17.763  1.7090 -1.1050  2.5118
  150DOPC   O2117892   0.361   1.450  17.695 -0.0766 -0.3720 -0.3266
  150DOPC   C2117893   0.406   1.350  17.626 -0.1732 -0.0444  0.0392
  150DOPC   O2217894   0.348   1.246  17.607  0.1888 -0.5518 -0.1716
  150DOPC   C2217895   0.546   1.380  17.568  0.1090  0.0455 -0.1313
  150DOPC   H2R17896   0.611   1.315  17.632  0.8834  0.6510 -0.2886
  150DOPC   H2S17897   0.565   1.485  17.599 -0.6245  0.4093 -0.8974
  150DOPC    C317898   0.128   1.519  17.704 -0.4397  0.5570  0.6289
  150DOPC    HX17899   0.182   1.616  17.702 -1.0076  0.8647 -0.0025
  150DOPC    HY17900   0.034   1.514  17.764  0.8940 -1.5350  2.7290
  150DOPC   O3117901   0.106   1.475  17.569  0.2804 -0.5467 -0.8647
  150DOPC   C3117902   0.117   1.571  17.474  0.3238  0.0190  1.0735
  150DOPC   O3217903   0.133   1.692  17.491  0.6282  0.7307 -0.1266
  150DOPC   C3217904   0.116   1.500  17.335  0.6494  0.2559 -0.6398
  150DOPC   H2X17905   0.183   1.411  17.339  1.8282  0.8560 -3.9243
  150DOPC   H2Y17906   0.012   1.463  17.320  1.1759 -1.2137 -0.8396
  150DOPC   C2317907   0.563   1.366  17.414 -0.3546  0.6137  0.5781
  150DOPC   H3R17908   0.540   1.262  17.381  0.4921  0.9066 -1.0351
  150DOPC   H3S17909   0.670   1.378  17.390 -0.3105  0.2534  0.5877
  150DOPC   C2417910   0.491   1.475  17.328 -0.1925 -0.1042  0.0745
  150DOPC   H4R17911   0.490   1.563  17.396  0.0391 -1.2970  1.6768
  150DOPC   H4S17912   0.389   1.442  17.297 -0.5305  3.8598 -4.0493
  150DOPC   C2517913   0.555   1.503  17.191 -0.4874 -0.2307  0.1395
  150DOPC   H5R17914   0.663   1.521  17.213 -0.7352 -0.4506  1.5958
  150DOPC   H5S17915   0.510   1.592  17.141  2.6403  1.6453  0.4032
  150DOPC   C2617916   0.559   1.385  17.093 -0.4903  0.2565  0.1450
  150DOPC   H6R17917   0.456   1.356  17.062 -0.2290  0.1403 -0.6341
  150DOPC   H6S17918   0.605   1.296  17.139 -0.9572  1.5304  3.3657
  150DOPC   C2717919   0.636   1.423  16.961 -0.4437 -0.0258  0.0696
  150DOPC   H7R17920   0.734   1.463  16.995 -0.9609  1.7299 -0.4194
  150DOPC   H7S17921   0.578   1.502  16.910 -0.8566 -0.9692 -0.9501
  150DOPC   C2817922   0.656   1.302  16.867  0.1692 -0.1832 -0.0520
  150DOPC   H8R17923   0.554   1.260  16.851  0.3347 -0.8062  0.5035
  150DOPC   H8S17924   0.713   1.225  16.924 -0.0399 -0.2615  0.0513
  150DOPC   C2917925   0.726   1.335  16.740 -0.3188 -0.0824 -0.4376
  150DOPC   H9R17926   0.833   1.346  16.764 -0.1906 -0.8785 -0.6337
  150DOPC  C21017927   0.677   1.338  16.614 -0.3497  0.3288 -0.1845
  150DOPC  H10R17928   0.738   1.367  16.528  0.7763  0.1644  0.5323
  150DOPC  C21117929   0.527   1.310  16.586  0.2265  0.0525 -0.5079
  150DOPC  H11R17930   0.463   1.389  16.631 -3.0563 -1.7863 -1.6302
  150DOPC  H11S17931   0.497   1.217  16.638 -1.1969  1.2964  1.0365
  150DOPC  C21217932   0.503   1.305  16.435 -0.3399 -0.3384  0.4621
  150DOPC  H12R17933   0.540   1.396  16.383 -0.0808  0.1982  1.5639
  150DOPC  H12S17934   0.392   1.300  16.421 -0.5603 -0.6585  2.0698
  150DOPC  C21317935   0.563   1.187  16.368  0.3693  0.5903  0.3095
  150DOPC  H13R17936   0.513   1.091  16.394  1.0423 -0.0249 -0.6224
  150DOPC  H13S17937   0.669   1.182  16.400 -0.0727 -0.1458  1.7654
  150DOPC  C21417938   0.558   1.191  16.208  0.8150  0.0892  0.0115
  150DOPC  H14R17939   0.460   1.234  16.178 -0.4093 -1.0476  2.1837
  150DOPC  H14S17940   0.570   1.088  16.168 -0.6573 -0.4565  0.8938
  150DOPC  C21517941   0.674   1.270  16.145  0.1719 -0.8144  0.2442
  150DOPC  H15R17942   0.766   1.220  16.182  0.5216 -0.6930 -0.4487
  150DOPC  H15S17943   0.654   1.377  16.168 -1.0819 -0.9711 -0.0319
  150DOPC  C21617944   0.685   1.253  15.993 -0.1427  0.3681  0.1119
  150DOPC  H16R17945   0.588   1.277  15.945  0.5440  0.6578 -1.1748
  150DOPC  H16S17946   0.718   1.151  15.968 -2.5936  0.1173 -2.5419
  150DOPC  C21717947   0.784   1.362  15.944 -1.2154 -0.0855 -0.3158
  150DOPC  H17R17948   0.859   1.363  16.025 -0.9265  1.5916 -0.5677
  150DOPC  H17S17949   0.727   1.457  15.933 -0.5180  0.3759 -0.0304
  150DOPC  C21817950   0.857   1.337  15.813 -0.9781 -0.0999  1.0139
  150DOPC  H18R17951   0.781   1.339  15.732  0.3239  1.3011 -0.2565
  150DOPC  H18S17952   0.915   1.242  15.813 -2.2164 -0.8771  0.3461
  150DOPC  H18T17953   0.918   1.427  15.788 -0.4324 -0.4686  0.9897
  150DOPC   C3317954   0.145   1.590  17.217  0.4992 -0.6361 -1.3442
  150DOPC   H3X17955   0.240   1.645  17.234 -1.3020  2.0908  0.7757
  150DOPC   H3Y17956   0.076   1.676  17.227  0.2204 -1.0232  0.3249
  150DOPC   C3417957   0.135   1.523  17.081  0.9739 -0.0021  0.1692
  150DOPC   H4X17958   0.037   1.481  17.047  1.3526 -1.5038  0.8527
  150DOPC   H4Y17959   0.208   1.441  17.066 -1.0495 -1.7893 -0.4751
  150DOPC   C3517960   0.170   1.632  16.971 -0.2149  0.5260 -0.3701
  150DOPC   H5X17961   0.274   1.667  16.989  1.1585 -2.4483 -1.8659
  150DOPC   H5Y17962   0.097   1.715  16.981 -0.2823  0.7770 -2.5070
  150DOPC   C3617963   0.153   1.573  16.833 -0.1211  0.5512  0.2003
  150DOPC   H6X17964   0.192   1.469  16.824  1.0506  0.9586  0.3674
  150DOPC   H6Y17965   0.047   1.550  16.810  0.4652 -2.2771 -0.1476
  150DOPC   C3717966   0.218   1.666  16.731  0.1323 -0.6931 -0.4122
  150DOPC   H7X17967   0.151   1.753  16.714 -0.8356 -1.5407 -1.0447
  150DOPC   H7Y17968   0.321   1.686  16.767 -0.2639 -0.7737  0.7878
  150DOPC   C3817969   0.236   1.588  16.600 -0.2036  0.4804  0.3333
  150DOPC   H8X17970   0.298   1.496  16.605  0.7600  1.1790  2.7320
  150DOPC   H8Y17971   0.285   1.669  16.542 -2.6829  0.4276 -2.0766
  150DOPC   C3917972   0.106   1.549  16.528 -0.4569  0.4335 -0.0467
  150DOPC   H9X17973   0.012   1.542  16.586  0.7828  0.1787  2.0531
  150DOPC  C31017974   0.087   1.536  16.399 -0.5061  0.2113 -0.9030
  150DOPC  H10X17975  -0.009   1.513  16.350 -0.0882  1.8940 -2.6629
  150DOPC  C31117976   0.189   1.548  16.285  0.0854 -0.2323 -0.6140
  150DOPC  H11X17977   0.291   1.562  16.327  0.8499 -0.7286 -2.2444
  150DOPC  H11Y17978   0.158   1.638  16.229  2.0173  1.2969  0.6540
  150DOPC  C31217979   0.184   1.439  16.181  0.2040  0.7488 -0.4771
  150DOPC  H12X17980   0.089   1.441  16.124  1.7358 -1.1904 -3.3580
  150DOPC  H12Y17981   0.192   1.341  16.233  0.2313  1.1029  0.1957
  150DOPC  C31317982   0.298   1.455  16.078 -0.5406 -0.0958  0.2606
  150DOPC  H13X17983   0.391   1.448  16.138 -0.4958  0.4257  0.2584
  150DOPC  H13Y17984   0.302   1.374  16.002  0.0294  0.0878  0.0894
  150DOPC  C31417985   0.293   1.585  15.999  0.2313  0.1659 -0.2311
  150DOPC  H14X17986   0.201   1.607  15.941  1.1307 -0.9326 -2.1915
  150DOPC  H14Y17987   0.324   1.670  16.063  0.8867  0.5452 -1.0288
  150DOPC  C31517988   0.412   1.586  15.901  0.2827 -0.5924 -0.6298
  150DOPC  H15X17989   0.410   1.488  15.848  2.4046 -1.6369  1.0469
  150DOPC  H15Y17990   0.503   1.572  15.964 -1.3608 -0.0105  2.0247
  150DOPC  C31617991   0.428   1.707  15.818  0.7711  0.5127 -0.2929
  150DOPC  H16X17992   0.348   1.716  15.741 -0.9856  0.9062  1.4834
  150DOPC  H16Y17993   0.417   1.800  15.878 -2.5103  1.3188 -1.8984
  150DOPC  C31717994   0.559   1.696  15.742 -0.3857  0.2016 -0.1905
  150DOPC  H17X17995   0.579   1.798  15.701 -1.5054  1.0564  1.3051
  150DOPC  H17Y17996   0.635   1.677  15.820  0.0554 -3.1900 -1.3023
  150DOPC  C31817997   0.593   1.581  15.641  0.0202 -0.6687  0.7605
  150DOPC  H18X17998   0.512   1.542  15.576 -0.7022 -1.1246  1.8887
  150DOPC  H18Y17999   0.682   1.604  15.580 -0.6387  1.7518  0.5864
  150DOPC  H18Z18000   0.617   1.488  15.697  1.8003 -0.1660  0.8784
  151DOPC     N18001   2.777   5.512  18.620 -0.3090 -0.1812  0.2215
  151DOPC   C1218002   2.790   5.398  18.530  0.1536  0.6749  0.1081
  151DOPC  H12A18003   2.699   5.388  18.474 -0.1455 -2.6613  0.9941
  151DOPC  H12B18004   2.810   5.307  18.585  1.3897 -0.5822 -2.2493
  151DOPC   C1318005   2.654   5.502  18.691 -0.0985 -0.1988  0.6549
  151DOPC  H13A18006   2.627   5.600  18.728 -1.4549  0.1846 -1.1659
  151DOPC  H13B18007   2.573   5.472  18.626  0.5394  0.4851 -0.4920
  151DOPC  H13C18008   2.668   5.437  18.775  1.8167 -1.3931 -0.5128
  151DOPC   C1418009   2.779   5.642  18.543  0.1397  0.1777  0.3452
  151DOPC  H14A18010   2.874   5.665  18.496 -0.0211  0.6807  0.2664
  151DOPC  H14B18011   2.706   5.626  18.465  2.0447 -0.9655 -1.3384
  151DOPC  H14C18012   2.749   5.729  18.599 -0.6175  1.2292 -1.5770
  151DOPC   C1518013   2.889   5.509  18.719  0.1515  0.2355  0.0794
  151DOPC  H15A18014   2.987   5.526  18.678  0.3012 -0.2591  0.2274
  151DOPC  H15B18015   2.886   5.423  18.784 -1.2619  1.8178  2.2973
  151DOPC  H15C18016   2.876   5.591  18.790 -0.2880  1.7159 -1.6370
  151DOPC   C1118017   2.905   5.403  18.419  0.4407 -0.0003 -0.4006
  151DOPC  H11A18018   2.995   5.434  18.476 -0.4760  2.2368 -0.0407
  151DOPC  H11B18019   2.930   5.299  18.388 -0.3965 -1.2237  2.7315
  151DOPC     P18020   2.750   5.470  18.210  0.0225  0.1870  0.1241
  151DOPC   O1318021   2.751   5.568  18.097  0.0799  0.3404 -0.3427
  151DOPC   O1418022   2.626   5.456  18.289 -0.1703 -0.4479 -0.5840
  151DOPC   O1218023   2.873   5.492  18.309 -0.3244 -0.1004  0.2905
  151DOPC   O1118024   2.787   5.328  18.157  0.0108 -0.1226 -0.0022
  151DOPC    C118025   2.891   5.317  18.067 -0.0125  0.3019  0.4167
  151DOPC    HA18026   2.924   5.212  18.055  1.2428  0.6662  0.5695
  151DOPC    HB18027   2.986   5.365  18.100 -0.1160 -1.2934  3.4224
  151DOPC    C218028   2.838   5.349  17.918  0.4205  0.0028  0.6251
  151DOPC    HS18029   2.810   5.456  17.908 -3.4966 -0.9969 -1.2537
  151DOPC   O2118030   2.725   5.266  17.883  0.2337 -0.3042  0.1082
  151DOPC   C2118031   2.619   5.334  17.849  0.1102  0.0899  1.1114
  151DOPC   O2218032   2.601   5.448  17.852  0.4208 -0.2957  0.0671
  151DOPC   C2218033   2.521   5.239  17.779 -0.5037 -1.1131  0.2671
  151DOPC   H2R18034   2.472   5.176  17.856  1.0936 -0.0855  2.2328
  151DOPC   H2S18035   2.588   5.176  17.716 -0.5764  1.2393 -2.3423
  151DOPC    C318036   2.946   5.330  17.813  0.3665  0.1605 -0.3725
  151DOPC    HX18037   2.979   5.224  17.806 -0.6352 -0.0644 -1.8904
  151DOPC    HY18038   3.036   5.388  17.845 -0.9720  1.5143  1.1291
  151DOPC   O3118039   2.907   5.373  17.680  0.1201 -0.0177 -0.5796
  151DOPC   C3118040   2.898   5.499  17.642  0.2257 -0.9339 -0.8102
  151DOPC   O3218041   2.926   5.590  17.720 -0.5588 -0.5693  0.0017
  151DOPC   C3218042   2.861   5.517  17.493  0.0430 -0.5559  0.2323
  151DOPC   H2X18043   2.822   5.620  17.485  0.6565 -0.3339  0.0148
  151DOPC   H2Y18044   2.957   5.527  17.437 -0.5680  0.3397 -0.6741
  151DOPC   C2318045   2.421   5.309  17.688  0.2804  0.2329 -0.1419
  151DOPC   H3R18046   2.472   5.397  17.643 -0.0839 -0.2545 -1.5789
  151DOPC   H3S18047   2.332   5.343  17.745 -0.6418  1.1398 -2.0194
  151DOPC   C2418048   2.385   5.224  17.564  0.3490  0.4169 -0.8001
  151DOPC   H4R18049   2.324   5.140  17.604  2.8636 -1.2466 -0.2227
  151DOPC   H4S18050   2.485   5.193  17.527  1.2948  2.1525  0.1573
  151DOPC   C2518051   2.315   5.302  17.453 -0.4705 -0.6609  0.6176
  151DOPC   H5R18052   2.330   5.244  17.359 -0.1407  1.0011 -0.3892
  151DOPC   H5S18053   2.354   5.404  17.433  1.9980 -1.3813  1.3370
  151DOPC   C2618054   2.165   5.310  17.484  0.4121 -0.0646 -0.5656
  151DOPC   H6R18055   2.162   5.369  17.578  1.5721  0.6158 -0.9341
  151DOPC   H6S18056   2.131   5.205  17.495  1.4441 -0.3275  0.2873
  151DOPC   C2718057   2.079   5.382  17.376 -0.1116 -0.0313  0.2458
  151DOPC   H7R18058   2.133   5.473  17.343  1.4123 -1.0507 -0.1879
  151DOPC   H7S18059   1.985   5.410  17.430 -0.6749  0.7934 -1.1139
  151DOPC   C2818060   2.043   5.293  17.244 -0.2788 -0.2138 -0.6250
  151DOPC   H8R18061   2.135   5.242  17.209  1.0729  1.0401  0.9797
  151DOPC   H8S18062   2.023   5.361  17.158  0.7756  0.7274 -0.1579
  151DOPC   C2918063   1.928   5.195  17.260  0.3585 -0.0063 -0.3590
  151DOPC   H9R18064   1.896   5.187  17.365 -0.5517 -1.5720 -0.7367
  151DOPC  C21018065   1.846   5.154  17.166  0.2330 -0.3372 -0.2923
  151DOPC  H10R18066   1.766   5.083  17.194  1.2202 -0.7688  1.5808
  151DOPC  C21118067   1.864   5.189  17.024  0.4783  0.7363 -0.2667
  151DOPC  H11R18068   1.969   5.175  16.990 -0.0569  0.5926 -1.9555
  151DOPC  H11S18069   1.823   5.288  16.996 -0.1528  0.3039 -0.9228
  151DOPC  C21218070   1.784   5.089  16.934 -0.1944 -0.7245 -0.1002
  151DOPC  H12R18071   1.677   5.082  16.963 -0.2074  0.4199  0.1625
  151DOPC  H12S18072   1.838   4.992  16.939 -0.9787 -1.0908  2.4586
  151DOPC  C21318073   1.794   5.148  16.790 -0.1417  0.2179 -0.2427
  151DOPC  H13R18074   1.904   5.160  16.776 -0.3943 -0.0856 -2.9361
  151DOPC  H13S18075   1.734   5.240  16.779 -0.7979 -0.2317 -0.4481
  151DOPC  C21418076   1.741   5.056  16.676  0.3221 -0.0892  0.7688
  151DOPC  H14R18077   1.638   5.026  16.703  0.3717 -0.9492  0.0281
  151DOPC  H14S18078   1.802   4.966  16.654  0.3263  0.5870 -2.4446
  151DOPC  C21518079   1.742   5.127  16.538 -0.2514 -0.3583 -0.1374
  151DOPC  H15R18080   1.845   5.154  16.506 -0.1352 -0.5223  0.0989
  151DOPC  H15S18081   1.675   5.215  16.541  0.8233  0.4551  0.7263
  151DOPC  C21618082   1.691   5.041  16.419  0.1036  0.0293  0.0414
  151DOPC  H16R18083   1.622   4.964  16.461  1.1942 -0.0035  1.8829
  151DOPC  H16S18084   1.769   4.972  16.381 -0.5741 -0.9757  0.4244
  151DOPC  C21718085   1.637   5.109  16.293  0.0587 -0.7829  0.3161
  151DOPC  H17R18086   1.711   5.186  16.262 -1.3528  0.6091  0.2715
  151DOPC  H17S18087   1.542   5.166  16.302  1.7469  2.3252 -0.0626
  151DOPC  C21818088   1.606   5.005  16.171 -0.4785 -0.1570 -0.1271
  151DOPC  H18R18089   1.704   4.977  16.128  0.0239 -0.5012  1.1846
  151DOPC  H18S18090   1.562   5.075  16.096  0.4710  1.7874  1.0365
  151DOPC  H18T18091   1.544   4.920  16.208  1.0951 -1.2320  0.0979
  151DOPC   C3318092   2.760   5.408  17.443 -0.1137 -0.3224  0.0216
  151DOPC   H3X18093   2.677   5.387  17.513 -0.5583 -0.5635 -0.5732
  151DOPC   H3Y18094   2.828   5.320  17.445 -0.9024 -0.9304  0.7645
  151DOPC   C3418095   2.708   5.438  17.308 -0.0452  0.5932 -0.1176
  151DOPC   H4X18096   2.658   5.537  17.317 -1.4637  0.0291 -1.3594
  151DOPC   H4Y18097   2.628   5.366  17.280 -0.7392  2.0510 -2.1050
  151DOPC   C3518098   2.807   5.427  17.188 -0.6404 -0.0977  0.6482
  151DOPC   H5X18099   2.858   5.330  17.173  1.0758  0.8011  0.4031
  151DOPC   H5Y18100   2.888   5.499  17.214  1.4258 -2.3127  0.6715
  151DOPC   C3618101   2.750   5.468  17.046 -0.4382 -0.5102  0.1127
  151DOPC   H6X18102   2.670   5.394  17.025 -0.0306 -0.9539  0.1144
  151DOPC   H6Y18103   2.710   5.572  17.053 -3.4579 -1.5592 -0.0262
  151DOPC   C3718104   2.858   5.462  16.935 -0.6272 -1.1473 -0.0790
  151DOPC   H7X18105   2.919   5.552  16.954  1.2196 -2.0137 -1.5310
  151DOPC   H7Y18106   2.927   5.376  16.952 -0.2862 -0.8135  0.2306
  151DOPC   C3818107   2.804   5.452  16.792 -0.4218 -0.4863 -0.2416
  151DOPC   H8X18108   2.712   5.391  16.775 -0.0341 -0.2144 -4.4728
  151DOPC   H8Y18109   2.884   5.406  16.730  0.6233  0.0593  0.6756
  151DOPC   C3918110   2.754   5.584  16.749  0.0283  0.8250 -0.5251
  151DOPC   H9X18111   2.702   5.643  16.825 -1.8957  1.2786 -2.1007
  151DOPC  C31018112   2.780   5.652  16.634 -0.6346  0.6516  0.3611
  151DOPC  H10X18113   2.762   5.760  16.641 -0.8866  0.6483 -0.2299
  151DOPC  C31118114   2.837   5.602  16.505  0.1940  0.3507  0.7621
  151DOPC  H11X18115   2.820   5.493  16.492 -0.0857  0.6821 -2.8686
  151DOPC  H11Y18116   2.947   5.615  16.499  0.2700 -0.7390 -1.7948
  151DOPC  C31218117   2.780   5.683  16.382  0.4363 -0.2699  0.5684
  151DOPC  H12X18118   2.786   5.793  16.399  0.4043 -0.0644 -0.6811
  151DOPC  H12Y18119   2.672   5.661  16.380  0.1523  0.5304  2.9624
  151DOPC  C31318120   2.840   5.652  16.243 -0.0216 -0.6340  0.9742
  151DOPC  H13X18121   2.943   5.693  16.237 -0.1214 -0.3207  1.4040
  151DOPC  H13Y18122   2.846   5.541  16.239 -3.4579 -0.8888 -0.3446
  151DOPC  C31418123   2.768   5.709  16.118 -0.1788  0.1867  0.0696
  151DOPC  H14X18124   2.675   5.649  16.110  0.1452 -0.3243  0.1298
  151DOPC  H14Y18125   2.749   5.816  16.143 -1.1391 -0.2485  1.2542
  151DOPC  C31518126   2.850   5.688  15.991 -1.0244  0.3563  0.5682
  151DOPC  H15X18127   2.897   5.588  16.001 -0.0869  0.2931 -3.0935
  151DOPC  H15Y18128   2.929   5.766  15.985  0.3626 -1.0490 -0.1862
  151DOPC  C31618129   2.778   5.686  15.856 -0.4026 -0.5248  0.2902
  151DOPC  H16X18130   2.839   5.645  15.773 -0.6255  0.6936 -0.4972
  151DOPC  H16Y18131   2.703   5.606  15.875 -1.4715  0.7160  1.6147
  151DOPC  C31718132   2.711   5.819  15.818  0.7768 -0.0002  0.4478
  151DOPC  H17X18133   2.643   5.796  15.733 -0.6832  2.6355  0.7928
  151DOPC  H17Y18134   2.640   5.857  15.895 -0.7467 -1.4507 -0.1915
  151DOPC  C31818135   2.802   5.927  15.759  0.1226  0.2272 -0.4625
  151DOPC  H18X18136   2.858   5.966  15.846 -0.9852 -1.3533  1.0150
  151DOPC  H18Y18137   2.878   5.877  15.695 -0.8696 -1.2780 -0.5009
  151DOPC  H18Z18138   2.744   6.011  15.714  2.8994  2.0100 -0.9651
  152DOPC     N18139   4.269   3.752  17.954  0.1423  0.6420  0.8352
  152DOPC   C1218140   4.347   3.861  17.878  0.3611  0.5559 -0.0873
  152DOPC  H12A18141   4.448   3.873  17.914  1.4420 -0.0002 -2.7085
  152DOPC  H12B18142   4.307   3.960  17.893  0.6469  0.6506  0.0389
  152DOPC   C1318143   4.300   3.761  18.101 -0.5375  0.6775  0.0316
  152DOPC  H13A18144   4.270   3.859  18.136  1.6874  2.0018 -1.5740
  152DOPC  H13B18145   4.249   3.685  18.160  0.6100 -0.0917  0.0655
  152DOPC  H13C18146   4.405   3.747  18.122 -0.5706 -0.8544 -0.6562
  152DOPC   C1418147   4.324   3.624  17.903  0.3711 -0.1312 -0.8495
  152DOPC  H14A18148   4.431   3.611  17.912  0.4200  0.9115  0.3105
  152DOPC  H14B18149   4.269   3.548  17.958 -0.4590 -0.0155 -1.5059
  152DOPC  H14C18150   4.305   3.605  17.799 -0.7604  0.0339 -0.6913
  152DOPC   C1518151   4.128   3.753  17.927 -0.1285 -0.0962  0.1746
  152DOPC  H15A18152   4.079   3.676  17.984 -0.4235  0.7103  1.0488
  152DOPC  H15B18153   4.106   3.745  17.822 -1.1095  1.5362  0.2237
  152DOPC  H15C18154   4.083   3.839  17.974 -1.9272 -0.7131 -0.3613
  152DOPC   C1118155   4.361   3.841  17.725  0.4717  0.4288  0.3066
  152DOPC  H11A18156   4.260   3.828  17.679  0.6323  1.2281 -0.2945
  152DOPC  H11B18157   4.397   3.938  17.685  2.8268 -0.4188  0.2115
  152DOPC     P18158   4.599   3.736  17.721 -0.1159 -0.1211 -0.4259
  152DOPC   O1318159   4.619   3.593  17.764 -0.1697  0.1116 -0.0265
  152DOPC   O1418160   4.621   3.844  17.820  0.1819 -0.6804 -0.1012
  152DOPC   O1218161   4.451   3.737  17.689  0.0757 -0.4321 -0.3568
  152DOPC   O1118162   4.673   3.757  17.584  0.1355 -0.3158  0.5302
  152DOPC    C118163   4.596   3.786  17.470  0.9680  0.2069  0.9194
  152DOPC    HA18164   4.660   3.824  17.387 -0.2326 -1.0535 -0.6691
  152DOPC    HB18165   4.521   3.867  17.486  1.5898  1.0812 -0.3157
  152DOPC    C218166   4.542   3.651  17.415  0.3630 -0.2631 -0.0323
  152DOPC    HS18167   4.496   3.598  17.501 -2.1047  1.5089 -0.1559
  152DOPC   O2118168   4.639   3.573  17.340  0.3606 -0.3439 -0.0709
  152DOPC   C2118169   4.595   3.447  17.324 -0.0755 -0.1875 -0.2976
  152DOPC   O2218170   4.496   3.402  17.375  0.5689  0.0085 -0.3677
  152DOPC   C2218171   4.689   3.378  17.234  0.4479 -0.6214  0.3968
  152DOPC   H2R18172   4.701   3.276  17.274 -1.2014 -1.0348 -0.1062
  152DOPC   H2S18173   4.786   3.431  17.215 -0.4451  1.1096  0.4485
  152DOPC    C318174   4.420   3.685  17.321  0.1319 -0.3150  0.6928
  152DOPC    HX18175   4.349   3.727  17.395  0.0488 -0.8813  0.9438
  152DOPC    HY18176   4.382   3.593  17.271  0.9797 -0.3117  0.0069
  152DOPC   O3118177   4.447   3.783  17.219 -0.0289 -0.5697 -0.6076
  152DOPC   C3118178   4.342   3.803  17.144  0.1134  1.0757  0.4187
  152DOPC   O3218179   4.236   3.742  17.150  0.0713 -0.1907  0.0745
  152DOPC   C3218180   4.376   3.911  17.035  0.4363  0.0621 -0.1139
  152DOPC   H2X18181   4.476   3.885  16.995  0.8577  0.3451  0.7225
  152DOPC   H2Y18182   4.316   3.906  16.942 -0.4380 -0.1619  0.4581
  152DOPC   C2318183   4.632   3.372  17.089 -0.1890 -0.5628  0.0166
  152DOPC   H3R18184   4.526   3.337  17.087 -0.1923 -0.6233  0.8491
  152DOPC   H3S18185   4.701   3.306  17.033  0.8245  0.9833 -0.6195
  152DOPC   C2418186   4.645   3.516  17.028  0.1037 -0.2872 -0.4275
  152DOPC   H4R18187   4.755   3.533  17.022  0.3515 -0.6987  1.9291
  152DOPC   H4S18188   4.599   3.586  17.101  0.7618 -1.2094  0.8890
  152DOPC   C2518189   4.585   3.526  16.886  0.3283  0.0950 -0.1066
  152DOPC   H5R18190   4.476   3.505  16.881  0.2429  0.4115  0.3540
  152DOPC   H5S18191   4.631   3.441  16.831 -1.2869 -1.3556  0.6855
  152DOPC   C2618192   4.609   3.667  16.831  0.5956 -0.4682  0.2238
  152DOPC   H6R18193   4.715   3.688  16.859  0.4834 -0.9878  1.1032
  152DOPC   H6S18194   4.546   3.732  16.895  0.0470 -0.0475 -0.7354
  152DOPC   C2718195   4.583   3.684  16.680  0.6176 -0.2203 -0.8243
  152DOPC   H7R18196   4.477   3.653  16.674  0.9609 -1.7909  0.3211
  152DOPC   H7S18197   4.641   3.605  16.627  1.8559  1.4147 -1.9973
  152DOPC   C2818198   4.610   3.824  16.628  0.8724  1.0975 -0.4522
  152DOPC   H8R18199   4.720   3.831  16.634  0.9361 -0.6940  1.6324
  152DOPC   H8S18200   4.572   3.900  16.700 -0.0741 -0.4060  0.6967
  152DOPC   C2918201   4.539   3.855  16.505  1.2947  0.3103 -0.6389
  152DOPC   H9R18202   4.441   3.903  16.517  1.1402  0.2213 -1.4784
  152DOPC  C21018203   4.593   3.843  16.383 -0.0683 -0.1349 -0.1707
  152DOPC  H10R18204   4.543   3.878  16.292 -0.6447  2.5608  1.0662
  152DOPC  C21118205   4.729   3.786  16.345  0.0463  0.2741  0.2871
  152DOPC  H11R18206   4.764   3.715  16.423  1.5415  0.9491  0.2570
  152DOPC  H11S18207   4.807   3.864  16.357 -0.3037  0.8215 -0.8437
  152DOPC  C21218208   4.735   3.716  16.205  0.2132  0.1076 -0.5525
  152DOPC  H12R18209   4.649   3.649  16.188  0.7359 -0.4457 -1.0347
  152DOPC  H12S18210   4.817   3.641  16.205 -0.7601 -1.0536 -2.8161
  152DOPC  C21318211   4.768   3.812  16.092  0.5095  0.1212  0.3124
  152DOPC  H13R18212   4.869   3.858  16.089  0.8333 -0.6050 -0.1697
  152DOPC  H13S18213   4.695   3.896  16.089  2.3688  2.1480  4.0990
  152DOPC  C21418214   4.756   3.726  15.961  0.7693 -0.0556  0.3721
  152DOPC  H14R18215   4.649   3.706  15.937  1.0869 -0.7081 -0.5301
  152DOPC  H14S18216   4.806   3.628  15.970 -2.3154 -1.5833  3.0463
  152DOPC  C21518217   4.805   3.800  15.826 -0.0168 -0.0162  0.0742
  152DOPC  H15R18218   4.915   3.796  15.815  0.0137 -1.9078  0.7171
  152DOPC  H15S18219   4.774   3.906  15.837 -0.6224 -0.1670 -0.1024
  152DOPC  C21618220   4.749   3.731  15.698  0.8999 -0.1438 -0.0773
  152DOPC  H16R18221   4.638   3.735  15.697  0.7866 -2.0340 -0.3623
  152DOPC  H16S18222   4.777   3.623  15.689  1.8352 -0.0837  1.6614
  152DOPC  C21718223   4.801   3.792  15.566 -0.0470  0.0693  0.3877
  152DOPC  H17R18224   4.749   3.756  15.474 -2.2058 -0.2434  1.6632
  152DOPC  H17S18225   4.907   3.760  15.563  0.3262  1.2086  0.7535
  152DOPC  C21818226   4.785   3.948  15.560  0.5984 -0.3651 -1.0069
  152DOPC  H18R18227   4.825   3.976  15.460  1.1285 -1.5530 -1.1320
  152DOPC  H18S18228   4.838   3.991  15.647 -2.1199 -0.8756  1.0376
  152DOPC  H18T18229   4.677   3.974  15.571  1.0624  1.3384  0.0111
  152DOPC   C3318230   4.400   4.061  17.080  0.2297 -0.1733  0.2635
  152DOPC   H3X18231   4.486   4.075  17.148 -0.4629  0.9426  0.9325
  152DOPC   H3Y18232   4.308   4.094  17.132  1.4287 -1.7621  3.6518
  152DOPC   C3418233   4.421   4.154  16.957 -0.0369  0.0856  0.3917
  152DOPC   H4X18234   4.520   4.128  16.913 -0.9528 -0.5526 -1.4267
  152DOPC   H4Y18235   4.432   4.258  16.994 -1.4222  0.4016 -0.0338
  152DOPC   C3518236   4.308   4.159  16.847 -0.3122 -0.1516  0.1475
  152DOPC   H5X18237   4.209   4.151  16.898  1.0149  0.6497  3.0972
  152DOPC   H5Y18238   4.338   4.076  16.779  1.6259  1.5110 -1.1431
  152DOPC   C3618239   4.304   4.290  16.769 -0.1294 -0.5510  0.0305
  152DOPC   H6X18240   4.281   4.371  16.842  1.2669  0.3681 -0.5104
  152DOPC   H6Y18241   4.410   4.313  16.745 -0.2453 -1.1405 -1.1132
  152DOPC   C3718242   4.198   4.290  16.661  0.4783  0.1000  0.9485
  152DOPC   H7X18243   4.103   4.239  16.686 -0.3885  1.6561  1.0012
  152DOPC   H7Y18244   4.165   4.396  16.651 -0.4572 -0.1282  1.5162
  152DOPC   C3818245   4.247   4.235  16.527  0.3458  0.0961  0.1899
  152DOPC   H8X18246   4.157   4.210  16.466  1.9883  0.3348 -2.4905
  152DOPC   H8Y18247   4.305   4.145  16.557  0.9102  0.5295  0.4060
  152DOPC   C3918248   4.339   4.318  16.438  0.5659 -0.6674  0.0837
  152DOPC   H9X18249   4.428   4.358  16.489  0.7585  0.3015 -0.9774
  152DOPC  C31018250   4.320   4.343  16.309 -0.7932  0.8307 -0.0748
  152DOPC  H10X18251   4.400   4.403  16.262 -0.7513  1.8063  1.1640
  152DOPC  C31118252   4.220   4.293  16.202  0.1158 -0.0441 -0.0941
  152DOPC  H11X18253   4.121   4.339  16.219 -0.1773 -0.6636 -0.1060
  152DOPC  H11Y18254   4.214   4.182  16.202  0.2314 -0.0650 -1.3384
  152DOPC  C31218255   4.282   4.343  16.057  0.4167 -0.1473 -0.1401
  152DOPC  H12X18256   4.380   4.298  16.032  2.3073  2.6128  1.7704
  152DOPC  H12Y18257   4.295   4.453  16.064 -4.0801  0.6168 -0.5052
  152DOPC  C31318258   4.167   4.329  15.953  0.0587 -0.4772  0.2487
  152DOPC  H13X18259   4.136   4.222  15.954  0.5305 -0.6778 -1.7858
  152DOPC  H13Y18260   4.075   4.382  15.986  0.3212  1.0465 -1.2955
  152DOPC  C31418261   4.181   4.387  15.809  0.5846  0.6636  0.4710
  152DOPC  H14X18262   4.174   4.497  15.825 -1.5417  0.4112  1.7640
  152DOPC  H14Y18263   4.275   4.357  15.760  0.7999  0.0924  1.2139
  152DOPC  C31518264   4.062   4.339  15.718  0.2555 -0.6454  0.3209
  152DOPC  H15X18265   3.968   4.371  15.767 -0.4646 -1.0773 -0.7380
  152DOPC  H15Y18266   4.054   4.228  15.709  1.4060 -0.8515  1.4506
  152DOPC  C31618267   4.058   4.403  15.575 -0.1764  0.5638  0.0219
  152DOPC  H16X18268   4.124   4.492  15.582 -0.3952  0.6923  0.5037
  152DOPC  H16Y18269   4.108   4.327  15.512  0.3583  0.2383  0.8258
  152DOPC  C31718270   3.922   4.450  15.523  0.0137  0.2975 -0.7310
  152DOPC  H17X18271   3.862   4.357  15.516  1.1581 -0.7403  1.8626
  152DOPC  H17Y18272   3.858   4.501  15.599  0.1386 -1.3922  0.5768
  152DOPC  C31818273   3.920   4.517  15.394  0.5308 -0.4359  0.6710
  152DOPC  H18X18274   3.946   4.625  15.406 -0.5796  0.0608 -1.0558
  152DOPC  H18Y18275   3.997   4.467  15.331 -1.8283 -3.5459  0.0300
  152DOPC  H18Z18276   3.824   4.504  15.340  1.8096 -1.9810 -1.3885
  153DOPC     N18277   0.460   3.876  17.804  0.0265 -0.7360  0.1741
  153DOPC   C1218278   0.356   3.777  17.761 -0.1652  0.9025 -0.1868
  153DOPC  H12A18279   0.362   3.753  17.656 -2.5707 -1.3864  0.0839
  153DOPC  H12B18280   0.255   3.816  17.770 -1.0632 -0.9364 -1.7378
  153DOPC   C1318281   0.446   4.008  17.744  0.0534  0.1066 -0.0937
  153DOPC  H13A18282   0.519   4.080  17.780  0.0895  0.3065 -0.5680
  153DOPC  H13B18283   0.456   4.008  17.637 -0.3046 -1.0410 -0.1392
  153DOPC  H13C18284   0.350   4.047  17.775  0.0031  0.7376 -1.0089
  153DOPC   C1418285   0.602   3.829  17.781 -0.0696 -0.4447  0.1573
  153DOPC  H14A18286   0.633   3.829  17.678 -0.1993 -2.6099  0.0651
  153DOPC  H14B18287   0.670   3.891  17.838  0.8296 -1.0608 -0.2239
  153DOPC  H14C18288   0.610   3.726  17.813 -0.2017 -0.5817 -0.2410
  153DOPC   C1518289   0.454   3.894  17.955 -0.2202 -0.5546 -0.0147
  153DOPC  H15A18290   0.432   3.799  18.000  2.6022 -0.9849  0.6662
  153DOPC  H15B18291   0.378   3.958  17.996 -0.2339 -1.5057  1.4837
  153DOPC  H15C18292   0.553   3.922  17.990 -0.2748 -1.0156  0.5230
  153DOPC   C1118293   0.342   3.637  17.835 -0.1237 -0.2321  0.7660
  153DOPC  H11A18294   0.297   3.554  17.777  0.4182  0.8304 -1.2677
  153DOPC  H11B18295   0.449   3.606  17.838 -0.2806 -0.7254  1.8837
  153DOPC     P18296   0.160   3.591  18.018  0.0628  0.4413  0.5700
  153DOPC   O1318297   0.133   3.658  18.148 -0.2197 -0.3116  0.1942
  153DOPC   O1418298   0.180   3.440  18.026 -0.0661  0.3519  0.0309
  153DOPC   O1218299   0.294   3.651  17.965  0.7029  0.1325 -0.3121
  153DOPC   O1118300   0.051   3.636  17.913  0.7270 -0.0289 -0.2126
  153DOPC    C118301   0.010   3.778  17.912 -0.3614 -0.9788 -0.2372
  153DOPC    HA18302   0.098   3.841  17.887 -1.2853  0.3073 -0.3541
  153DOPC    HB18303  -0.038   3.814  18.006 -1.8503  1.3531 -1.7837
  153DOPC    C218304  -0.087   3.804  17.794 -0.1354 -0.3192  0.1365
  153DOPC    HS18305  -0.185   3.755  17.814 -0.3987 -0.8179 -2.1396
  153DOPC   O2118306  -0.031   3.763  17.667 -0.1979  0.1017  0.5237
  153DOPC   C2118307  -0.057   3.631  17.645 -0.7324 -0.1345 -0.4876
  153DOPC   O2218308  -0.136   3.564  17.698  0.1554 -0.0044 -0.1532
  153DOPC   C2218309   0.001   3.606  17.506  0.0990 -1.4472 -0.2557
  153DOPC   H2R18310   0.028   3.498  17.510  1.2218 -1.1777 -0.3798
  153DOPC   H2S18311   0.099   3.657  17.506 -0.2514 -0.7525  0.4373
  153DOPC    C318312  -0.116   3.955  17.797  0.1611 -0.2165  1.4163
  153DOPC    HX18313  -0.021   4.013  17.799 -0.0157  0.4068 -2.2519
  153DOPC    HY18314  -0.174   3.989  17.885  0.9138 -0.8518  2.1758
  153DOPC   O3118315  -0.186   3.992  17.675  0.1857  0.1615  0.0270
  153DOPC   C3118316  -0.312   3.951  17.662 -0.3664  0.1188  0.8897
  153DOPC   O3218317  -0.381   3.890  17.744  0.3101 -0.0396 -0.0646
  153DOPC   C3218318  -0.357   3.996  17.520 -0.0531 -0.1593 -0.6727
  153DOPC   H2X18319  -0.347   4.104  17.500  3.0331 -0.3616 -0.6777
  153DOPC   H2Y18320  -0.290   3.945  17.447  0.8328 -0.2082  0.1692
  153DOPC   C2318321  -0.090   3.635  17.392 -0.2403 -0.6937  0.2852
  153DOPC   H3R18322  -0.143   3.733  17.395  2.5876  1.0641 -1.6561
  153DOPC   H3S18323  -0.165   3.553  17.398  2.3362 -3.1524  0.6882
  153DOPC   C2418324  -0.032   3.619  17.250 -0.9588  0.1240 -0.3091
  153DOPC   H4R18325  -0.002   3.512  17.245 -1.1319 -0.0221  1.2482
  153DOPC   H4S18326   0.058   3.684  17.257 -1.0613  0.2170  0.2067
  153DOPC   C2518327  -0.127   3.673  17.142 -0.2542  0.2002  0.0213
  153DOPC   H5R18328  -0.172   3.770  17.171  2.6133  1.4509  0.6612
  153DOPC   H5S18329  -0.211   3.600  17.148 -0.9139  0.9472  0.0162
  153DOPC   C2618330  -0.060   3.677  17.001 -0.6214 -0.7300 -0.7005
  153DOPC   H6R18331   0.015   3.596  17.001  0.4434  0.2231  0.1854
  153DOPC   H6S18332  -0.001   3.771  16.993 -0.1093 -0.8798  0.8987
  153DOPC   C2718333  -0.163   3.642  16.892  0.2921 -0.5110  0.5953
  153DOPC   H7R18334  -0.227   3.731  16.874  0.0697 -0.5355  1.2599
  153DOPC   H7S18335  -0.227   3.561  16.931 -3.8644 -0.2869 -4.5461
  153DOPC   C2818336  -0.088   3.597  16.763  0.0628 -0.0565  0.0116
  153DOPC   H8R18337  -0.017   3.515  16.789  1.8669  1.6282  0.6055
  153DOPC   H8S18338  -0.018   3.682  16.746  1.8345 -1.1199  1.5287
  153DOPC   C2918339  -0.178   3.560  16.646  0.4018 -0.2743  0.1557
  153DOPC   H9R18340  -0.263   3.496  16.672  0.0639  0.5144  1.0979
  153DOPC  C21018341  -0.160   3.606  16.515 -0.8728  0.4221  0.8626
  153DOPC  H10R18342  -0.231   3.583  16.435  0.3290  0.4990 -0.2752
  153DOPC  C21118343  -0.036   3.673  16.462 -0.5924  0.8882 -0.0488
  153DOPC  H11R18344   0.010   3.738  16.540  0.8428 -0.7004  0.4925
  153DOPC  H11S18345  -0.053   3.753  16.387 -1.5887 -1.8757 -2.9343
  153DOPC  C21218346   0.079   3.583  16.418  0.1693 -0.0486  0.6982
  153DOPC  H12R18347   0.126   3.526  16.500  0.3007 -1.9098 -0.6057
  153DOPC  H12S18348   0.155   3.651  16.374  0.7196 -0.3653  1.1558
  153DOPC  C21318349   0.034   3.485  16.307 -0.3905 -0.2260  0.4541
  153DOPC  H13R18350  -0.035   3.405  16.340 -1.4139 -0.2384 -1.5484
  153DOPC  H13S18351   0.125   3.429  16.275  0.3619  0.9756  0.4152
  153DOPC  C21418352  -0.023   3.546  16.185  0.6002  0.2358  0.6676
  153DOPC  H14R18353   0.033   3.637  16.156  1.0623 -0.5184 -0.8863
  153DOPC  H14S18354  -0.130   3.577  16.193 -0.0242 -1.7275  0.4562
  153DOPC  C21518355  -0.028   3.446  16.063 -0.0962  0.1589 -0.5827
  153DOPC  H15R18356  -0.098   3.369  16.102 -1.5863  1.7062 -0.0706
  153DOPC  H15S18357   0.075   3.410  16.046  0.0140 -0.2972  0.9062
  153DOPC  C21618358  -0.084   3.501  15.936 -0.0528 -0.0633 -0.0553
  153DOPC  H16R18359  -0.174   3.562  15.961  0.3750 -0.4735  2.8634
  153DOPC  H16S18360  -0.124   3.418  15.874  0.5440 -0.0330 -0.4898
  153DOPC  C21718361   0.012   3.591  15.844 -0.6787 -0.7329  0.1784
  153DOPC  H17R18362   0.057   3.656  15.922 -0.6197  0.8372 -1.0986
  153DOPC  H17S18363  -0.046   3.645  15.766  0.3390 -0.4769 -0.4222
  153DOPC  C21818364   0.119   3.521  15.771  0.3570 -0.0818  0.5431
  153DOPC  H18R18365   0.180   3.597  15.718 -1.7011  1.5093  0.3536
  153DOPC  H18S18366   0.069   3.463  15.691 -2.0538  3.1438 -0.4986
  153DOPC  H18T18367   0.192   3.457  15.826  0.5715 -0.1415  0.1878
  153DOPC   C3318368  -0.498   3.946  17.485 -0.2565 -0.4010  0.6580
  153DOPC   H3X18369  -0.572   3.996  17.551 -2.4206 -0.6813 -1.4227
  153DOPC   H3Y18370  -0.500   3.836  17.502 -0.8401 -0.2910  1.4125
  153DOPC   C3418371  -0.534   3.973  17.338  0.1872 -0.0433  0.9620
  153DOPC   H4X18372  -0.534   4.084  17.327 -0.4409  0.0014  1.3612
  153DOPC   H4Y18373  -0.640   3.941  17.330  0.1308  0.0580  1.3184
  153DOPC   C3518374  -0.463   3.900  17.225 -0.2932 -0.2205 -0.1932
  153DOPC   H5X18375  -0.471   3.789  17.235 -1.8100 -0.3203 -1.9238
  153DOPC   H5Y18376  -0.359   3.940  17.231 -0.3524 -0.1200  0.2192
  153DOPC   C3618377  -0.534   3.933  17.095 -0.1706 -0.2773 -0.4743
  153DOPC   H6X18378  -0.625   3.870  17.100 -1.3245  1.4291  1.4750
  153DOPC   H6Y18379  -0.555   4.041  17.082 -0.4556 -0.3061 -0.2603
  153DOPC   C3718380  -0.452   3.878  16.978 -0.2614  0.0908 -0.5326
  153DOPC   H7X18381  -0.351   3.925  16.976  0.8501 -2.1355 -0.4682
  153DOPC   H7Y18382  -0.422   3.776  17.009  1.6579  1.5474  2.9711
  153DOPC   C3818383  -0.528   3.887  16.843 -0.0102  0.0753  0.1838
  153DOPC   H8X18384  -0.557   3.993  16.834  0.9362  0.2633 -0.9029
  153DOPC   H8Y18385  -0.620   3.825  16.847  0.5943 -0.8336  0.4433
  153DOPC   C3918386  -0.448   3.824  16.726  0.0287 -0.3408  0.7362
  153DOPC   H9X18387  -0.415   3.720  16.745  0.3940 -0.2547  0.5659
  153DOPC  C31018388  -0.442   3.860  16.596  0.2295  0.0467  0.4276
  153DOPC  H10X18389  -0.381   3.795  16.531  0.3581 -0.4040  0.9875
  153DOPC  C31118390  -0.490   3.993  16.551 -0.5992  0.2762 -1.1086
  153DOPC  H11X18391  -0.433   4.080  16.591 -2.2544  1.4626 -1.1975
  153DOPC  H11Y18392  -0.585   4.016  16.604  0.8629 -1.8338  2.8080
  153DOPC  C31218393  -0.518   4.004  16.404 -0.1305  0.2237  0.8679
  153DOPC  H12X18394  -0.577   4.093  16.375 -0.8731  0.1773  2.1925
  153DOPC  H12Y18395  -0.587   3.923  16.371 -0.1133  0.9092 -0.9710
  153DOPC  C31318396  -0.391   3.997  16.314 -0.2613 -0.3034 -1.2556
  153DOPC  H13X18397  -0.339   4.094  16.331 -2.8431  0.9729 -0.0249
  153DOPC  H13Y18398  -0.327   3.917  16.357  0.4616 -0.6471 -2.8771
  153DOPC  C31418399  -0.418   3.976  16.164  0.5574  0.5454 -0.4179
  153DOPC  H14X18400  -0.499   3.902  16.144  0.3669  0.5386  0.3194
  153DOPC  H14Y18401  -0.451   4.080  16.142 -0.7115  0.0891 -0.7409
  153DOPC  C31518402  -0.306   3.956  16.066  0.3904 -0.1881  0.0440
  153DOPC  H15X18403  -0.260   3.863  16.107 -0.1607  0.1215  1.4300
  153DOPC  H15Y18404  -0.230   4.036  16.077  0.9755 -0.2455 -2.9241
  153DOPC  C31618405  -0.356   3.939  15.924 -0.0399  0.4533 -0.8924
  153DOPC  H16X18406  -0.454   3.887  15.921 -0.6436  1.5738 -0.9683
  153DOPC  H16Y18407  -0.386   4.037  15.882 -0.8144  0.2555 -0.8115
  153DOPC  C31718408  -0.256   3.871  15.822  0.3446 -0.1571 -0.0931
  153DOPC  H17X18409  -0.162   3.929  15.821  0.7251 -0.7761 -0.9595
  153DOPC  H17Y18410  -0.231   3.771  15.863 -0.2441 -0.6289 -0.8790
  153DOPC  C31818411  -0.314   3.860  15.678  0.3770  0.1460 -0.5434
  153DOPC  H18X18412  -0.330   3.952  15.617  1.5558  1.2731  0.7704
  153DOPC  H18Y18413  -0.241   3.800  15.621  1.0395 -0.0287  0.4643
  153DOPC  H18Z18414  -0.404   3.795  15.673  1.1049 -0.8132 -2.0472
  154DOPC     N18415   1.450   0.135  18.552  0.6494 -0.1036 -0.1834
  154DOPC   C1218416   1.439   0.080  18.406  0.1263  0.6294 -0.5662
  154DOPC  H12A18417   1.507   0.129  18.337  0.8237  1.4521  0.6743
  154DOPC  H12B18418   1.338   0.109  18.380 -0.6976 -0.7023  0.9972
  154DOPC   C1318419   1.390   0.038  18.649 -0.0670  0.5780 -0.0476
  154DOPC  H13A18420   1.450  -0.052  18.645  0.0751  0.6901 -0.5342
  154DOPC  H13B18421   1.388   0.072  18.751  0.0105 -0.7758  0.4194
  154DOPC  H13C18422   1.291   0.003  18.625 -0.0570  0.0416  0.6478
  154DOPC   C1418423   1.384   0.267  18.562 -0.7745 -0.0715  0.3872
  154DOPC  H14A18424   1.389   0.314  18.660 -2.4961  0.2629  0.3424
  154DOPC  H14B18425   1.426   0.333  18.488 -0.1252 -2.2183 -1.2755
  154DOPC  H14C18426   1.277   0.254  18.554 -0.8238  0.8159 -0.6273
  154DOPC   C1518427   1.599   0.143  18.584 -0.0961  0.7900 -0.1694
  154DOPC  H15A18428   1.648   0.048  18.596 -2.1750 -0.1885  1.0513
  154DOPC  H15B18429   1.608   0.189  18.681  1.0756 -2.4802  1.4104
  154DOPC  H15C18430   1.642   0.214  18.514 -1.2586  0.5197 -1.1992
  154DOPC   C1118431   1.442  -0.075  18.371 -0.5707 -0.4104 -0.4543
  154DOPC  H11A18432   1.445  -0.095  18.261 -0.8530 -1.5399 -0.2685
  154DOPC  H11B18433   1.542  -0.109  18.406 -0.8289 -0.2406  0.4751
  154DOPC     P18434   1.193  -0.133  18.389  0.1032  0.1913  0.2595
  154DOPC   O1318435   1.136  -0.022  18.461 -0.1321 -0.4878 -0.1343
  154DOPC   O1418436   1.136  -0.262  18.415 -0.3423 -0.0391  0.2659
  154DOPC   O1218437   1.340  -0.156  18.428  0.1667 -0.1630 -0.4555
  154DOPC   O1118438   1.191  -0.110  18.234 -0.9762 -0.0672  0.3047
  154DOPC    C118439   1.236  -0.221  18.149  0.0418  0.6798  0.2104
  154DOPC    HA18440   1.172  -0.311  18.153 -2.5863  2.3885 -1.1128
  154DOPC    HB18441   1.337  -0.258  18.179 -0.8805 -1.7156  0.5713
  154DOPC    C218442   1.243  -0.163  18.004 -0.7081 -0.3544  0.0131
  154DOPC    HS18443   1.305  -0.072  18.013 -1.0488 -0.1373  0.1774
  154DOPC   O2118444   1.112  -0.137  17.954  0.3644 -0.0358  0.2375
  154DOPC   C2118445   1.105  -0.040  17.855 -0.5103  0.0127 -0.4905
  154DOPC   O2218446   1.194   0.032  17.820  0.6173  0.5748  0.0148
  154DOPC   C2218447   0.961  -0.032  17.807 -0.4694  0.0366 -0.1280
  154DOPC   H2R18448   0.908   0.008  17.895 -0.1951  0.5142 -0.1786
  154DOPC   H2S18449   0.924  -0.134  17.779 -0.6953 -0.2912  1.3036
  154DOPC    C318450   1.322  -0.270  17.914  0.0166  0.2940 -0.1938
  154DOPC    HX18451   1.262  -0.363  17.928  0.0994  0.2672 -0.0196
  154DOPC    HY18452   1.422  -0.293  17.956 -0.7215 -0.5536  1.1519
  154DOPC   O3118453   1.320  -0.243  17.771 -0.3832  0.6121 -0.2989
  154DOPC   C3118454   1.430  -0.196  17.715 -0.3194  0.5259 -0.3378
  154DOPC   O3218455   1.535  -0.180  17.776  0.0058  0.3563  0.1544
  154DOPC   C3218456   1.411  -0.157  17.572  0.7145 -0.2613  0.1019
  154DOPC   H2X18457   1.512  -0.164  17.525 -0.1193 -2.3685 -1.5676
  154DOPC   H2Y18458   1.347  -0.239  17.532  0.9094 -0.2506 -0.2389
  154DOPC   C2318459   0.937   0.065  17.682 -0.3788 -0.0928  0.2586
  154DOPC   H3R18460   0.996   0.159  17.693  0.3342 -0.6213  0.9971
  154DOPC   H3S18461   0.830   0.095  17.689 -1.1014 -2.3697 -0.1967
  154DOPC   C2418462   0.969   0.009  17.536 -0.1580 -0.1130 -0.4771
  154DOPC   H4R18463   0.916  -0.089  17.532 -1.0406  0.2608  0.8688
  154DOPC   H4S18464   1.074  -0.026  17.532 -0.5690 -1.3091 -1.5851
  154DOPC   C2518465   0.945   0.105  17.422 -0.3737  0.6059  0.0777
  154DOPC   H5R18466   1.012   0.192  17.437  0.2258  0.0135  0.9441
  154DOPC   H5S18467   0.842   0.148  17.430 -0.3116  0.4378  2.8203
  154DOPC   C2618468   0.982   0.045  17.284  0.5144  0.7889 -0.5182
  154DOPC   H6R18469   0.909  -0.034  17.260  1.6289  0.2016 -2.1108
  154DOPC   H6S18470   1.084   0.002  17.295  0.6258  0.5674 -2.2202
  154DOPC   C2718471   0.986   0.141  17.166 -0.2141 -0.1846  0.2670
  154DOPC   H7R18472   1.067   0.216  17.183 -0.1741 -0.1601 -0.0138
  154DOPC   H7S18473   0.887   0.191  17.164 -1.2975 -2.2406 -0.7307
  154DOPC   C2818474   1.007   0.077  17.030 -0.8956  0.0339 -0.0277
  154DOPC   H8R18475   0.922   0.009  17.006 -1.6506  0.9902 -0.1146
  154DOPC   H8S18476   1.096   0.010  17.027 -0.6221  0.4283 -1.6299
  154DOPC   C2918477   1.019   0.177  16.919 -0.7902 -0.3786  0.4957
  154DOPC   H9R18478   1.012   0.283  16.947 -0.2788 -0.2120  0.0181
  154DOPC  C21018479   1.049   0.141  16.790  0.5089 -0.2351 -0.3644
  154DOPC  H10R18480   1.049   0.217  16.711 -0.8377  0.4747  0.2867
  154DOPC  C21118481   1.071  -0.003  16.738 -0.1592  0.1144  0.4690
  154DOPC  H11R18482   1.062  -0.069  16.827 -0.7943 -0.7536 -0.2266
  154DOPC  H11S18483   1.178  -0.018  16.711 -0.1799 -1.6986  1.2857
  154DOPC  C21218484   0.972  -0.032  16.623 -0.0071  0.7540  0.9673
  154DOPC  H12R18485   0.865  -0.041  16.652  0.4003 -0.1953  2.2588
  154DOPC  H12S18486   1.002  -0.132  16.587 -1.4464  1.0164 -1.1729
  154DOPC  C21318487   0.985   0.055  16.499  0.0870  0.1851  0.2755
  154DOPC  H13R18488   1.089   0.078  16.469 -0.2195 -0.7279 -1.5870
  154DOPC  H13S18489   0.927   0.150  16.504 -1.6823 -0.8782  1.0453
  154DOPC  C21418490   0.930  -0.024  16.370 -0.1105 -0.5916  0.2021
  154DOPC  H14R18491   0.832  -0.073  16.389 -0.0992 -1.3754 -1.5752
  154DOPC  H14S18492   0.999  -0.106  16.340 -0.9564 -0.9458 -0.8349
  154DOPC  C21518493   0.898   0.065  16.249  0.4316 -0.1818  0.7707
  154DOPC  H15R18494   0.985   0.125  16.216  1.5052 -0.2429  3.2515
  154DOPC  H15S18495   0.814   0.131  16.275 -1.9108 -1.0502 -3.7219
  154DOPC  C21618496   0.835  -0.016  16.133  0.3812  0.1005 -0.0617
  154DOPC  H16R18497   0.771   0.048  16.070 -0.8202  0.8719  1.8474
  154DOPC  H16S18498   0.760  -0.089  16.171 -0.0414 -0.7357 -2.3610
  154DOPC  C21718499   0.947  -0.091  16.049  0.7216  0.5717  0.0079
  154DOPC  H17R18500   0.993  -0.172  16.110 -0.3419  0.8131  1.1780
  154DOPC  H17S18501   1.021  -0.018  16.011 -0.7967  0.5384 -3.4523
  154DOPC  C21818502   0.882  -0.140  15.920 -0.4807  0.3512 -0.2943
  154DOPC  H18R18503   0.947  -0.188  15.845  0.1442  1.6806 -0.6375
  154DOPC  H18S18504   0.832  -0.055  15.869 -0.8541  1.0546  1.1752
  154DOPC  H18T18505   0.799  -0.212  15.941  0.0350  0.7312  4.0917
  154DOPC   C3318506   1.360  -0.014  17.548 -0.4850 -0.3832 -0.1066
  154DOPC   H3X18507   1.427   0.053  17.606 -1.9835  2.3796 -1.3410
  154DOPC   H3Y18508   1.256   0.013  17.578  0.1919  0.7091  1.4394
  154DOPC   C3418509   1.387   0.034  17.406 -0.2273  0.0807  0.4122
  154DOPC   H4X18510   1.329  -0.025  17.332  0.0451  0.8609 -0.4392
  154DOPC   H4Y18511   1.494   0.012  17.387 -0.0934  1.5386 -0.6675
  154DOPC   C3518512   1.372   0.184  17.396 -0.0589 -0.1295 -0.1903
  154DOPC   H5X18513   1.447   0.244  17.452 -0.5771 -0.0212  0.4126
  154DOPC   H5Y18514   1.277   0.208  17.449 -0.6666 -2.0560 -0.3200
  154DOPC   C3618515   1.358   0.245  17.257  0.4336  0.1079 -0.9140
  154DOPC   H6X18516   1.290   0.178  17.199  0.4998  0.3992 -1.3324
  154DOPC   H6Y18517   1.313   0.345  17.274  0.7691  0.0625  0.3350
  154DOPC   C3718518   1.499   0.251  17.197  0.0803  0.2329 -0.1172
  154DOPC   H7X18519   1.574   0.295  17.266  3.7089 -0.0751 -3.4621
  154DOPC   H7Y18520   1.537   0.150  17.170  1.0739  1.3842 -3.5599
  154DOPC   C3818521   1.497   0.329  17.064 -0.0224 -0.1667  0.5379
  154DOPC   H8X18522   1.605   0.339  17.042 -0.1667  1.7136  0.5659
  154DOPC   H8Y18523   1.459   0.431  17.087  0.2841 -0.3074  1.7548
  154DOPC   C3918524   1.418   0.261  16.946 -0.6346 -0.5891 -0.7384
  154DOPC   H9X18525   1.316   0.237  16.980 -0.1494  2.2053  3.5519
  154DOPC  C31018526   1.455   0.226  16.829  0.5546 -0.3639 -0.1224
  154DOPC  H10X18527   1.380   0.189  16.757  0.7102  1.1748 -1.1104
  154DOPC  C31118528   1.589   0.250  16.773 -0.6636 -0.2405  0.4699
  154DOPC  H11X18529   1.656   0.162  16.788  1.7925  1.5332  0.5035
  154DOPC  H11Y18530   1.646   0.337  16.811 -2.8139  1.0170  0.9914
  154DOPC  C31218531   1.575   0.255  16.622 -0.7028 -0.3193 -0.2289
  154DOPC  H12X18532   1.532   0.158  16.591 -0.4271 -1.1355  1.7962
  154DOPC  H12Y18533   1.672   0.249  16.568 -0.4109 -3.1953  0.4256
  154DOPC  C31318534   1.502   0.377  16.568 -0.2500  0.4633  0.4496
  154DOPC  H13X18535   1.392   0.372  16.587 -0.7374  1.6822 -1.6588
  154DOPC  H13Y18536   1.538   0.473  16.612  2.2793 -0.3192  0.2339
  154DOPC  C31418537   1.503   0.400  16.423  0.0390  0.2882 -0.2717
  154DOPC  H14X18538   1.447   0.493  16.396 -1.4501 -0.9895 -1.8649
  154DOPC  H14Y18539   1.610   0.410  16.395  0.3332 -0.0996  0.6732
  154DOPC  C31518540   1.437   0.289  16.342 -0.2632 -0.0424  1.0688
  154DOPC  H15X18541   1.326   0.296  16.347 -0.2686 -0.4509  1.6890
  154DOPC  H15Y18542   1.473   0.187  16.371 -1.4461 -1.4025 -1.8937
  154DOPC  C31618543   1.485   0.299  16.192  0.4762 -0.3972  0.0570
  154DOPC  H16X18544   1.460   0.398  16.149 -3.3719 -1.4733 -0.6047
  154DOPC  H16Y18545   1.595   0.287  16.194  0.6832  0.0987 -3.0783
  154DOPC  C31718546   1.422   0.198  16.093 -0.0116 -0.4619  0.2958
  154DOPC  H17X18547   1.429   0.095  16.135 -0.5782 -0.8636 -0.5582
  154DOPC  H17Y18548   1.317   0.234  16.089 -0.5605 -2.0339 -0.0947
  154DOPC  C31818549   1.501   0.205  15.960  0.9354 -0.7417 -0.2488
  154DOPC  H18X18550   1.608   0.194  15.988  0.6060 -2.0271  0.5976
  154DOPC  H18Y18551   1.475   0.116  15.899  0.8255 -1.1007  0.3160
  154DOPC  H18Z18552   1.482   0.297  15.900 -0.3048 -1.9754 -1.8595
  155DOPC     N18553   3.909   5.144  18.051  0.1017  0.6693 -0.5373
  155DOPC   C1218554   3.775   5.084  18.003 -0.5525 -0.2449 -0.6957
  155DOPC  H12A18555   3.720   5.085  18.096  1.0399  1.5682  0.2887
  155DOPC  H12B18556   3.792   4.983  17.969  1.1208  0.3821 -1.8227
  155DOPC   C1318557   4.002   5.178  17.936 -0.1662  0.4160  0.1409
  155DOPC  H13A18558   3.948   5.245  17.870 -2.3421 -2.6605 -1.4530
  155DOPC  H13B18559   4.092   5.226  17.972  1.2976 -0.3866 -2.2845
  155DOPC  H13C18560   4.028   5.090  17.879 -0.2576  1.6120 -1.8136
  155DOPC   C1418561   3.981   5.054  18.150  0.0091 -0.6092 -0.1424
  155DOPC  H14A18562   4.077   5.094  18.177 -0.5365  0.3017  0.5160
  155DOPC  H14B18563   3.919   5.045  18.238 -0.4863  1.3899 -0.2225
  155DOPC  H14C18564   3.987   4.958  18.102 -4.1361 -1.4779  0.6923
  155DOPC   C1518565   3.888   5.278  18.117 -0.7858 -0.0892  0.0598
  155DOPC  H15A18566   3.863   5.255  18.219  0.3430 -1.0806  0.1438
  155DOPC  H15B18567   3.806   5.333  18.075 -1.4922 -1.3677 -0.2786
  155DOPC  H15C18568   3.979   5.335  18.129 -0.6473  0.0380 -1.3832
  155DOPC   C1118569   3.685   5.160  17.909 -0.1002  0.2570 -0.6375
  155DOPC  H11A18570   3.744   5.188  17.819  2.5266  2.3987  1.5681
  155DOPC  H11B18571   3.609   5.085  17.877  0.8274  0.0402 -2.5321
  155DOPC     P18572   3.474   5.310  17.958 -0.0231  0.1447  0.0019
  155DOPC   O1318573   3.448   5.409  18.062 -0.1595  0.2552 -0.3984
  155DOPC   O1418574   3.393   5.185  17.960 -0.1311  0.5950  0.1909
  155DOPC   O1218575   3.635   5.282  17.967 -0.9019 -0.7500 -0.3037
  155DOPC   O1118576   3.461   5.371  17.812  0.0157  0.1179 -0.4083
  155DOPC    C118577   3.344   5.346  17.733  0.4621 -0.5102 -0.4434
  155DOPC    HA18578   3.284   5.439  17.727  1.2456 -0.0912 -2.4380
  155DOPC    HB18579   3.271   5.269  17.767  0.5685 -0.2882  0.2980
  155DOPC    C218580   3.395   5.319  17.595 -0.0536 -0.2275  0.1347
  155DOPC    HS18581   3.427   5.214  17.580 -0.5577 -0.1708 -1.6168
  155DOPC   O2118582   3.499   5.416  17.559 -0.0241 -0.4890  0.1019
  155DOPC   C2118583   3.622   5.360  17.557 -0.0682  0.3940 -0.0301
  155DOPC   O2218584   3.653   5.247  17.589 -0.4076 -0.4006  0.4690
  155DOPC   C2218585   3.731   5.454  17.489  0.3606  0.0062 -0.4220
  155DOPC   H2R18586   3.805   5.487  17.565  0.7834 -0.5032 -0.6072
  155DOPC   H2S18587   3.678   5.540  17.444  2.2233  1.4903  0.1119
  155DOPC    C318588   3.275   5.335  17.498  0.2783 -0.3289 -0.0014
  155DOPC    HX18589   3.247   5.440  17.475 -0.7301 -1.0612 -2.4527
  155DOPC    HY18590   3.190   5.277  17.540  0.9447 -0.8479  0.6477
  155DOPC   O3118591   3.312   5.281  17.374 -0.6393  0.3633  0.2388
  155DOPC   C3118592   3.214   5.286  17.285 -0.6475 -0.3242 -0.3551
  155DOPC   O3218593   3.102   5.327  17.306 -0.1491  0.3666  0.1430
  155DOPC   C3218594   3.262   5.228  17.152 -0.5046  0.2696  0.1559
  155DOPC   H2X18595   3.367   5.259  17.137 -0.3802  0.7097  1.7502
  155DOPC   H2Y18596   3.260   5.119  17.171  0.2582  0.3937  1.0282
  155DOPC   C2318597   3.814   5.371  17.386  0.9592  0.3538 -0.4199
  155DOPC   H3R18598   3.861   5.283  17.435 -1.5819  0.1189  1.7821
  155DOPC   H3S18599   3.900   5.434  17.355  1.7227  1.4694  3.4963
  155DOPC   C2418600   3.731   5.333  17.258 -0.1805  0.0233  0.1946
  155DOPC   H4R18601   3.631   5.294  17.287 -0.5335  0.1291 -0.8417
  155DOPC   H4S18602   3.786   5.250  17.208 -0.1222 -0.2319  0.6797
  155DOPC   C2518603   3.733   5.437  17.154  0.0074  0.4685 -0.1499
  155DOPC   H5R18604   3.833   5.476  17.126 -0.6740  2.1904 -0.3134
  155DOPC   H5S18605   3.684   5.528  17.195  1.2049  0.4318  1.4212
  155DOPC   C2618606   3.667   5.405  17.018  0.0997  0.0545 -0.1405
  155DOPC   H6R18607   3.562   5.372  17.034  0.9549 -1.4942  3.1130
  155DOPC   H6S18608   3.723   5.319  16.976  0.7069  0.0968  0.5663
  155DOPC   C2718609   3.676   5.525  16.923 -0.0790  0.5491  0.3668
  155DOPC   H7R18610   3.783   5.550  16.906  0.3327 -1.6440 -0.5422
  155DOPC   H7S18611   3.633   5.621  16.961  0.9133  0.9743  0.4404
  155DOPC   C2818612   3.611   5.491  16.786 -0.0440 -0.5846 -0.3866
  155DOPC   H8R18613   3.504   5.470  16.809 -0.2812  0.0000 -0.9449
  155DOPC   H8S18614   3.662   5.402  16.744 -1.2749 -1.0319 -1.0147
  155DOPC   C2918615   3.608   5.607  16.694  0.3209 -0.0745 -0.1031
  155DOPC   H9R18616   3.632   5.701  16.746  1.1833  0.5465 -1.5676
  155DOPC  C21018617   3.579   5.605  16.558 -0.3259  0.1610  0.7159
  155DOPC  H10R18618   3.581   5.694  16.495  0.3263 -0.2928  0.0820
  155DOPC  C21118619   3.550   5.485  16.471  0.1477 -0.5546  0.0534
  155DOPC  H11R18620   3.442   5.491  16.445  0.1089 -0.0788  0.3176
  155DOPC  H11S18621   3.568   5.399  16.539 -1.5292  2.2497  4.4910
  155DOPC  C21218622   3.640   5.469  16.338  0.3749  0.4186  0.0529
  155DOPC  H12R18623   3.678   5.365  16.342 -0.5783 -0.0284 -1.5366
  155DOPC  H12S18624   3.728   5.537  16.341 -1.0236  2.3930 -0.9183
  155DOPC  C21318625   3.559   5.491  16.211 -0.4243  0.3871 -0.5153
  155DOPC  H13R18626   3.491   5.578  16.223  0.6968  1.1253  0.7594
  155DOPC  H13S18627   3.492   5.402  16.208 -1.9356  1.3338  2.0905
  155DOPC  C21418628   3.645   5.502  16.089 -0.6129 -0.3166  0.0603
  155DOPC  H14R18629   3.715   5.417  16.108 -0.2104 -0.2328 -0.9777
  155DOPC  H14S18630   3.708   5.593  16.081 -0.4743 -0.3332  0.9041
  155DOPC  C21518631   3.565   5.476  15.961 -0.5035 -0.0841  0.0525
  155DOPC  H15R18632   3.506   5.567  15.939  0.4204  0.7552  0.9374
  155DOPC  H15S18633   3.488   5.398  15.978 -0.9439  0.7401  2.1791
  155DOPC  C21618634   3.655   5.440  15.841 -0.0361 -0.0742 -0.7070
  155DOPC  H16R18635   3.578   5.429  15.762 -1.3974 -3.0101  0.8467
  155DOPC  H16S18636   3.693   5.338  15.862 -4.0267 -1.0870  2.8722
  155DOPC  C21718637   3.756   5.551  15.804 -0.2160 -0.0397  0.2672
  155DOPC  H17R18638   3.813   5.513  15.717 -1.7922 -1.5821 -0.1672
  155DOPC  H17S18639   3.826   5.561  15.890 -0.8065 -1.4449  0.9545
  155DOPC  C21818640   3.707   5.683  15.753 -0.1968  0.4238 -0.1370
  155DOPC  H18R18641   3.632   5.666  15.672  1.3679  0.5372 -1.6685
  155DOPC  H18S18642   3.795   5.743  15.721  0.6718 -1.3095 -1.1563
  155DOPC  H18T18643   3.667   5.735  15.843 -0.7907 -0.2799  0.0185
  155DOPC   C3318644   3.178   5.268  17.033 -0.1901  0.0194 -0.7166
  155DOPC   H3X18645   3.163   5.377  17.050 -1.5855 -0.4730  1.5835
  155DOPC   H3Y18646   3.078   5.219  17.037  0.1167 -0.6434 -0.9495
  155DOPC   C3418647   3.232   5.228  16.898 -0.9776 -0.1906 -0.3137
  155DOPC   H4X18648   3.235   5.118  16.887 -3.0415 -0.1593 -1.7896
  155DOPC   H4Y18649   3.331   5.275  16.878 -0.9519 -0.2039 -0.2200
  155DOPC   C3518650   3.138   5.274  16.782  0.0416 -0.7440 -0.4614
  155DOPC   H5X18651   3.123   5.384  16.786  0.1396 -0.7468  0.0452
  155DOPC   H5Y18652   3.040   5.225  16.799 -0.0069  0.1819  2.6272
  155DOPC   C3618653   3.189   5.241  16.640  0.3890  0.2003  0.1258
  155DOPC   H6X18654   3.292   5.282  16.633 -0.1920  1.5123 -1.4857
  155DOPC   H6Y18655   3.191   5.131  16.619  0.3110 -0.2187  2.1832
  155DOPC   C3718656   3.113   5.319  16.528 -0.0786  1.3588  0.4518
  155DOPC   H7X18657   3.014   5.272  16.509  0.6995 -0.2016  0.0724
  155DOPC   H7Y18658   3.113   5.423  16.567  1.0537  1.4650  0.2139
  155DOPC   C3818659   3.188   5.313  16.395  0.9302 -0.2978  0.7248
  155DOPC   H8X18660   3.169   5.218  16.341  2.4429 -0.0707 -0.2674
  155DOPC   H8Y18661   3.298   5.313  16.414  0.8072 -0.0343  1.4763
  155DOPC   C3918662   3.139   5.431  16.319  0.0153 -0.0518  0.3678
  155DOPC   H9X18663   3.103   5.522  16.370  0.5218 -0.0605  0.7522
  155DOPC  C31018664   3.112   5.421  16.186  0.6795  0.0028  0.8657
  155DOPC  H10X18665   3.077   5.517  16.147 -0.8851 -0.2251  1.6137
  155DOPC  C31118666   3.142   5.307  16.096 -0.1786  0.3835  0.0534
  155DOPC  H11X18667   3.087   5.219  16.133 -0.5184 -0.3299 -2.0394
  155DOPC  H11Y18668   3.251   5.284  16.097 -0.6692 -2.6308 -2.5134
  155DOPC  C31218669   3.107   5.338  15.944  0.0589 -0.1537 -0.7351
  155DOPC  H12X18670   2.997   5.352  15.933 -0.7549 -3.4554  1.6246
  155DOPC  H12Y18671   3.140   5.248  15.888 -2.4768 -2.0261  0.5410
  155DOPC  C31318672   3.173   5.465  15.884  0.3266 -0.4052 -0.4315
  155DOPC  H13X18673   3.129   5.551  15.939 -1.0195 -1.4516  0.1755
  155DOPC  H13Y18674   3.281   5.466  15.910  1.1447  1.9271 -3.2839
  155DOPC  C31418675   3.139   5.469  15.733 -0.5135  0.2401 -1.1261
  155DOPC  H14X18676   3.186   5.375  15.698  0.6111 -0.5783  2.2619
  155DOPC  H14Y18677   3.029   5.459  15.721 -0.4305 -0.3523 -1.4248
  155DOPC  C31518678   3.191   5.586  15.642 -0.2380 -0.0464 -0.4427
  155DOPC  H15X18679   3.285   5.568  15.586  0.7122  0.8185  0.8494
  155DOPC  H15Y18680   3.203   5.679  15.701 -1.5110 -0.1293 -0.0228
  155DOPC  C31618681   3.092   5.622  15.532 -0.0449  0.6319  0.1214
  155DOPC  H16X18682   3.074   5.538  15.461 -2.1529 -0.2535  1.5788
  155DOPC  H16Y18683   2.996   5.656  15.578 -0.0715  2.0920 -0.9626
  155DOPC  C31718684   3.148   5.742  15.450 -0.2607  0.6497  0.1247
  155DOPC  H17X18685   3.173   5.822  15.523 -1.7693  0.3548  1.0107
  155DOPC  H17Y18686   3.240   5.708  15.397 -1.3921 -0.8119 -0.9882
  155DOPC  C31818687   3.055   5.804  15.345  0.7656 -0.4761 -0.3146
  155DOPC  H18X18688   3.089   5.905  15.314  1.1749  0.0479  1.7025
  155DOPC  H18Y18689   3.039   5.735  15.260 -1.9970  0.4286 -0.6589
  155DOPC  H18Z18690   2.956   5.828  15.391  0.6696 -0.9437 -0.2659
  156DOPC     N18691   0.913   1.134  18.144  1.0546 -0.1004 -0.8020
  156DOPC   C1218692   1.002   1.162  18.261  0.2733 -0.4924 -0.0429
  156DOPC  H12A18693   0.955   1.140  18.356  2.0008 -0.8155  0.7749
  156DOPC  H12B18694   1.037   1.264  18.255 -0.1753 -0.2700  1.0390
  156DOPC   C1318695   0.889   0.989  18.134  0.0043  0.0785 -0.2048
  156DOPC  H13A18696   0.839   0.963  18.041  1.1290 -0.1949 -0.7517
  156DOPC  H13B18697   0.979   0.929  18.139  0.2135  0.4456  0.4939
  156DOPC  H13C18698   0.830   0.956  18.218 -1.9460  2.7437 -0.4101
  156DOPC   C1418699   0.964   1.187  18.016  0.6454  0.3381 -0.3875
  156DOPC  H14A18700   0.977   1.294  18.028 -0.4632  0.3367  1.1827
  156DOPC  H14B18701   1.060   1.146  17.988  0.5947  0.8075 -1.2906
  156DOPC  H14C18702   0.899   1.170  17.932  2.4904 -1.0274 -1.6146
  156DOPC   C1518703   0.778   1.194  18.181  0.7418  0.3149  0.3887
  156DOPC  H15A18704   0.801   1.298  18.170  3.1880 -0.2037  0.1826
  156DOPC  H15B18705   0.751   1.160  18.280 -1.1993  3.2261  1.0013
  156DOPC  H15C18706   0.692   1.162  18.123  0.6081 -0.1386  0.8281
  156DOPC   C1118707   1.131   1.075  18.279 -0.3387  0.8373 -0.0799
  156DOPC  H11A18708   1.190   1.111  18.366  1.9400  1.1225 -1.6466
  156DOPC  H11B18709   1.102   0.970  18.300 -0.9800  1.1595  0.6913
  156DOPC     P18710   1.351   1.121  18.137  0.4211  0.1079 -0.1854
  156DOPC   O1318711   1.438   1.006  18.167 -0.0295  0.3446 -0.0609
  156DOPC   O1418712   1.378   1.239  18.225  0.4325  0.9453  0.0550
  156DOPC   O1218713   1.202   1.078  18.154 -0.2334 -0.0311 -0.0162
  156DOPC   O1118714   1.368   1.161  17.982 -0.3323 -0.0056  0.8274
  156DOPC    C118715   1.348   1.294  17.937  0.1033 -0.1674  0.4175
  156DOPC    HA18716   1.407   1.370  17.992  0.7854  0.7539 -1.4888
  156DOPC    HB18717   1.241   1.322  17.945 -0.5350 -1.9847 -0.9443
  156DOPC    C218718   1.403   1.320  17.788  0.6951 -1.0328 -0.4385
  156DOPC    HS18719   1.362   1.418  17.758  0.3404 -0.5741  1.3833
  156DOPC   O2118720   1.362   1.220  17.704  0.0085 -0.6999  0.9114
  156DOPC   C2118721   1.233   1.221  17.672 -0.2827 -0.2486  0.0204
  156DOPC   O2218722   1.150   1.313  17.693 -0.8659 -0.2478 -0.3558
  156DOPC   C2218723   1.181   1.092  17.600 -0.6185  0.3814  0.2514
  156DOPC   H2R18724   1.215   1.000  17.652 -0.3496 -0.7753 -1.8628
  156DOPC   H2S18725   1.215   1.102  17.495 -1.5953  1.6669  0.0246
  156DOPC    C318726   1.556   1.321  17.784 -0.2721 -0.0284  0.1084
  156DOPC    HX18727   1.597   1.227  17.827 -0.5511  0.4353  1.4531
  156DOPC    HY18728   1.589   1.411  17.841 -2.1211  0.3306  0.6709
  156DOPC   O3118729   1.602   1.346  17.648  0.6859  0.3400 -0.2607
  156DOPC   C3118730   1.624   1.234  17.574 -0.3181 -0.1662  0.2573
  156DOPC   O3218731   1.610   1.120  17.608  0.4570  0.4236 -0.2763
  156DOPC   C3218732   1.664   1.267  17.430  0.3237 -0.1992 -0.3320
  156DOPC   H2X18733   1.698   1.372  17.429  0.9032 -0.3812  0.1790
  156DOPC   H2Y18734   1.751   1.204  17.403 -0.2263 -1.4175  0.6301
  156DOPC   C2318735   1.032   1.087  17.609  0.3077  0.0203  0.1764
  156DOPC   H3R18736   0.985   1.174  17.558 -0.1993  0.7150  1.7631
  156DOPC   H3S18737   1.011   1.105  17.717  1.7308  0.5673  0.3905
  156DOPC   C2418738   0.954   0.959  17.564 -0.4958 -0.4457  0.0374
  156DOPC   H4R18739   0.855   0.948  17.612 -0.6803 -1.3958 -0.5356
  156DOPC   H4S18740   1.022   0.881  17.606 -2.1815 -1.8455  0.3072
  156DOPC   C2518741   0.945   0.934  17.412 -0.2676 -0.3390 -0.2579
  156DOPC   H5R18742   0.894   0.836  17.400 -0.3394 -0.1104 -2.2346
  156DOPC   H5S18743   1.054   0.948  17.392  0.1706 -0.7310  1.6612
  156DOPC   C2618744   0.876   1.041  17.336  0.1854 -0.2980 -0.0320
  156DOPC   H6R18745   0.929   1.139  17.338  1.8364 -1.1556 -0.6927
  156DOPC   H6S18746   0.777   1.064  17.381 -0.9607 -0.9322 -2.0879
  156DOPC   C2718747   0.851   1.011  17.192 -0.0999 -0.0298  0.3963
  156DOPC   H7R18748   0.811   1.099  17.139 -0.6339 -0.5444 -0.0737
  156DOPC   H7S18749   0.783   0.923  17.184 -0.6343  0.4064  0.1235
  156DOPC   C2818750   0.977   0.971  17.110  0.6940 -0.0122  0.2694
  156DOPC   H8R18751   0.944   0.915  17.020  0.8550  2.8788 -1.7186
  156DOPC   H8S18752   1.042   0.898  17.163  0.2472 -0.2677  0.4707
  156DOPC   C2918753   1.071   1.086  17.076  0.9528  0.3739  0.2509
  156DOPC   H9R18754   1.102   1.152  17.158 -1.0805  1.0941  0.5003
  156DOPC  C21018755   1.126   1.096  16.955  0.3749  0.0420 -0.5812
  156DOPC  H10R18756   1.175   1.193  16.942  0.4836  0.1988  0.7875
  156DOPC  C21118757   1.108   1.014  16.831 -0.6199  0.5346 -0.1985
  156DOPC  H11R18758   1.069   0.915  16.862  0.9445 -0.5971 -1.6901
  156DOPC  H11S18759   1.209   1.000  16.787  0.8665  3.0991  2.0583
  156DOPC  C21218760   1.012   1.074  16.730  0.3217  0.5284  0.1573
  156DOPC  H12R18761   1.016   1.183  16.711 -0.3720  0.4581 -0.4592
  156DOPC  H12S18762   0.912   1.047  16.771  0.6760 -0.3324  0.4893
  156DOPC  C21318763   1.021   1.002  16.593 -0.2968  0.1144  0.0235
  156DOPC  H13R18764   1.026   0.891  16.605  0.3812 -0.0044 -1.1670
  156DOPC  H13S18765   1.125   1.019  16.557  0.6059 -0.5353  2.1600
  156DOPC  C21418766   0.916   1.045  16.495  0.6515 -0.4866  0.2323
  156DOPC  H14R18767   0.909   1.155  16.491 -2.6241 -0.6183 -0.3952
  156DOPC  H14S18768   0.818   1.003  16.525 -0.0709  0.3072 -0.9567
  156DOPC  C21518769   0.953   1.002  16.351  0.4770  0.1647  0.0825
  156DOPC  H15R18770   0.878   1.037  16.277  0.4269 -1.8883 -0.9065
  156DOPC  H15S18771   0.958   0.892  16.341  1.7377  0.2833 -0.9166
  156DOPC  C21618772   1.090   1.058  16.295  0.4158 -0.7620 -0.4613
  156DOPC  H16R18773   1.176   1.019  16.353 -1.1540 -1.5045  1.4550
  156DOPC  H16S18774   1.087   1.166  16.322  1.5771 -1.2374  1.8210
  156DOPC  C21718775   1.093   1.051  16.144 -0.1761 -1.0142  0.3113
  156DOPC  H17R18776   1.003   1.098  16.098 -0.1429 -0.0426  1.2072
  156DOPC  H17S18777   1.105   0.946  16.108  1.4539 -1.3048  1.6130
  156DOPC  C21818778   1.205   1.139  16.088 -0.3831 -0.0054  0.0755
  156DOPC  H18R18779   1.183   1.158  15.981 -0.1485 -1.4545 -0.2528
  156DOPC  H18S18780   1.303   1.086  16.089  0.0043  0.7069  0.5800
  156DOPC  H18T18781   1.222   1.239  16.134  4.4956  0.0708 -1.2574
  156DOPC   C3318782   1.552   1.256  17.324  0.0617  0.2669 -1.0155
  156DOPC   H3X18783   1.474   1.332  17.348  0.9095  0.6924  0.5313
  156DOPC   H3Y18784   1.509   1.156  17.346 -0.1541  0.2822 -1.3497
  156DOPC   C3418785   1.608   1.268  17.182 -0.1489  0.0317 -0.0441
  156DOPC   H4X18786   1.690   1.194  17.170  1.7594  2.2699 -2.0176
  156DOPC   H4Y18787   1.652   1.370  17.185  0.1828 -0.0428 -1.6252
  156DOPC   C3518788   1.501   1.265  17.073  0.3474 -0.0041  0.4695
  156DOPC   H5X18789   1.462   1.368  17.068  5.1674  2.0536 -2.5183
  156DOPC   H5Y18790   1.424   1.187  17.090 -1.1358  1.4194  0.5577
  156DOPC   C3618791   1.572   1.250  16.937  0.0743 -0.5620  0.0363
  156DOPC   H6X18792   1.650   1.328  16.927 -0.0698 -0.4850 -0.4900
  156DOPC   H6Y18793   1.638   1.162  16.952  1.1337  0.0115 -1.1062
  156DOPC   C3718794   1.472   1.242  16.826  0.0201  0.0911  0.2667
  156DOPC   H7X18795   1.387   1.182  16.865 -0.4643  0.7241  0.1821
  156DOPC   H7Y18796   1.432   1.343  16.806  1.9086  0.8999  0.3358
  156DOPC   C3818797   1.527   1.181  16.694  0.5738 -0.0222 -0.9259
  156DOPC   H8X18798   1.559   1.076  16.711  0.8356  0.0124 -1.2040
  156DOPC   H8Y18799   1.616   1.245  16.677 -0.5585  1.6694 -0.7249
  156DOPC   C3918800   1.416   1.192  16.589  0.0767  0.0056 -0.0576
  156DOPC   H9X18801   1.320   1.147  16.618  0.4307 -2.1648 -1.9806
  156DOPC  C31018802   1.430   1.245  16.466  0.4563 -0.3898 -0.0328
  156DOPC  H10X18803   1.341   1.241  16.401 -1.2838 -1.6829  2.2686
  156DOPC  C31118804   1.557   1.307  16.406 -0.4138  0.4742  0.3112
  156DOPC  H11X18805   1.621   1.337  16.492 -1.1852  2.6688  0.1904
  156DOPC  H11Y18806   1.539   1.402  16.352  0.8927  1.3414  1.3225
  156DOPC  C31218807   1.630   1.200  16.321  0.3064  0.1120  0.0597
  156DOPC  H12X18808   1.624   1.103  16.373 -2.4413 -0.0844 -0.4612
  156DOPC  H12Y18809   1.735   1.235  16.312 -0.0796  1.1715 -0.5169
  156DOPC  C31318810   1.571   1.196  16.174 -0.4712 -0.0278  0.2158
  156DOPC  H13X18811   1.594   1.091  16.145 -3.2908 -1.5528  2.9564
  156DOPC  H13Y18812   1.461   1.197  16.186 -0.7937  1.8149 -2.0462
  156DOPC  C31418813   1.625   1.302  16.075  0.4270 -0.4713  0.0032
  156DOPC  H14X18814   1.612   1.404  16.118  0.3949  0.3128 -1.7623
  156DOPC  H14Y18815   1.732   1.270  16.073 -0.1073 -2.3071 -0.1179
  156DOPC  C31518816   1.558   1.302  15.936 -0.1088 -0.1806 -0.0149
  156DOPC  H15X18817   1.601   1.376  15.865  0.2998 -0.8395 -0.4600
  156DOPC  H15Y18818   1.450   1.319  15.952 -0.3778  0.3887 -2.1391
  156DOPC  C31618819   1.564   1.168  15.872 -0.3513  0.0588  0.1455
  156DOPC  H16X18820   1.670   1.143  15.852 -0.4736  0.7553 -1.4719
  156DOPC  H16Y18821   1.527   1.091  15.943 -1.2938  2.9167  3.0509
  156DOPC  C31718822   1.495   1.163  15.737  0.0529 -0.3011 -0.6386
  156DOPC  H17X18823   1.387   1.191  15.731 -0.2494 -1.6746 -2.3827
  156DOPC  H17Y18824   1.555   1.224  15.667 -0.3114  1.2214  0.3228
  156DOPC  C31818825   1.486   1.022  15.683 -0.6811  0.6220 -0.1031
  156DOPC  H18X18826   1.414   0.960  15.740  0.8307 -0.9526  0.1839
  156DOPC  H18Y18827   1.469   1.014  15.573 -2.0716  0.2389  0.1261
  156DOPC  H18Z18828   1.583   0.971  15.704 -0.2206  1.2195 -0.7145
  157DOPC     N18829   6.145   5.721  18.836 -0.0391 -0.0414 -0.1752
  157DOPC   C1218830   6.106   5.764  18.701 -0.0737 -0.2883  0.2611
  157DOPC  H12A18831   6.059   5.861  18.704  0.2141 -0.1755  2.2612
  157DOPC  H12B18832   6.040   5.689  18.660  0.7495 -1.3676  0.8745
  157DOPC   C1318833   6.037   5.737  18.937  0.4400  0.5618  0.1980
  157DOPC  H13A18834   6.054   5.698  19.036  0.2000  0.7209  0.3011
  157DOPC  H13B18835   5.994   5.836  18.945 -2.5903 -0.7251  1.1161
  157DOPC  H13C18836   5.947   5.687  18.905  0.1246  1.9980 -1.3125
  157DOPC   C1418837   6.267   5.796  18.883 -0.0138 -0.2526 -0.3316
  157DOPC  H14A18838   6.239   5.900  18.898  4.3591  0.9239  1.1257
  157DOPC  H14B18839   6.307   5.766  18.978 -1.2298  1.8132  0.9082
  157DOPC  H14C18840   6.340   5.789  18.803  0.2193  0.4649 -0.1917
  157DOPC   C1518841   6.181   5.578  18.821 -0.1519  0.1947  0.1773
  157DOPC  H15A18842   6.237   5.552  18.732  0.8592 -0.1524  0.9044
  157DOPC  H15B18843   6.092   5.520  18.803  1.7177 -3.3609  1.5144
  157DOPC  H15C18844   6.240   5.529  18.896  1.5072 -1.3260 -1.9987
  157DOPC   C1118845   6.218   5.774  18.588 -0.1774  0.7301  0.1919
  157DOPC  H11A18846   6.264   5.673  18.582 -1.0382  0.3334  0.1505
  157DOPC  H11B18847   6.169   5.784  18.488  0.9658  0.6186 -0.4015
  157DOPC     P18848   6.467   5.870  18.582  0.1396  0.1132 -0.3177
  157DOPC   O1318849   6.519   5.733  18.614  0.0337 -0.0518 -0.1283
  157DOPC   O1418850   6.538   5.981  18.643  0.1080  0.0190 -0.7140
  157DOPC   O1218851   6.313   5.884  18.603  0.0451 -0.3342  0.0920
  157DOPC   O1118852   6.479   5.890  18.426 -0.2303  0.3447 -0.0358
  157DOPC    C118853   6.470   5.781  18.330  0.7407 -0.3124  0.0405
  157DOPC    HA18854   6.384   5.720  18.364 -1.4263  2.5282  0.0241
  157DOPC    HB18855   6.560   5.715  18.326 -0.7056 -2.3288 -1.2499
  157DOPC    C218856   6.441   5.832  18.187 -0.3828  0.0251 -0.6803
  157DOPC    HS18857   6.402   5.752  18.121 -1.0034 -0.5863  0.4121
  157DOPC   O2118858   6.559   5.898  18.127 -0.2299 -0.3703 -0.3376
  157DOPC   C2118859   6.640   5.813  18.059 -0.4453 -0.6447  0.0634
  157DOPC   O2218860   6.628   5.694  18.041 -0.7380 -0.0063 -0.4508
  157DOPC   C2218861   6.741   5.903  17.999 -0.2670 -0.5027 -0.7383
  157DOPC   H2R18862   6.826   5.838  17.967 -0.0038 -0.2156 -0.6339
  157DOPC   H2S18863   6.784   5.973  18.074 -0.4464  0.2795 -1.3502
  157DOPC    C318864   6.326   5.938  18.187  0.2106 -0.1095 -0.4080
  157DOPC    HX18865   6.369   6.016  18.254 -0.5621 -0.8695  1.0222
  157DOPC    HY18866   6.239   5.894  18.240 -0.8459 -0.4569 -2.3303
  157DOPC   O3118867   6.299   5.984  18.051  0.0204  0.3657  0.0923
  157DOPC   C3118868   6.352   6.100  18.010  0.1669 -0.1212 -0.2315
  157DOPC   O3218869   6.433   6.171  18.075 -0.2429 -0.4067 -0.2539
  157DOPC   C3218870   6.291   6.141  17.878  0.3351  0.0547  0.1142
  157DOPC   H2X18871   6.237   6.235  17.897 -1.8421 -1.0529 -0.3127
  157DOPC   H2Y18872   6.375   6.174  17.813  0.1106 -1.8399 -1.2193
  157DOPC   C2318873   6.682   5.979  17.881  0.0001  0.0348 -0.0931
  157DOPC   H3R18874   6.753   6.059  17.851  0.2203 -0.2771 -0.4033
  157DOPC   H3S18875   6.596   6.043  17.911 -1.4377 -1.8798  0.0788
  157DOPC   C2418876   6.659   5.893  17.754 -0.0647 -0.0102 -0.0196
  157DOPC   H4R18877   6.567   5.833  17.772 -0.4334  0.7676  0.7186
  157DOPC   H4S18878   6.744   5.826  17.731 -0.0208 -1.3031  3.3473
  157DOPC   C2518879   6.639   5.984  17.631  1.2311 -0.2585  0.7453
  157DOPC   H5R18880   6.740   6.024  17.607  1.4727 -1.3583 -0.1230
  157DOPC   H5S18881   6.570   6.066  17.662  0.6471 -0.2815 -0.4391
  157DOPC   C2618882   6.595   5.898  17.509 -0.6800  0.1621  0.1276
  157DOPC   H6R18883   6.503   5.841  17.532  0.7934 -2.4822 -0.1520
  157DOPC   H6S18884   6.675   5.824  17.490  2.0266  2.2881  2.2624
  157DOPC   C2718885   6.581   5.964  17.372 -0.7112 -0.4177  0.0808
  157DOPC   H7R18886   6.672   6.023  17.351  0.5342 -1.4430  2.2267
  157DOPC   H7S18887   6.501   6.039  17.388 -0.0805  0.1980  0.3508
  157DOPC   C2818888   6.558   5.873  17.248  0.2913  0.5124  0.5042
  157DOPC   H8R18889   6.509   5.934  17.170  3.5601  0.6463 -1.6086
  157DOPC   H8S18890   6.501   5.786  17.288  1.5684 -0.0328  1.1993
  157DOPC   C2918891   6.680   5.821  17.182  0.1271  0.0588 -0.4661
  157DOPC   H9R18892   6.761   5.786  17.249 -0.4338  0.6922  0.5720
  157DOPC  C21018893   6.686   5.793  17.049 -0.1025  0.3550 -0.6020
  157DOPC  H10R18894   6.781   5.758  17.006 -0.1207 -0.2391 -0.1624
  157DOPC  C21118895   6.582   5.834  16.940  0.0140  0.4230 -0.1591
  157DOPC  H11R18896   6.535   5.933  16.958 -2.1269 -0.6820  0.5808
  157DOPC  H11S18897   6.509   5.751  16.951  1.5123 -0.8771  0.3590
  157DOPC  C21218898   6.654   5.834  16.802  0.4081 -0.7027  0.5947
  157DOPC  H12R18899   6.703   5.735  16.790 -0.3797 -1.1691  1.1476
  157DOPC  H12S18900   6.733   5.911  16.794 -0.6973  0.2212 -4.3673
  157DOPC  C21318901   6.563   5.862  16.684 -0.0686 -0.8132 -0.4417
  157DOPC  H13R18902   6.634   5.862  16.598  0.4584 -1.7445 -0.0276
  157DOPC  H13S18903   6.521   5.964  16.701 -0.4724 -1.1186  0.4714
  157DOPC  C21418904   6.461   5.753  16.668 -0.0238 -0.4036  0.0041
  157DOPC  H14R18905   6.372   5.767  16.733  0.4566 -1.7812  1.0119
  157DOPC  H14S18906   6.513   5.662  16.705 -0.0176 -0.3938  0.0199
  157DOPC  C21518907   6.429   5.763  16.514  0.0636  0.0646 -1.0908
  157DOPC  H15R18908   6.519   5.743  16.452  1.2053 -3.7765  1.3772
  157DOPC  H15S18909   6.381   5.861  16.492 -1.1659 -0.3689 -0.4618
  157DOPC  C21618910   6.334   5.650  16.481  0.4719 -0.6346 -0.3825
  157DOPC  H16R18911   6.259   5.661  16.562 -0.8742 -3.2680 -1.1701
  157DOPC  H16S18912   6.374   5.546  16.487 -0.1958 -0.8590  0.2508
  157DOPC  C21718913   6.264   5.662  16.349 -0.4289 -0.4557 -0.5006
  157DOPC  H17R18914   6.245   5.771  16.336 -2.9891 -0.8980 -0.9923
  157DOPC  H17S18915   6.161   5.621  16.346 -1.0822  1.0830 -0.3338
  157DOPC  C21818916   6.349   5.604  16.237  0.0187 -0.3366 -0.6257
  157DOPC  H18R18917   6.287   5.591  16.146  0.2826  0.9003 -0.9988
  157DOPC  H18S18918   6.389   5.504  16.265  0.0718 -0.3522 -0.7557
  157DOPC  H18T18919   6.434   5.667  16.205  0.0003 -0.0811 -0.1792
  157DOPC   C3318920   6.187   6.041  17.814 -0.5073  0.6693  0.0563
  157DOPC   H3X18921   6.103   6.041  17.886  1.1051 -0.1684  2.0343
  157DOPC   H3Y18922   6.230   5.939  17.813 -0.3794  0.6989 -2.4306
  157DOPC   C3418923   6.136   6.074  17.677  0.3509  0.5112 -0.1908
  157DOPC   H4X18924   6.059   6.154  17.666 -2.3777 -1.9929 -0.5972
  157DOPC   H4Y18925   6.068   5.993  17.642  1.7347 -0.5302 -0.5261
  157DOPC   C3518926   6.246   6.087  17.572  0.1399 -0.9129 -0.8325
  157DOPC   H5X18927   6.309   5.996  17.560  0.3554 -0.4380 -3.8323
  157DOPC   H5Y18928   6.303   6.176  17.606 -0.6551  0.0519 -1.9418
  157DOPC   C3618929   6.191   6.103  17.420  0.1990 -0.3860  0.1448
  157DOPC   H6X18930   6.285   6.107  17.360  0.9713 -3.4495  0.9990
  157DOPC   H6Y18931   6.135   6.015  17.383  1.7803 -0.8289 -1.3648
  157DOPC   C3718932   6.111   6.232  17.389 -0.0018 -0.0435  0.8944
  157DOPC   H7X18933   6.010   6.242  17.434 -0.6440 -1.4398 -0.1558
  157DOPC   H7Y18934   6.169   6.314  17.438  2.3583 -2.2882  2.1189
  157DOPC   C3818935   6.095   6.269  17.234  0.3517 -0.4186  1.0863
  157DOPC   H8X18936   6.026   6.197  17.185 -1.8880  2.2846 -0.0068
  157DOPC   H8Y18937   6.192   6.271  17.179  0.3629  3.6134  0.9256
  157DOPC   C3918938   6.030   6.406  17.222  0.1036  0.0365  1.1798
  157DOPC   H9X18939   5.937   6.415  17.281 -2.0109  0.9863 -2.0184
  157DOPC  C31018940   6.067   6.512  17.153 -0.6345 -0.3131 -0.4311
  157DOPC  H10X18941   5.997   6.596  17.142  1.5713  1.8822  1.2722
  157DOPC  C31118942   6.182   6.510  17.057  0.2913 -0.2595 -0.5928
  157DOPC  H11X18943   6.264   6.451  17.103  1.7237  2.1355  0.1319
  157DOPC  H11Y18944   6.221   6.611  17.033 -1.4831  0.5511 -0.2470
  157DOPC  C31218945   6.132   6.458  16.924  0.6078  0.5265 -0.0356
  157DOPC  H12X18946   6.056   6.532  16.890  0.0785  0.2572  0.5496
  157DOPC  H12Y18947   6.098   6.353  16.935 -0.0910  0.7761  0.3173
  157DOPC  C31318948   6.238   6.449  16.820 -0.4620 -0.2003  0.6461
  157DOPC  H13X18949   6.293   6.546  16.821  0.8516 -0.9281  0.8474
  157DOPC  H13Y18950   6.308   6.366  16.845 -1.1634 -0.8189  0.5854
  157DOPC  C31418951   6.185   6.426  16.679  0.2904 -0.3153  0.5761
  157DOPC  H14X18952   6.103   6.351  16.686  0.6698 -0.6683  1.3304
  157DOPC  H14Y18953   6.134   6.520  16.646  0.6281 -0.3712 -0.1206
  157DOPC  C31518954   6.285   6.360  16.592  0.1397 -0.0427  0.4339
  157DOPC  H15X18955   6.319   6.260  16.627 -0.4181 -0.0681  0.9358
  157DOPC  H15Y18956   6.366   6.435  16.583 -1.6904  1.9194 -0.7253
  157DOPC  C31618957   6.235   6.323  16.453  0.5345  0.5338 -0.6558
  157DOPC  H16X18958   6.268   6.217  16.441 -1.1854 -0.2243  0.7747
  157DOPC  H16Y18959   6.125   6.334  16.445  0.3433 -0.0090  0.8600
  157DOPC  C31718960   6.283   6.413  16.336 -0.6474  0.1299  0.1790
  157DOPC  H17X18961   6.239   6.513  16.350 -1.0430 -0.0620  0.3174
  157DOPC  H17Y18962   6.394   6.422  16.330 -0.1760 -4.1826 -1.2506
  157DOPC  C31818963   6.238   6.361  16.199  0.4482  0.5690 -0.0028
  157DOPC  H18X18964   6.295   6.406  16.114 -0.4558  0.2663 -0.7893
  157DOPC  H18Y18965   6.259   6.252  16.188  1.0213  0.7128 -0.3933
  157DOPC  H18Z18966   6.129   6.381  16.191 -0.0539 -2.1820 -1.5493
  158DOPC     N18967   5.331   1.766  17.938 -0.0680  0.4107 -0.5075
  158DOPC   C1218968   5.478   1.816  17.926  0.8316  0.1318 -0.0366
  158DOPC  H12A18969   5.510   1.812  18.029  1.1465 -0.3360 -0.1446
  158DOPC  H12B18970   5.484   1.920  17.901  0.4436  0.9326  2.8543
  158DOPC   C1318971   5.266   1.829  18.054  0.0716  0.9126  0.0666
  158DOPC  H13A18972   5.162   1.799  18.048 -0.2738  2.1243 -0.5535
  158DOPC  H13B18973   5.298   1.785  18.147  1.9287 -0.6912 -1.2654
  158DOPC  H13C18974   5.275   1.937  18.049 -0.8883  1.0659  1.1991
  158DOPC   C1418975   5.338   1.616  17.969 -0.1037 -1.0701  0.1123
  158DOPC  H14A18976   5.394   1.589  18.058  0.4738  0.6726  0.3246
  158DOPC  H14B18977   5.238   1.578  17.983  1.3625 -5.2638  0.5686
  158DOPC  H14C18978   5.370   1.555  17.887 -1.8230 -1.9537  0.0462
  158DOPC   C1518979   5.261   1.794  17.814 -0.0163  0.5053 -0.2519
  158DOPC  H15A18980   5.164   1.746  17.823  1.3809 -2.2624  1.5016
  158DOPC  H15B18981   5.309   1.757  17.725  1.4050 -0.6831  0.9486
  158DOPC  H15C18982   5.254   1.899  17.790 -1.2471  0.4523 -0.2130
  158DOPC   C1118983   5.578   1.732  17.851 -0.4065  0.0840 -0.5606
  158DOPC  H11A18984   5.584   1.625  17.878  0.6913  0.1639 -0.4392
  158DOPC  H11B18985   5.565   1.732  17.741 -1.0024  1.5377 -0.5164
  158DOPC     P18986   5.764   1.916  17.817  0.0032  0.1654  0.4627
  158DOPC   O1318987   5.774   2.024  17.921 -0.0852 -0.3577  0.6574
  158DOPC   O1418988   5.695   1.947  17.688 -0.3394 -0.0268 -0.0250
  158DOPC   O1218989   5.707   1.785  17.885  0.2332 -0.1403  0.3106
  158DOPC   O1118990   5.909   1.869  17.783 -0.6962  0.8461 -0.1829
  158DOPC    C118991   5.934   1.736  17.724  0.3551 -0.2123  0.0212
  158DOPC    HA18992   5.871   1.662  17.778  2.0718 -1.1322  0.8343
  158DOPC    HB18993   6.041   1.710  17.737 -0.2386 -2.0901  1.4893
  158DOPC    C218994   5.900   1.733  17.572  0.3755  0.4071 -0.2340
  158DOPC    HS18995   5.791   1.754  17.572 -0.0189 -1.1823  2.0908
  158DOPC   O2118996   5.923   1.593  17.528 -0.3163 -0.2205 -0.3078
  158DOPC   C2118997   5.847   1.552  17.431 -1.3757 -0.1556 -0.7682
  158DOPC   O2218998   5.763   1.610  17.370  0.5955 -0.2733 -0.0740
  158DOPC   C2218999   5.880   1.395  17.415  0.1644 -0.8154 -0.2429
  158DOPC   H2R19000   5.825   1.352  17.501  0.5641 -0.0367  0.4197
  158DOPC   H2S19001   5.989   1.380  17.422  0.4749  1.5187  1.0812
  158DOPC    C319002   5.978   1.835  17.483 -0.5650  0.1207  0.0872
  158DOPC    HX19003   6.077   1.860  17.525 -1.1583  3.1323 -0.0439
  158DOPC    HY19004   5.932   1.934  17.504  0.9294  1.0133 -0.6773
  158DOPC   O3119005   5.991   1.809  17.339 -0.1174 -0.0699  0.1939
  158DOPC   C3119006   5.894   1.866  17.269 -0.2303 -0.2070 -0.0246
  158DOPC   O3219007   5.791   1.915  17.307  0.0530  0.5720 -0.3053
  158DOPC   C3219008   5.952   1.876  17.121 -0.0731 -1.0997 -0.4202
  158DOPC   H2X19009   5.970   1.981  17.090 -1.3659 -0.7205  0.0512
  158DOPC   H2Y19010   6.051   1.825  17.117  0.7608  0.0619  2.6822
  158DOPC   C2319011   5.823   1.347  17.281 -0.0406  0.1503 -0.1934
  158DOPC   H3R19012   5.722   1.390  17.264 -1.3982 -2.2049  1.3544
  158DOPC   H3S19013   5.805   1.237  17.277 -0.7181  0.2655 -0.3359
  158DOPC   C2419014   5.916   1.373  17.161 -1.0078 -0.2188 -0.2244
  158DOPC   H4R19015   6.014   1.320  17.164 -1.7248 -1.5716  0.3936
  158DOPC   H4S19016   5.931   1.482  17.147 -1.4606 -0.0500  0.5230
  158DOPC   C2519017   5.849   1.313  17.038 -0.3020  0.2128 -0.1572
  158DOPC   H5R19018   5.893   1.362  16.948 -0.3201 -0.4476 -0.5284
  158DOPC   H5S19019   5.741   1.336  17.024 -0.7929 -0.6510  1.9197
  158DOPC   C2619020   5.884   1.164  17.018 -0.1165  1.0445 -0.5690
  158DOPC   H6R19021   5.850   1.102  17.104  1.6014 -0.5798 -1.0016
  158DOPC   H6S19022   5.995   1.159  17.015 -0.1033  0.9145 -0.0102
  158DOPC   C2719023   5.816   1.103  16.895 -0.1734  0.6170 -0.3137
  158DOPC   H7R19024   5.706   1.105  16.910 -0.3928 -2.6279 -0.8275
  158DOPC   H7S19025   5.838   0.994  16.906 -0.0250  0.8131  1.7527
  158DOPC   C2819026   5.853   1.161  16.754 -0.4028 -0.5038 -0.1964
  158DOPC   H8R19027   5.963   1.178  16.749 -0.7184  2.9975  1.4103
  158DOPC   H8S19028   5.802   1.260  16.744 -0.4240 -0.4029  0.7834
  158DOPC   C2919029   5.801   1.065  16.652 -0.5378 -0.5416 -0.8030
  158DOPC   H9R19030   5.763   0.970  16.693  2.0500 -0.5714  1.8466
  158DOPC  C21019031   5.791   1.093  16.522  0.6645 -0.3159 -0.4861
  158DOPC  H10R19032   5.748   1.011  16.463  3.3757 -2.5276  0.3836
  158DOPC  C21119033   5.838   1.215  16.444  0.0325 -0.2849 -0.0696
  158DOPC  H11R19034   5.880   1.290  16.514  0.0687  0.4136 -0.8143
  158DOPC  H11S19035   5.749   1.269  16.405 -0.2908 -0.0128  1.0086
  158DOPC  C21219036   5.950   1.190  16.337  0.4331  0.5900  0.4108
  158DOPC  H12R19037   6.027   1.124  16.382 -1.0841 -2.3701 -1.0186
  158DOPC  H12S19038   5.995   1.288  16.307  0.3914  0.7554  0.8752
  158DOPC  C21319039   5.894   1.124  16.216 -0.3226  0.3565  0.0497
  158DOPC  H13R19040   5.818   1.194  16.175 -1.2181 -1.4987 -1.6418
  158DOPC  H13S19041   5.841   1.032  16.249  0.7722 -0.2195  0.2322
  158DOPC  C21419042   5.993   1.077  16.110 -0.0802  0.3244  0.6778
  158DOPC  H14R19043   6.075   1.012  16.146 -0.1705 -0.2038 -0.0407
  158DOPC  H14S19044   6.046   1.161  16.060 -1.7430  0.8723 -0.2230
  158DOPC  C21519045   5.919   0.995  16.002 -0.6330 -0.0064 -0.2009
  158DOPC  H15R19046   5.831   1.055  15.969 -0.2053 -0.9686 -3.4569
  158DOPC  H15S19047   5.884   0.897  16.040  0.1561 -1.2936 -2.5633
  158DOPC  C21619048   6.002   0.968  15.875 -0.3114  1.0032  0.1360
  158DOPC  H16R19049   6.068   0.887  15.912 -2.8235 -1.2316 -0.0286
  158DOPC  H16S19050   6.060   1.060  15.851  1.2136  0.0688  0.0881
  158DOPC  C21719051   5.924   0.931  15.751  0.3954  0.6357  0.2165
  158DOPC  H17R19052   5.860   1.016  15.720 -2.1968 -2.3304 -3.4710
  158DOPC  H17S19053   5.858   0.844  15.774  2.3367 -0.9115  0.2230
  158DOPC  C21819054   6.017   0.893  15.631  0.1262  0.1010 -0.1049
  158DOPC  H18R19055   6.067   0.796  15.656  0.8524  0.6975  0.8245
  158DOPC  H18S19056   6.077   0.984  15.609  1.0921 -0.1495  1.3334
  158DOPC  H18T19057   5.956   0.870  15.541  0.4104 -0.7533 -0.0974
  158DOPC   C3319058   5.852   1.810  17.017 -0.6690 -0.9811 -0.8983
  158DOPC   H3X19059   5.753   1.861  17.024 -0.4072 -0.1690 -2.5620
  158DOPC   H3Y19060   5.825   1.709  17.052  1.4468 -0.8720  1.2877
  158DOPC   C3419061   5.898   1.822  16.874 -0.2019 -0.4024  0.1342
  158DOPC   H4X19062   5.936   1.923  16.848  1.4636 -0.8526  0.6979
  158DOPC   H4Y19063   5.809   1.810  16.809 -0.7054  0.3461  0.6665
  158DOPC   C3519064   6.004   1.717  16.836  0.3748  0.2574 -0.5582
  158DOPC   H5X19065   5.960   1.615  16.832  1.8964 -0.6402  2.1688
  158DOPC   H5Y19066   6.083   1.710  16.915  0.4694 -0.0068 -0.6762
  158DOPC   C3619067   6.068   1.743  16.700 -0.2340  0.5173 -0.2564
  158DOPC   H6X19068   6.107   1.847  16.695  2.0707 -0.2732  0.0877
  158DOPC   H6Y19069   6.149   1.670  16.685 -0.9752 -0.5462  0.7259
  158DOPC   C3719070   5.970   1.737  16.577  0.3660  0.8648 -0.4271
  158DOPC   H7X19071   5.938   1.631  16.569  0.5621  0.7664  0.0212
  158DOPC   H7Y19072   5.882   1.801  16.601  0.7024  2.4386 -3.0203
  158DOPC   C3819073   6.022   1.802  16.452  0.4134 -0.7535  0.4709
  158DOPC   H8X19074   6.117   1.765  16.407  0.2008  0.6935 -1.2934
  158DOPC   H8Y19075   6.054   1.906  16.477  2.3478 -1.3903  0.8334
  158DOPC   C3919076   5.915   1.809  16.347 -0.2617  0.2618  0.2615
  158DOPC   H9X19077   5.839   1.885  16.373 -0.5703 -0.1845  0.6746
  158DOPC  C31019078   5.894   1.713  16.250  0.4675 -0.2414 -0.2378
  158DOPC  H10X19079   5.812   1.733  16.180  1.6479 -0.3987 -1.6961
  158DOPC  C31119080   5.972   1.587  16.216  0.2975 -0.1448 -0.3337
  158DOPC  H11X19081   5.896   1.507  16.230 -1.1226  1.1758 -0.3066
  158DOPC  H11Y19082   6.055   1.565  16.287  1.0915  3.0408 -0.1145
  158DOPC  C31219083   6.027   1.589  16.075 -0.3275  0.8641 -0.6115
  158DOPC  H12X19084   6.083   1.681  16.048 -1.4099  1.5553 -0.5780
  158DOPC  H12Y19085   5.936   1.597  16.011 -1.2521  0.9516  0.6747
  158DOPC  C31319086   6.092   1.455  16.032  0.1923 -0.2033 -1.0755
  158DOPC  H13X19087   6.196   1.462  16.068 -0.7025  2.9377  1.3833
  158DOPC  H13Y19088   6.037   1.369  16.077  2.4211 -0.6482  1.0043
  158DOPC  C31419089   6.095   1.448  15.882  0.1874  0.1985  0.4027
  158DOPC  H14X19090   5.989   1.449  15.847  1.3212  0.4447 -3.4165
  158DOPC  H14Y19091   6.133   1.541  15.836  0.4042  0.0384  0.2542
  158DOPC  C31519092   6.176   1.333  15.823  0.0639 -0.1918  0.1462
  158DOPC  H15X19093   6.177   1.254  15.901  0.3086 -0.0496  0.2893
  158DOPC  H15Y19094   6.280   1.368  15.807 -0.8423  2.8435  0.2408
  158DOPC  C31619095   6.136   1.275  15.684  0.3537  0.0401  0.1590
  158DOPC  H16X19096   6.179   1.173  15.676 -3.5108 -1.8341  0.6319
  158DOPC  H16Y19097   6.028   1.248  15.676  0.1226  0.6133  1.1937
  158DOPC  C31719098   6.168   1.370  15.563 -0.5777 -0.3435 -0.2933
  158DOPC  H17X19099   6.107   1.462  15.570  0.6690  0.3829  2.2482
  158DOPC  H17Y19100   6.271   1.410  15.574 -0.4437 -1.1039  1.5678
  158DOPC  C31819101   6.144   1.307  15.426  0.2163 -0.1953  0.0270
  158DOPC  H18X19102   6.199   1.211  15.420  0.1537 -0.1316 -2.6433
  158DOPC  H18Y19103   6.036   1.279  15.424 -0.3508  1.7918  0.3364
  158DOPC  H18Z19104   6.162   1.381  15.345 -0.1834 -1.1968 -0.9985
  159DOPC     N19105   5.860   4.972  18.568  0.7990 -0.2976 -0.7260
  159DOPC   C1219106   5.864   5.079  18.464 -0.4106 -0.7312  0.6799
  159DOPC  H12A19107   5.946   5.142  18.494  0.3400 -0.9707 -0.8176
  159DOPC  H12B19108   5.773   5.138  18.463  1.9520  3.3137 -0.3098
  159DOPC   C1319109   5.736   4.890  18.550  0.1664 -0.5938  0.6225
  159DOPC  H13A19110   5.651   4.955  18.535 -1.4711 -2.0183  2.9395
  159DOPC  H13B19111   5.744   4.835  18.458 -0.1525  0.1197  0.1618
  159DOPC  H13C19112   5.719   4.825  18.635  1.0482  0.0379  1.2999
  159DOPC   C1419113   5.860   5.026  18.712 -0.1069 -0.0544 -0.0977
  159DOPC  H14A19114   5.959   5.051  18.749  0.1597  1.6128 -1.7677
  159DOPC  H14B19115   5.799   5.113  18.725 -1.4475 -1.2625  2.2545
  159DOPC  H14C19116   5.816   4.951  18.775 -1.0240  0.1451 -0.4846
  159DOPC   C1519117   5.988   4.886  18.552  0.8598  0.2420 -0.0503
  159DOPC  H15A19118   6.069   4.921  18.614  0.9335 -0.5185  0.2900
  159DOPC  H15B19119   6.009   4.875  18.447 -1.4892 -1.8863 -0.4066
  159DOPC  H15C19120   5.969   4.787  18.590 -1.6060 -0.0639 -1.7790
  159DOPC   C1119121   5.887   5.043  18.312  0.3189 -1.0118  0.6733
  159DOPC  H11A19122   5.888   5.131  18.244  1.4243 -0.9653  0.7226
  159DOPC  H11B19123   5.990   5.001  18.310  0.7847  0.0794  0.7794
  159DOPC     P19124   5.695   4.924  18.182  0.1047  0.0658 -0.0431
  159DOPC   O1319125   5.585   5.013  18.221 -0.4402  0.0122  0.2042
  159DOPC   O1419126   5.656   4.783  18.154 -0.4386  0.3164 -0.5416
  159DOPC   O1219127   5.807   4.924  18.284 -0.6478 -0.1944 -0.0964
  159DOPC   O1119128   5.762   4.987  18.059 -0.3286  0.3903 -0.1682
  159DOPC    C119129   5.886   4.944  17.998  0.0273  0.0909  0.4414
  159DOPC    HA19130   5.871   4.857  17.930  1.2981 -0.8207  1.2778
  159DOPC    HB19131   5.961   4.910  18.072  0.3742 -2.0137 -0.7917
  159DOPC    C219132   5.956   5.056  17.920 -0.0184 -0.0367  0.2376
  159DOPC    HS19133   5.972   5.140  17.991  0.6405  0.0090  0.0469
  159DOPC   O2119134   5.866   5.094  17.813 -0.1894  0.0164  0.7628
  159DOPC   C2119135   5.900   5.209  17.747  0.0258  0.6102 -0.0582
  159DOPC   O2219136   5.984   5.289  17.788  0.0263 -0.1493 -0.4946
  159DOPC   C2219137   5.819   5.228  17.622 -0.3689  0.7410 -0.1771
  159DOPC   H2R19138   5.786   5.334  17.629 -0.4987  0.6725  0.2669
  159DOPC   H2S19139   5.734   5.156  17.621  0.9335 -0.8596 -0.4287
  159DOPC    C319140   6.097   5.015  17.875 -0.4146 -0.1268 -0.1965
  159DOPC    HX19141   6.156   4.962  17.953  1.1084  0.5394 -0.8491
  159DOPC    HY19142   6.160   5.107  17.871 -0.1006 -0.2345  1.5393
  159DOPC   O3119143   6.099   4.955  17.746  0.1372  0.3116 -0.0388
  159DOPC   C3119144   6.217   4.898  17.713  0.4051  0.2210  0.5483
  159DOPC   O3219145   6.307   4.873  17.789  0.1266 -0.0899 -0.0085
  159DOPC   C3219146   6.209   4.850  17.564 -0.0939  0.0769 -0.3676
  159DOPC   H2X19147   6.157   4.752  17.552 -0.1910 -0.0486  0.8871
  159DOPC   H2Y19148   6.147   4.927  17.513  0.7771  0.2890 -1.1278
  159DOPC   C2319149   5.900   5.208  17.495 -0.0147 -0.0582 -1.1067
  159DOPC   H3R19150   5.935   5.103  17.483  4.7868  1.1664 -0.1117
  159DOPC   H3S19151   5.993   5.269  17.500 -1.2606  1.9269 -0.9400
  159DOPC   C2419152   5.836   5.258  17.365  0.2148  0.1572 -0.0489
  159DOPC   H4R19153   5.794   5.361  17.374  0.2851  0.4998 -2.7531
  159DOPC   H4S19154   5.759   5.185  17.330  1.4671 -1.0842 -0.2822
  159DOPC   C2519155   5.929   5.269  17.244 -0.0603  0.5911 -0.3070
  159DOPC   H5R19156   5.956   5.166  17.213  0.5803  0.1906  1.4861
  159DOPC   H5S19157   6.026   5.323  17.255 -1.0585  2.0760  1.7305
  159DOPC   C2619158   5.860   5.334  17.128  0.0659  0.2771 -0.6383
  159DOPC   H6R19159   5.818   5.431  17.163  2.0955  0.7476  0.6997
  159DOPC   H6S19160   5.776   5.274  17.086 -0.8549  0.8151  0.3810
  159DOPC   C2719161   5.945   5.371  17.007  0.1193 -0.0863 -0.1661
  159DOPC   H7R19162   5.999   5.282  16.967  0.5657 -0.2568  0.7981
  159DOPC   H7S19163   6.023   5.436  17.051  1.3309 -0.2815 -1.8955
  159DOPC   C2819164   5.875   5.447  16.890 -0.0144 -0.8158  0.3581
  159DOPC   H8R19165   5.946   5.468  16.807 -3.4673  0.2248 -2.5819
  159DOPC   H8S19166   5.861   5.551  16.926  0.1533 -0.1072 -1.5091
  159DOPC   C2919167   5.749   5.375  16.839 -0.1482 -0.2643 -0.1255
  159DOPC   H9R19168   5.683   5.352  16.924  1.2716 -2.4504  0.4593
  159DOPC  C21019169   5.716   5.349  16.711  0.4245  0.0754  0.7816
  159DOPC  H10R19170   5.620   5.299  16.693  1.1290 -2.0470  2.4800
  159DOPC  C21119171   5.799   5.389  16.593  0.3905 -0.6602 -0.1866
  159DOPC  H11R19172   5.903   5.417  16.620 -0.1610  2.8981 -1.3042
  159DOPC  H11S19173   5.749   5.469  16.535  0.2861 -0.2395  0.4746
  159DOPC  C21219174   5.797   5.280  16.492 -0.3624 -0.2857 -0.3655
  159DOPC  H12R19175   5.696   5.267  16.449 -0.6804  0.7161  0.0599
  159DOPC  H12S19176   5.824   5.187  16.546 -1.6052  0.5049  1.6973
  159DOPC  C21319177   5.888   5.313  16.377  0.6193 -0.4415 -0.1029
  159DOPC  H13R19178   5.928   5.219  16.332 -0.7355 -1.7180  1.2750
  159DOPC  H13S19179   5.967   5.377  16.422 -1.9574  1.1989  2.4127
  159DOPC  C21419180   5.818   5.399  16.262  0.2886 -0.4632 -0.0341
  159DOPC  H14R19181   5.789   5.494  16.310 -0.0542 -1.3616  1.6132
  159DOPC  H14S19182   5.723   5.349  16.232 -1.1561  1.8823  0.4245
  159DOPC  C21519183   5.911   5.418  16.140  0.4545 -0.0159  0.2920
  159DOPC  H15R19184   5.940   5.325  16.086  1.1105 -0.4753  1.4009
  159DOPC  H15S19185   6.004   5.471  16.169  1.9386 -2.1572 -0.2682
  159DOPC  C21619186   5.838   5.490  16.022  0.4578  0.4983 -0.7594
  159DOPC  H16R19187   5.812   5.597  16.037 -1.5024  0.1090 -1.1555
  159DOPC  H16S19188   5.740   5.440  16.004  0.1319  0.2886  1.2927
  159DOPC  C21719189   5.925   5.499  15.898 -0.6939  0.6582  0.4025
  159DOPC  H17R19190   5.956   5.396  15.869  0.3330  0.3999  2.2728
  159DOPC  H17S19191   6.023   5.546  15.919  0.4740 -0.1157 -2.7548
  159DOPC  C21819192   5.853   5.564  15.778 -0.2932 -0.7275 -0.1299
  159DOPC  H18R19193   5.921   5.584  15.692  0.3465  0.1366  0.5591
  159DOPC  H18S19194   5.800   5.656  15.810  0.2768 -0.2660 -0.4876
  159DOPC  H18T19195   5.764   5.502  15.754 -2.9291  1.7804  2.4213
  159DOPC   C3319196   6.351   4.834  17.510 -0.5703  0.1644  0.1946
  159DOPC   H3X19197   6.398   4.746  17.558 -2.3537 -1.0209 -0.1310
  159DOPC   H3Y19198   6.418   4.916  17.543 -1.6189  1.5602 -1.0238
  159DOPC   C3419199   6.360   4.818  17.351  0.0672  0.1617  0.2419
  159DOPC   H4X19200   6.325   4.913  17.306 -1.0140  0.4432  1.5896
  159DOPC   H4Y19201   6.279   4.745  17.333 -0.4413  0.9330 -0.6567
  159DOPC   C3519202   6.489   4.773  17.302  0.3067 -0.5490  0.7429
  159DOPC   H5X19203   6.538   4.693  17.362  0.9331  0.2971  1.3936
  159DOPC   H5Y19204   6.566   4.853  17.306  0.8342 -1.0457  3.9638
  159DOPC   C3619205   6.477   4.704  17.163  0.5580 -0.3143  0.2266
  159DOPC   H6X19206   6.574   4.653  17.146  0.9241  0.5848 -0.4587
  159DOPC   H6Y19207   6.407   4.618  17.175  0.2412 -0.0402  0.3408
  159DOPC   C3719208   6.436   4.785  17.041  0.2941  0.2009 -0.6477
  159DOPC   H7X19209   6.327   4.800  17.056  0.6125  0.1678  2.2118
  159DOPC   H7Y19210   6.494   4.879  17.048  0.6549 -0.0301 -0.5096
  159DOPC   C3819211   6.460   4.706  16.909  0.1117 -0.5364  0.4078
  159DOPC   H8X19212   6.420   4.603  16.915 -1.7967  0.2567  2.5450
  159DOPC   H8Y19213   6.569   4.704  16.887  0.1988  1.4377  0.4839
  159DOPC   C3919214   6.379   4.777  16.799 -0.4178 -0.7590 -0.8959
  159DOPC   H9X19215   6.298   4.842  16.837  0.6832 -1.0341  2.2764
  159DOPC  C31019216   6.399   4.764  16.674 -0.3713  0.1278  0.9170
  159DOPC  H10X19217   6.334   4.825  16.609 -0.3322  0.3570  1.0942
  159DOPC  C31119218   6.503   4.676  16.604  0.2859 -0.0240 -0.0624
  159DOPC  H11X19219   6.459   4.577  16.580 -3.0938  1.4562 -0.5100
  159DOPC  H11Y19220   6.597   4.663  16.663 -1.2178 -0.3852  2.4044
  159DOPC  C31219221   6.541   4.724  16.462  0.1463  0.1690 -0.1325
  159DOPC  H12X19222   6.624   4.661  16.422 -3.0880 -2.9657 -2.5468
  159DOPC  H12Y19223   6.571   4.831  16.471  2.1085 -0.3622  0.0750
  159DOPC  C31319224   6.425   4.706  16.363 -0.2513 -0.3101  0.1633
  159DOPC  H13X19225   6.400   4.598  16.368  1.8706 -0.8062  1.2545
  159DOPC  H13Y19226   6.335   4.766  16.389  2.0775  2.8054  1.6333
  159DOPC  C31419227   6.464   4.745  16.219  0.7314 -0.6210 -0.3303
  159DOPC  H14X19228   6.500   4.849  16.237 -2.2704  0.4472  0.0988
  159DOPC  H14Y19229   6.554   4.695  16.177  2.2416  1.6304  0.0341
  159DOPC  C31519230   6.349   4.749  16.115 -0.0459  0.4750 -0.0696
  159DOPC  H15X19231   6.271   4.820  16.150 -1.9352 -0.1491 -2.7057
  159DOPC  H15Y19232   6.299   4.650  16.113 -0.7697  0.8211  0.5302
  159DOPC  C31619233   6.395   4.774  15.970 -0.4125  0.8651  0.2290
  159DOPC  H16X19234   6.484   4.839  15.955  2.7173 -2.8861  0.7933
  159DOPC  H16Y19235   6.434   4.679  15.926  0.4307  0.3061  2.0939
  159DOPC  C31719236   6.286   4.816  15.878 -0.0114  0.2345 -0.0156
  159DOPC  H17X19237   6.192   4.759  15.897  0.0050 -0.2061 -1.2130
  159DOPC  H17Y19238   6.265   4.918  15.917  1.5105  1.0371 -1.1986
  159DOPC  C31819239   6.308   4.840  15.732 -0.6905  0.4836  0.0187
  159DOPC  H18X19240   6.235   4.912  15.689  1.1417  2.8320  0.6429
  159DOPC  H18Y19241   6.407   4.887  15.714 -0.5497  0.6742  1.2393
  159DOPC  H18Z19242   6.308   4.746  15.672 -0.7756  0.8877 -0.6315
  160DOPC     N19243   6.422   2.574  18.049  0.3603  0.8817  0.8640
  160DOPC   C1219244   6.560   2.559  17.987  0.2452 -0.5736  0.6514
  160DOPC  H12A19245   6.546   2.554  17.880 -0.9314  0.6534  0.7137
  160DOPC  H12B19246   6.605   2.467  18.020  1.2628 -1.2889 -2.4011
  160DOPC   C1319247   6.350   2.698  18.012 -0.5908 -0.8987  0.2204
  160DOPC  H13A19248   6.336   2.709  17.905 -1.7406 -0.2387  0.4163
  160DOPC  H13B19249   6.249   2.707  18.050 -0.0061  1.9868  1.3895
  160DOPC  H13C19250   6.401   2.782  18.055 -0.4781 -0.6803 -0.3303
  160DOPC   C1419251   6.429   2.569  18.196  0.2352  0.3398 -0.4754
  160DOPC  H14A19252   6.501   2.638  18.238 -0.1843  0.7784 -0.4652
  160DOPC  H14B19253   6.346   2.589  18.261 -0.5026 -1.0013 -0.9743
  160DOPC  H14C19254   6.461   2.470  18.225  0.2419  0.8470  1.3818
  160DOPC   C1519255   6.340   2.455  18.004 -0.2057  0.2344  0.1119
  160DOPC  H15A19256   6.333   2.432  17.898  3.3805 -0.7856 -0.0268
  160DOPC  H15B19257   6.241   2.476  18.042  0.5034  2.0283  1.1217
  160DOPC  H15C19258   6.376   2.362  18.042 -1.7090 -0.5346 -0.2519
  160DOPC   C1119259   6.661   2.669  18.001 -0.2308  0.0596 -0.0457
  160DOPC  H11A19260   6.672   2.708  18.104  1.6128  0.2932 -0.2993
  160DOPC  H11B19261   6.762   2.629  17.979 -0.2619  0.4022 -0.8343
  160DOPC     P19262   6.685   2.784  17.766  0.1601 -0.2030  0.2835
  160DOPC   O1319263   6.647   2.913  17.700 -0.2872  0.4123 -0.1538
  160DOPC   O1419264   6.639   2.661  17.697  0.5832 -0.1334 -0.1900
  160DOPC   O1219265   6.627   2.783  17.914 -0.4677  0.4120 -0.1621
  160DOPC   O1119266   6.841   2.776  17.805  0.4566  0.0515 -0.5059
  160DOPC    C119267   6.936   2.871  17.770  0.3573  0.3797 -0.4427
  160DOPC    HA19268   7.035   2.842  17.811 -0.7142 -1.1424  1.2090
  160DOPC    HB19269   6.907   2.972  17.806  0.5109  0.7603 -1.3443
  160DOPC    C219270   6.959   2.874  17.614  0.1312 -0.6118 -0.3794
  160DOPC    HS19271   6.880   2.934  17.566  0.9336  0.4382 -0.4270
  160DOPC   O2119272   6.979   2.745  17.557 -0.7863  0.0074 -0.0227
  160DOPC   C2119273   6.901   2.720  17.457 -0.2179 -0.2408 -0.0194
  160DOPC   O2219274   6.799   2.786  17.431 -0.5099  0.1895 -0.1586
  160DOPC   C2219275   6.940   2.596  17.380 -0.5522 -0.0819 -0.3224
  160DOPC   H2R19276   6.844   2.544  17.359 -1.1342  0.8472 -0.0397
  160DOPC   H2S19277   7.019   2.541  17.436  0.4035 -0.2551 -1.7780
  160DOPC    C319278   7.082   2.961  17.596 -1.0197  0.1007  0.1540
  160DOPC    HX19279   7.168   2.936  17.661 -0.7218  2.1262  0.6241
  160DOPC    HY19280   7.058   3.065  17.629 -0.5928  0.1034  0.4573
  160DOPC   O3119281   7.114   2.957  17.455 -0.5094  0.2072  0.1813
  160DOPC   C3119282   7.243   2.981  17.426 -0.5568 -0.7295 -0.0210
  160DOPC   O3219283   7.325   3.015  17.513 -0.0897 -0.8247 -0.7725
  160DOPC   C3219284   7.269   2.949  17.280  0.3766 -0.2892 -0.0093
  160DOPC   H2X19285   7.274   2.838  17.280 -1.0008 -0.3945  1.5196
  160DOPC   H2Y19286   7.185   2.990  17.219 -0.4432 -3.0888 -0.9200
  160DOPC   C2319287   6.993   2.653  17.243 -1.1203 -0.1351 -1.1266
  160DOPC   H3R19288   7.081   2.719  17.261 -0.3688 -1.3470 -0.1734
  160DOPC   H3S19289   6.921   2.721  17.194 -0.1374  2.4879  0.8137
  160DOPC   C2419290   7.029   2.539  17.147  0.1631  0.0510  0.3320
  160DOPC   H4R19291   6.947   2.466  17.131  0.4277 -0.3819  0.8920
  160DOPC   H4S19292   7.104   2.477  17.201 -1.3321 -1.1316  1.1266
  160DOPC   C2519293   7.082   2.573  17.003  0.4657  0.2983  0.7816
  160DOPC   H5R19294   7.134   2.484  16.961 -1.4361  0.2139 -1.6362
  160DOPC   H5S19295   7.151   2.660  16.999  0.9638 -0.1127  0.1956
  160DOPC   C2619296   6.955   2.598  16.918 -0.3027  0.2085 -0.3331
  160DOPC   H6R19297   6.915   2.700  16.937  1.4496  0.8652  0.0057
  160DOPC   H6S19298   6.874   2.529  16.948 -0.0408  1.1899  2.9330
  160DOPC   C2719299   6.987   2.573  16.769  0.2296 -0.0111  0.1662
  160DOPC   H7R19300   6.989   2.462  16.761 -1.6855 -0.2485  1.9750
  160DOPC   H7S19301   7.086   2.609  16.734  0.5107  0.8563  1.7422
  160DOPC   C2819302   6.867   2.616  16.673  0.2944 -0.6739 -0.1610
  160DOPC   H8R19303   6.873   2.725  16.651 -0.1500 -0.9863 -1.9607
  160DOPC   H8S19304   6.770   2.603  16.726 -0.8021  1.2372 -1.5641
  160DOPC   C2919305   6.867   2.536  16.546 -0.6218 -0.8872  0.1330
  160DOPC   H9R19306   6.892   2.430  16.559  0.0290 -0.5783  1.6035
  160DOPC  C21019307   6.829   2.581  16.427 -0.9082 -1.2648  1.0229
  160DOPC  H10R19308   6.825   2.509  16.345  2.2914 -1.2177  0.7171
  160DOPC  C21119309   6.787   2.716  16.378 -0.2772  0.3812 -0.7891
  160DOPC  H11R19310   6.813   2.803  16.441  0.0824  0.2879 -0.8072
  160DOPC  H11S19311   6.676   2.719  16.372 -0.2828  0.4074 -0.6743
  160DOPC  C21219312   6.841   2.748  16.239  0.2337 -0.2654 -0.6252
  160DOPC  H12R19313   6.950   2.757  16.252  0.2831  0.1263 -1.2404
  160DOPC  H12S19314   6.811   2.853  16.219 -0.0599  0.3342  2.5493
  160DOPC  C21319315   6.796   2.657  16.130 -0.6967  0.3825  0.2752
  160DOPC  H13R19316   6.685   2.648  16.135 -0.6839 -1.8975 -1.7660
  160DOPC  H13S19317   6.843   2.559  16.151  0.1528  0.3203 -1.7635
  160DOPC  C21419318   6.841   2.707  15.994  0.5796 -0.9566  0.0309
  160DOPC  H14R19319   6.950   2.727  16.006  0.3497  0.6105 -0.3452
  160DOPC  H14S19320   6.793   2.804  15.970 -0.2444 -1.2313  0.5301
  160DOPC  C21519321   6.807   2.615  15.876 -0.2077  0.4476  0.0596
  160DOPC  H15R19322   6.696   2.607  15.870 -0.2321  0.6203  0.2578
  160DOPC  H15S19323   6.846   2.514  15.899 -1.0184  0.1176  0.0329
  160DOPC  C21619324   6.858   2.665  15.739  0.0543 -0.5108  0.4845
  160DOPC  H16R19325   6.960   2.700  15.765 -0.9018  1.5186  1.8349
  160DOPC  H16S19326   6.799   2.755  15.712 -2.6896 -2.4421 -0.3664
  160DOPC  C21719327   6.850   2.565  15.624  0.9481  0.5003 -0.2155
  160DOPC  H17R19328   6.747   2.538  15.591  0.9479 -0.8424  0.7753
  160DOPC  H17S19329   6.896   2.468  15.654  0.5057  0.5147  0.5492
  160DOPC  C21819330   6.932   2.617  15.505  0.0378  0.5373 -0.0412
  160DOPC  H18R19331   6.873   2.710  15.490  0.2167  0.7406  0.5034
  160DOPC  H18S19332   6.924   2.550  15.416  2.3352  1.0669 -0.7062
  160DOPC  H18T19333   7.036   2.641  15.534  0.5833  0.1451 -1.5802
  160DOPC   C3319334   7.399   3.020  17.244 -0.1520  0.4144 -0.9248
  160DOPC   H3X19335   7.484   2.972  17.298 -0.7493  0.0721 -0.2637
  160DOPC   H3Y19336   7.396   3.128  17.269  1.5645  0.2822 -0.0014
  160DOPC   C3419337   7.428   3.006  17.096 -0.0207 -0.4194  0.2571
  160DOPC   H4X19338   7.512   3.076  17.078 -1.1307  0.9502  0.1950
  160DOPC   H4Y19339   7.345   3.035  17.028 -0.7007 -1.6925  0.5200
  160DOPC   C3519340   7.467   2.868  17.053 -0.1897  0.0048 -0.0826
  160DOPC   H5X19341   7.388   2.794  17.076  0.6046 -0.1438  2.3985
  160DOPC   H5Y19342   7.563   2.844  17.104 -0.9806  2.0184  2.5967
  160DOPC   C3619343   7.502   2.871  16.905 -0.0497  0.2903  0.4848
  160DOPC   H6X19344   7.530   2.973  16.874  0.6051 -0.1185 -0.2809
  160DOPC   H6Y19345   7.589   2.803  16.896 -0.8143 -0.4247 -2.3056
  160DOPC   C3719346   7.383   2.831  16.815 -0.1845 -0.1013 -0.3218
  160DOPC   H7X19347   7.382   2.720  16.823 -2.5053 -0.0417  0.9390
  160DOPC   H7Y19348   7.290   2.864  16.864  0.2027 -1.4252  1.4012
  160DOPC   C3819349   7.402   2.875  16.669  0.8855 -0.2250 -0.2088
  160DOPC   H8X19350   7.502   2.838  16.636  1.1799  0.1433  0.2491
  160DOPC   H8Y19351   7.405   2.986  16.663  0.7999 -0.2011  0.1291
  160DOPC   C3919352   7.303   2.806  16.580 -0.2089  0.5595 -0.6431
  160DOPC   H9X19353   7.264   2.712  16.622  0.7466  0.0853 -0.7925
  160DOPC  C31019354   7.263   2.842  16.457  0.5986 -0.1670 -0.6124
  160DOPC  H10X19355   7.218   2.769  16.388  0.9437 -0.1993 -0.8031
  160DOPC  C31119356   7.315   2.964  16.386  0.3711 -0.5495  0.1055
  160DOPC  H11X19357   7.357   3.045  16.450 -1.3905  0.3581  0.1738
  160DOPC  H11Y19358   7.223   3.010  16.344 -1.0015 -2.8341  0.4100
  160DOPC  C31219359   7.425   2.946  16.273 -0.2647 -0.0848 -0.3958
  160DOPC  H12X19360   7.513   2.905  16.327  0.0477 -0.9361 -1.5189
  160DOPC  H12Y19361   7.449   3.045  16.227 -1.6252  0.1354 -0.6674
  160DOPC  C31319362   7.376   2.848  16.163  0.9353  0.2409  0.3033
  160DOPC  H13X19363   7.335   2.754  16.203 -0.2552  0.7672  0.3596
  160DOPC  H13Y19364   7.289   2.894  16.112  0.4933  0.2210  1.0341
  160DOPC  C31419365   7.490   2.820  16.055  0.3180 -0.4721  0.0630
  160DOPC  H14X19366   7.582   2.870  16.092  0.1955 -0.4625  0.3604
  160DOPC  H14Y19367   7.527   2.715  16.053  0.4294 -0.4458  0.5669
  160DOPC  C31519368   7.445   2.875  15.911  0.1309  0.6043 -0.3965
  160DOPC  H15X19369   7.544   2.889  15.863 -0.2621 -0.3761 -1.5510
  160DOPC  H15Y19370   7.392   2.973  15.907 -0.9317 -0.0038 -2.1242
  160DOPC  C31619371   7.349   2.782  15.843  0.0057  0.2644  0.0460
  160DOPC  H16X19372   7.383   2.677  15.838 -0.9892 -0.0543 -0.3053
  160DOPC  H16Y19373   7.249   2.783  15.891 -1.1859 -0.6997 -2.2251
  160DOPC  C31719374   7.308   2.820  15.701 -0.2371 -0.1077 -0.4156
  160DOPC  H17X19375   7.231   2.752  15.659 -1.1797  0.9600 -0.4704
  160DOPC  H17Y19376   7.257   2.919  15.704  1.2572  0.7764 -2.1348
  160DOPC  C31819377   7.425   2.819  15.599 -0.3188  0.4269  0.3699
  160DOPC  H18X19378   7.374   2.849  15.505  0.6677 -0.9346 -0.6339
  160DOPC  H18Y19379   7.511   2.885  15.625 -0.6012  0.9581 -0.0183
  160DOPC  H18Z19380   7.459   2.715  15.581  1.2494  0.7542  1.2793
  161DOPC     N19381   5.542   3.474  17.707  0.1104 -0.0378 -0.0519
  161DOPC   C1219382   5.572   3.388  17.582  0.1873 -0.8315 -0.1931
  161DOPC  H12A19383   5.634   3.304  17.609  2.2518  0.3402 -1.1113
  161DOPC  H12B19384   5.620   3.448  17.507 -0.5579 -2.5404 -2.1519
  161DOPC   C1319385   5.670   3.529  17.759 -0.0523 -0.9248 -0.0282
  161DOPC  H13A19386   5.738   3.445  17.763  0.4373 -0.5161  0.3260
  161DOPC  H13B19387   5.710   3.611  17.702 -0.6365  0.0872  0.9801
  161DOPC  H13C19388   5.663   3.578  17.855  1.8632  1.1139 -0.8516
  161DOPC   C1419389   5.473   3.398  17.818 -0.1142 -0.4317  0.5607
  161DOPC  H14A19390   5.374   3.372  17.784 -0.4074  0.9423  0.3009
  161DOPC  H14B19391   5.511   3.298  17.832  2.2435  0.3746  0.3799
  161DOPC  H14C19392   5.472   3.448  17.914 -0.7357  1.0271 -0.1603
  161DOPC   C1519393   5.459   3.597  17.674  0.3242 -0.0603 -0.7142
  161DOPC  H15A19394   5.369   3.562  17.625  0.1623 -1.2494  0.3684
  161DOPC  H15B19395   5.523   3.648  17.604 -0.3692 -0.5270 -1.6990
  161DOPC  H15C19396   5.433   3.655  17.761 -4.0164 -2.1708 -0.3418
  161DOPC   C1119397   5.449   3.338  17.501 -0.5413  0.6939 -0.1217
  161DOPC  H11A19398   5.384   3.425  17.477 -1.3670 -0.2753 -1.5566
  161DOPC  H11B19399   5.497   3.296  17.410  0.3310 -1.2563  1.1594
  161DOPC     P19400   5.229   3.206  17.541  0.1581  0.0412 -0.6657
  161DOPC   O1319401   5.152   3.303  17.614  0.3572 -0.0426 -0.3537
  161DOPC   O1419402   5.201   3.069  17.577  0.1408  0.0235  0.0905
  161DOPC   O1219403   5.380   3.232  17.568 -0.3959 -0.2029  0.4223
  161DOPC   O1119404   5.229   3.224  17.384 -0.1780 -0.8698 -0.3846
  161DOPC    C119405   5.265   3.128  17.287 -0.5354  0.5538  0.5726
  161DOPC    HA19406   5.200   3.038  17.301 -2.2640  1.7164  0.3212
  161DOPC    HB19407   5.370   3.095  17.303  0.2924  2.1056 -1.3255
  161DOPC    C219408   5.250   3.179  17.143 -0.6956 -0.5214 -0.4785
  161DOPC    HS19409   5.141   3.173  17.125 -0.8502  0.1203  0.2188
  161DOPC   O2119410   5.330   3.102  17.046  0.2620  0.6108 -0.1378
  161DOPC   C2119411   5.287   2.978  17.030 -0.3747  0.5327  0.1231
  161DOPC   O2219412   5.187   2.928  17.082 -0.0887 -1.0222 -1.1855
  161DOPC   C2219413   5.373   2.906  16.925 -0.4919 -0.4064  0.5170
  161DOPC   H2R19414   5.349   2.798  16.918  0.3778 -0.6575  1.2624
  161DOPC   H2S19415   5.479   2.910  16.957 -0.0315  0.1319 -0.9950
  161DOPC    C319416   5.289   3.330  17.134 -0.0750 -0.2847 -0.0922
  161DOPC    HX19417   5.387   3.351  17.181 -1.1958  1.0027  1.8122
  161DOPC    HY19418   5.217   3.380  17.202 -0.8103 -2.4002  0.7701
  161DOPC   O3119419   5.282   3.375  17.002 -0.2784 -0.2234  0.4144
  161DOPC   C3119420   5.393   3.388  16.928 -0.0855  0.1015  0.0341
  161DOPC   O3219421   5.505   3.367  16.965 -0.0735  0.5011  0.0994
  161DOPC   C3219422   5.356   3.449  16.793 -0.3970 -0.3793 -0.5534
  161DOPC   H2X19423   5.247   3.435  16.775 -0.0482 -0.7764 -2.7195
  161DOPC   H2Y19424   5.376   3.558  16.797  0.1771 -0.5187  0.8700
  161DOPC   C2319425   5.353   2.983  16.790 -0.3242 -0.3801 -0.2708
  161DOPC   H3R19426   5.425   2.939  16.716  0.8725  0.9654  0.0452
  161DOPC   H3S19427   5.396   3.085  16.801 -0.9631  0.1951 -2.4576
  161DOPC   C2419428   5.210   2.969  16.736 -0.2510 -0.1595 -0.1397
  161DOPC   H4R19429   5.140   2.994  16.818 -1.0798  1.5671 -1.2924
  161DOPC   H4S19430   5.188   2.868  16.696 -2.9035 -0.0568  0.8983
  161DOPC   C2519431   5.187   3.078  16.621 -0.1029  0.2797  0.2855
  161DOPC   H5R19432   5.201   3.173  16.677 -3.9750  0.0681  1.8692
  161DOPC   H5S19433   5.084   3.065  16.583  0.5625 -0.5639 -1.3428
  161DOPC   C2619434   5.288   3.063  16.506 -0.1396  0.5710 -0.1521
  161DOPC   H6R19435   5.385   3.094  16.552 -0.8104  1.2295  0.8441
  161DOPC   H6S19436   5.268   3.143  16.432 -2.0370 -0.8750 -1.2794
  161DOPC   C2719437   5.285   2.935  16.423 -0.2670  0.7484  0.1011
  161DOPC   H7R19438   5.188   2.881  16.420  0.1114  0.0304  0.4042
  161DOPC   H7S19439   5.367   2.868  16.458  0.4698  1.1044 -0.9184
  161DOPC   C2819440   5.323   2.959  16.275  0.5078 -0.4292 -0.2071
  161DOPC   H8R19441   5.419   3.015  16.269  0.2441  0.4650  2.5128
  161DOPC   H8S19442   5.241   3.028  16.244  0.1642 -0.3264  0.8821
  161DOPC   C2919443   5.336   2.840  16.185 -0.4033 -0.6636 -0.0257
  161DOPC   H9R19444   5.322   2.739  16.228 -1.6581  0.5606  2.7211
  161DOPC  C21019445   5.355   2.846  16.055 -0.5317 -0.3146  0.0209
  161DOPC  H10R19446   5.352   2.756  15.992 -0.0145  0.2377 -0.8182
  161DOPC  C21119447   5.359   2.973  15.976  0.1967  0.6181 -0.2289
  161DOPC  H11R19448   5.420   3.050  16.027  0.3569 -0.4715  1.2829
  161DOPC  H11S19449   5.255   3.011  15.964  0.0895  1.0712  1.7974
  161DOPC  C21219450   5.422   2.942  15.841  0.3079 -0.1979  0.1294
  161DOPC  H12R19451   5.372   2.858  15.788  1.9333  0.7869 -3.2651
  161DOPC  H12S19452   5.528   2.908  15.840  0.7181  0.9921 -1.3705
  161DOPC  C21319453   5.425   3.055  15.738 -0.0931 -0.4437  0.1996
  161DOPC  H13R19454   5.516   3.117  15.758  0.1368 -1.3214  2.0666
  161DOPC  H13S19455   5.336   3.122  15.735  0.4215  0.3403  1.3826
  161DOPC  C21419456   5.438   2.999  15.597  0.1251 -0.2880 -0.2985
  161DOPC  H14R19457   5.339   2.966  15.559  0.4818 -0.9868 -0.6344
  161DOPC  H14S19458   5.505   2.911  15.589 -0.2926 -0.6002 -0.3803
  161DOPC  C21519459   5.485   3.103  15.495 -0.0056  0.9016  0.2437
  161DOPC  H15R19460   5.588   3.141  15.515  0.2088 -0.1338  1.1698
  161DOPC  H15S19461   5.419   3.193  15.497 -0.2529  0.7746  3.8450
  161DOPC  C21619462   5.492   3.047  15.351 -0.6019  0.5699  0.1550
  161DOPC  H16R19463   5.391   3.018  15.314 -1.8372  3.1416  1.2259
  161DOPC  H16S19464   5.555   2.956  15.353 -2.5225 -0.8485 -0.2736
  161DOPC  C21719465   5.550   3.141  15.242 -0.5678 -0.5465 -0.3926
  161DOPC  H17R19466   5.487   3.233  15.242 -0.5943 -0.5122  2.2081
  161DOPC  H17S19467   5.541   3.084  15.147 -1.6427 -1.2027  0.0860
  161DOPC  C21819468   5.698   3.188  15.261 -0.1472  0.0080 -0.0296
  161DOPC  H18R19469   5.715   3.237  15.359  2.6476  1.2566 -1.0289
  161DOPC  H18S19470   5.728   3.255  15.178  0.5909 -0.2478  0.0211
  161DOPC  H18T19471   5.762   3.097  15.256 -0.1008  0.0011  0.6015
  161DOPC   C3319472   5.452   3.401  16.685  0.0489  0.0346  0.3768
  161DOPC   H3X19473   5.462   3.291  16.671 -1.9731 -0.0016 -1.1864
  161DOPC   H3Y19474   5.559   3.430  16.694  0.2312 -0.8256  1.1668
  161DOPC   C3419475   5.397   3.445  16.552  0.2473  0.1982 -0.0493
  161DOPC   H4X19476   5.380   3.554  16.560 -1.2767 -0.1630  3.1183
  161DOPC   H4Y19477   5.295   3.406  16.532  0.8247 -1.3451 -0.1024
  161DOPC   C3519478   5.494   3.414  16.435  0.6033 -0.9178  0.0997
  161DOPC   H5X19479   5.523   3.307  16.436  2.9428 -0.3890 -1.2955
  161DOPC   H5Y19480   5.588   3.472  16.451 -0.7463  1.1392  1.0675
  161DOPC   C3619481   5.438   3.443  16.294 -0.2434 -0.3884  0.1085
  161DOPC   H6X19482   5.328   3.430  16.284 -0.2057 -1.0890  0.5595
  161DOPC   H6Y19483   5.449   3.551  16.271 -1.0696 -0.1790  0.6429
  161DOPC   C3719484   5.512   3.368  16.186 -0.6093  0.3178  0.3116
  161DOPC   H7X19485   5.621   3.389  16.176 -0.9464  1.5510 -1.1779
  161DOPC   H7Y19486   5.507   3.260  16.208  2.5013  0.3671  1.8273
  161DOPC   C3819487   5.454   3.383  16.046 -0.7767  0.5244  0.5909
  161DOPC   H8X19488   5.348   3.350  16.054 -0.5317 -0.5739 -0.3490
  161DOPC   H8Y19489   5.503   3.315  15.972 -0.3568  1.4737 -0.0272
  161DOPC   C3919490   5.472   3.524  16.000  0.4636 -0.3203  0.5596
  161DOPC   H9X19491   5.397   3.599  16.031  0.5933  0.2464 -0.4617
  161DOPC  C31019492   5.574   3.569  15.929 -0.3918 -1.0064  0.5261
  161DOPC  H10X19493   5.572   3.674  15.897  0.3349 -0.9750  0.5739
  161DOPC  C31119494   5.683   3.483  15.867  0.0810 -0.2355 -0.4563
  161DOPC  H11X19495   5.699   3.389  15.924  1.1064  0.0802 -0.2062
  161DOPC  H11Y19496   5.785   3.528  15.870  0.2699 -0.7128  1.1783
  161DOPC  C31219497   5.664   3.454  15.715  0.8319  0.4331  0.5853
  161DOPC  H12X19498   5.574   3.392  15.693 -0.2437  2.8005 -2.4020
  161DOPC  H12Y19499   5.747   3.386  15.688  1.4864  0.4030  2.4906
  161DOPC  C31319500   5.662   3.581  15.618  0.8605  0.6000  0.3133
  161DOPC  H13X19501   5.559   3.622  15.628 -0.0431 -1.9264  2.6824
  161DOPC  H13Y19502   5.721   3.668  15.656  0.6998  0.2889  1.3260
  161DOPC  C31419503   5.685   3.538  15.473 -0.2682  0.1434  0.5952
  161DOPC  H14X19504   5.602   3.476  15.435  1.8633 -0.7795 -2.9103
  161DOPC  H14Y19505   5.673   3.631  15.413 -0.7176 -0.0334  0.4071
  161DOPC  C31519506   5.826   3.483  15.444 -0.4005  0.0871 -0.1809
  161DOPC  H15X19507   5.832   3.464  15.335 -0.6384 -2.5182  0.2128
  161DOPC  H15Y19508   5.819   3.388  15.500 -0.1135  0.6135  0.7702
  161DOPC  C31619509   5.951   3.562  15.500  0.4688  0.1436 -0.5629
  161DOPC  H16X19510   5.951   3.559  15.611  1.4968 -1.3719 -0.5707
  161DOPC  H16Y19511   6.044   3.513  15.464  0.2633 -1.1827  0.6279
  161DOPC  C31719512   5.976   3.706  15.455  0.1438  0.2346 -0.4014
  161DOPC  H17X19513   5.882   3.758  15.483 -1.2470 -1.3380 -1.8803
  161DOPC  H17Y19514   6.065   3.748  15.505  0.9663 -1.2774 -0.5491
  161DOPC  C31819515   5.990   3.726  15.302  0.5484  0.1362  0.0073
  161DOPC  H18X19516   6.002   3.834  15.279  1.9433 -0.4352 -2.2229
  161DOPC  H18Y19517   6.075   3.662  15.270 -1.1855 -3.6247  2.1591
  161DOPC  H18Z19518   5.895   3.691  15.256  0.2514  1.0247 -0.0810
  162DOPC     N19519   3.203   2.591  17.642 -0.3576 -0.3493 -0.3583
  162DOPC   C1219520   3.204   2.488  17.527 -0.8457 -1.0791  0.3434
  162DOPC  H12A19521   3.117   2.424  17.539 -1.5951  0.0679  1.3062
  162DOPC  H12B19522   3.279   2.411  17.539 -1.0258 -0.9012  3.5086
  162DOPC   C1319523   3.112   2.712  17.623  0.1648 -0.1765  0.6694
  162DOPC  H13A19524   3.148   2.774  17.542  1.6440 -1.5703  0.2188
  162DOPC  H13B19525   3.008   2.687  17.610  0.6544 -2.3807  0.7064
  162DOPC  H13C19526   3.113   2.771  17.714  1.1399  1.7138 -0.5009
  162DOPC   C1419527   3.342   2.653  17.653  0.1996  0.0979  0.7042
  162DOPC  H14A19528   3.407   2.572  17.685 -0.6542 -1.0036 -0.2543
  162DOPC  H14B19529   3.374   2.685  17.555  0.5106 -1.7413  0.1597
  162DOPC  H14C19530   3.348   2.736  17.722 -1.0339  0.3911  0.4662
  162DOPC   C1519531   3.169   2.525  17.773 -0.3495  0.0499  0.3708
  162DOPC  H15A19532   3.156   2.603  17.846 -1.0542  1.1986 -0.9350
  162DOPC  H15B19533   3.244   2.453  17.801  0.9824  1.2842  0.1021
  162DOPC  H15C19534   3.074   2.474  17.760  0.1117 -0.4893 -0.9690
  162DOPC   C1119535   3.218   2.541  17.382  0.0037  0.5283  0.2084
  162DOPC  H11A19536   3.174   2.457  17.325 -0.1844 -0.3652  1.6188
  162DOPC  H11B19537   3.162   2.635  17.365  0.5945  0.8050 -0.2179
  162DOPC     P19538   3.409   2.646  17.234  0.2840  0.0240 -0.4676
  162DOPC   O1319539   3.533   2.589  17.179  1.0382 -0.3783 -0.2531
  162DOPC   O1419540   3.411   2.782  17.286  0.2964 -0.3023  0.7653
  162DOPC   O1219541   3.354   2.550  17.349 -0.3294  0.1477  0.0993
  162DOPC   O1119542   3.292   2.648  17.121  0.2770  0.7509  0.2695
  162DOPC    C119543   3.264   2.531  17.045  0.8470 -0.3709 -0.0617
  162DOPC    HA19544   3.168   2.553  16.994  0.0618 -1.4616  0.9078
  162DOPC    HB19545   3.246   2.445  17.112 -1.9677  0.0028 -0.2032
  162DOPC    C219546   3.364   2.492  16.936 -0.0056 -0.2388  0.2786
  162DOPC    HS19547   3.470   2.523  16.949  0.0324  0.0512 -0.6590
  162DOPC   O2119548   3.316   2.557  16.818 -0.3612  0.7958 -0.0178
  162DOPC   C2119549   3.335   2.688  16.813 -0.0735 -0.7403  0.5528
  162DOPC   O2219550   3.424   2.747  16.873 -0.1284  0.0333  0.0429
  162DOPC   C2219551   3.234   2.753  16.716 -0.0653 -0.1206  0.3705
  162DOPC   H2R19552   3.135   2.710  16.741 -0.5939 -0.8802 -2.6500
  162DOPC   H2S19553   3.262   2.736  16.610 -0.1249 -1.6766  0.5928
  162DOPC    C319554   3.376   2.335  16.935 -0.0422 -0.1862  0.3429
  162DOPC    HX19555   3.271   2.299  16.941 -0.2356 -0.0356 -1.4744
  162DOPC    HY19556   3.425   2.311  17.032 -0.5071  4.2594  1.9166
  162DOPC   O3119557   3.447   2.271  16.823  0.4564  0.4501 -0.0647
  162DOPC   C3119558   3.379   2.165  16.761  0.0766 -0.0949 -0.6105
  162DOPC   O3219559   3.270   2.122  16.796 -0.3655  0.2322  0.5864
  162DOPC   C3219560   3.462   2.109  16.641 -1.0289  0.8508 -0.3304
  162DOPC   H2X19561   3.566   2.147  16.644 -0.0808 -1.5564  2.8404
  162DOPC   H2Y19562   3.457   1.998  16.648  0.6466  0.7931  0.5451
  162DOPC   C2319563   3.235   2.918  16.729  0.5796  0.3275  0.0420
  162DOPC   H3R19564   3.341   2.952  16.726  0.2903  1.1865 -1.7037
  162DOPC   H3S19565   3.182   2.938  16.824  1.8993 -3.4232  1.7712
  162DOPC   C2419566   3.166   2.981  16.608  0.2223  0.0963 -1.1644
  162DOPC   H4R19567   3.141   3.086  16.632 -1.1345 -0.4221 -0.1712
  162DOPC   H4S19568   3.071   2.925  16.593 -0.2827  0.4538  0.5110
  162DOPC   C2519569   3.259   2.989  16.485 -0.2246 -0.0178 -0.0315
  162DOPC   H5R19570   3.310   2.892  16.469 -0.9032 -0.5582  0.9622
  162DOPC   H5S19571   3.344   3.057  16.511  0.4364 -0.7572 -0.2175
  162DOPC   C2619572   3.187   3.037  16.360  0.2485  0.3283 -0.0763
  162DOPC   H6R19573   3.269   3.055  16.288  1.4611  0.1246  1.1998
  162DOPC   H6S19574   3.134   3.135  16.366 -2.6340 -1.2119  1.6774
  162DOPC   C2719575   3.087   2.936  16.298  0.5001  0.1971 -0.1378
  162DOPC   H7R19576   2.992   2.930  16.355 -0.1310  0.4474 -1.1564
  162DOPC   H7S19577   3.133   2.835  16.288  0.4354  0.3211 -2.0167
  162DOPC   C2819578   3.041   2.980  16.160 -0.6247  0.3424  1.1146
  162DOPC   H8R19579   3.131   3.004  16.100 -0.0428  1.4552  2.3901
  162DOPC   H8S19580   2.979   3.072  16.149 -2.8860 -1.3652 -1.7461
  162DOPC   C2919581   2.967   2.876  16.075 -0.7885 -0.1064 -0.3493
  162DOPC   H9R19582   2.875   2.835  16.120 -0.4111  0.5425  1.0732
  162DOPC  C21019583   2.986   2.841  15.941  0.3436 -0.0251 -0.0919
  162DOPC  H10R19584   2.915   2.766  15.902  1.3470 -0.7531 -0.5852
  162DOPC  C21119585   3.081   2.899  15.845 -0.5448 -0.2152 -0.4385
  162DOPC  H11R19586   3.182   2.855  15.843 -0.1418  0.6824 -0.3348
  162DOPC  H11S19587   3.096   3.004  15.877  0.2648  0.0388 -1.5886
  162DOPC  C21219588   3.016   2.901  15.703  0.4762  0.5874 -0.0446
  162DOPC  H12R19589   2.913   2.943  15.711 -0.2763 -1.1775  0.0640
  162DOPC  H12S19590   2.996   2.799  15.664 -1.6161  0.2446  1.6828
  162DOPC  C21319591   3.114   2.970  15.601 -0.7469  0.2100 -0.3868
  162DOPC  H13R19592   3.204   2.905  15.606 -0.6682  0.1254 -2.2628
  162DOPC  H13S19593   3.137   3.075  15.631 -2.9731  0.4333  0.7318
  162DOPC  C21419594   3.057   2.975  15.458 -0.1706  1.1450 -0.0452
  162DOPC  H14R19595   2.963   3.034  15.456 -0.6144  0.5667 -3.9312
  162DOPC  H14S19596   3.028   2.869  15.444  0.7580  0.9182 -0.3284
  162DOPC  C21519597   3.161   3.035  15.364 -0.0738 -0.0883 -0.3463
  162DOPC  H15R19598   3.250   2.970  15.358  0.1831  0.2968 -0.8486
  162DOPC  H15S19599   3.177   3.140  15.397  1.1994 -0.7808  1.3584
  162DOPC  C21619600   3.097   3.048  15.225 -0.4519 -0.8110  0.1980
  162DOPC  H16R19601   3.044   2.954  15.202 -0.0495 -0.7627 -0.9975
  162DOPC  H16S19602   3.189   3.047  15.163  0.1426  0.5365  1.0030
  162DOPC  C21719603   3.025   3.179  15.183 -0.0142 -0.3453 -0.0916
  162DOPC  H17R19604   2.923   3.174  15.228  0.7612 -1.8531  1.6431
  162DOPC  H17S19605   3.006   3.190  15.074  2.1380  0.6751 -0.4189
  162DOPC  C21819606   3.086   3.316  15.224  0.2261 -0.3417 -0.2708
  162DOPC  H18R19607   3.049   3.408  15.174 -0.0076 -0.7037 -0.7749
  162DOPC  H18S19608   3.193   3.312  15.194  0.4661  1.2089  0.2763
  162DOPC  H18T19609   3.084   3.324  15.334 -4.6185  1.4745 -0.2179
  162DOPC   C3319610   3.394   2.146  16.507  0.9271  0.1243 -0.5919
  162DOPC   H3X19611   3.377   2.256  16.501  1.7200  0.2214 -1.2094
  162DOPC   H3Y19612   3.291   2.106  16.518  0.3110  1.4015 -1.4776
  162DOPC   C3419613   3.455   2.084  16.381 -0.2799 -0.1563 -0.4922
  162DOPC   H4X19614   3.448   1.974  16.379 -0.3893 -0.1467 -0.6125
  162DOPC   H4Y19615   3.559   2.120  16.364 -1.1004  2.3389 -0.6659
  162DOPC   C3519616   3.382   2.136  16.252  0.6753  0.1093  0.2683
  162DOPC   H5X19617   3.387   2.247  16.256 -1.1006  0.1866  1.1214
  162DOPC   H5Y19618   3.275   2.106  16.258  1.0235 -0.9942  1.2127
  162DOPC   C3619619   3.450   2.081  16.127  0.3047  0.5002  0.5576
  162DOPC   H6X19620   3.554   2.119  16.123  0.5858 -0.2877  0.3228
  162DOPC   H6Y19621   3.469   1.972  16.138  2.0633  0.6192 -0.8821
  162DOPC   C3719622   3.361   2.088  16.001 -0.5193  0.1492 -0.3520
  162DOPC   H7X19623   3.263   2.062  16.045  1.5388 -1.6243  3.7913
  162DOPC   H7Y19624   3.359   2.192  15.961 -0.0375  0.4975  0.5039
  162DOPC   C3819625   3.408   1.990  15.893 -0.5266  0.3564  0.1431
  162DOPC   H8X19626   3.333   2.004  15.813 -2.8342  0.7394  2.2435
  162DOPC   H8Y19627   3.397   1.890  15.939  0.2195  0.5326  0.7233
  162DOPC   C3919628   3.547   2.017  15.847 -0.4063  0.3984 -0.0235
  162DOPC   H9X19629   3.588   2.119  15.856 -1.7223  0.8194  1.9332
  162DOPC  C31019630   3.610   1.928  15.765  0.3376 -0.2179 -0.5347
  162DOPC  H10X19631   3.703   1.950  15.711 -0.6892 -1.6653 -3.0239
  162DOPC  C31119632   3.548   1.792  15.729  0.2233 -0.3236  0.0777
  162DOPC  H11X19633   3.456   1.767  15.786 -0.2002 -0.3097 -0.5931
  162DOPC  H11Y19634   3.631   1.718  15.737  0.3306 -0.4756 -1.8855
  162DOPC  C31219635   3.502   1.783  15.580  0.0778 -0.1288 -0.7319
  162DOPC  H12X19636   3.423   1.858  15.558 -0.9272 -0.8258  0.3993
  162DOPC  H12Y19637   3.449   1.686  15.567  0.2598 -0.6445  1.8456
  162DOPC  C31319638   3.616   1.791  15.474  0.1427  0.0750  0.0987
  162DOPC  H13X19639   3.668   1.887  15.494  0.4968 -0.0827 -0.0609
  162DOPC  H13Y19640   3.678   1.699  15.481 -2.9341 -2.0293  3.1557
  162DOPC  C31419641   3.556   1.806  15.334 -1.1028  0.6395  0.0943
  162DOPC  H14X19642   3.484   1.891  15.328 -1.2351  0.5531  0.4628
  162DOPC  H14Y19643   3.651   1.835  15.284  0.2720  0.0271  2.2319
  162DOPC  C31519644   3.502   1.674  15.272  0.2197  0.4352 -0.4898
  162DOPC  H15X19645   3.425   1.627  15.337  0.4098 -1.8837 -1.8186
  162DOPC  H15Y19646   3.574   1.590  15.279  0.0451  0.3899  1.0118
  162DOPC  C31619647   3.461   1.685  15.129  0.3443 -0.4899  0.1043
  162DOPC  H16X19648   3.390   1.604  15.102  1.0249 -1.5011  1.2410
  162DOPC  H16Y19649   3.414   1.784  15.108 -1.2462 -1.4892 -1.3429
  162DOPC  C31719650   3.588   1.694  15.034 -0.2352  0.1609 -0.9005
  162DOPC  H17X19651   3.652   1.780  15.062 -0.8036  0.3254 -0.0686
  162DOPC  H17Y19652   3.646   1.602  15.054  0.5427  0.5335 -1.3819
  162DOPC  C31819653   3.565   1.700  14.889  0.3643 -0.0348  0.2081
  162DOPC  H18X19654   3.513   1.793  14.858 -1.5375 -1.1288 -0.0683
  162DOPC  H18Y19655   3.665   1.697  14.840  0.4288 -0.3922  0.3575
  162DOPC  H18Z19656   3.499   1.617  14.855 -1.6299  1.8777 -0.9017
  163DOPC     N19657   3.051   5.821  18.021 -0.3210  0.3337 -0.1345
  163DOPC   C1219658   2.991   5.815  17.881  0.7633  0.3346  0.1318
  163DOPC  H12A19659   2.948   5.716  17.870  1.7926 -0.0524 -0.5945
  163DOPC  H12B19660   3.070   5.834  17.810 -1.4799  1.5703 -2.2280
  163DOPC   C1319661   3.104   5.971  18.043 -0.1827  0.4287  0.9500
  163DOPC  H13A19662   3.015   6.032  18.046 -0.3444  0.2704 -0.2154
  163DOPC  H13B19663   3.147   5.994  18.140 -1.1586  0.6746  1.3336
  163DOPC  H13C19664   3.170   6.007  17.965 -0.6711  0.6767  0.6512
  163DOPC   C1419665   3.166   5.728  18.038 -0.0885  0.4637 -0.2587
  163DOPC  H14A19666   3.126   5.628  18.036 -1.4507  0.9886 -2.2451
  163DOPC  H14B19667   3.236   5.731  17.955 -1.5360  0.7034 -1.5122
  163DOPC  H14C19668   3.216   5.740  18.133 -2.1920 -0.7818  1.0893
  163DOPC   C1519669   2.955   5.789  18.132 -0.2696  0.0620  0.1757
  163DOPC  H15A19670   2.867   5.851  18.122 -0.2307 -0.0700 -1.1193
  163DOPC  H15B19671   3.005   5.797  18.228  1.5773 -1.2843 -0.6132
  163DOPC  H15C19672   2.913   5.691  18.119 -0.4522  0.0227  1.0215
  163DOPC   C1119673   2.884   5.919  17.842 -0.0534 -0.3992  1.1135
  163DOPC  H11A19674   2.945   6.007  17.813  0.4775 -1.0074  0.3511
  163DOPC  H11B19675   2.819   5.885  17.759  0.8259 -1.6509  0.9112
  163DOPC     P19676   2.733   6.095  17.980  0.2449 -0.0677 -0.0433
  163DOPC   O1319677   2.818   6.172  18.072  0.1627  0.4215  0.3565
  163DOPC   O1419678   2.591   6.074  18.023 -0.1437 -0.0114  0.6232
  163DOPC   O1219679   2.795   5.949  17.953 -0.1086  0.4031 -0.3673
  163DOPC   O1119680   2.742   6.155  17.831 -0.2195  0.0440 -0.2732
  163DOPC    C119681   2.633   6.199  17.751 -0.5175 -0.0138 -0.5289
  163DOPC    HA19682   2.649   6.300  17.708 -0.6062  0.5919  0.8071
  163DOPC    HB19683   2.539   6.188  17.809  0.8883 -2.0223  1.5289
  163DOPC    C219684   2.617   6.114  17.625 -0.4239  0.9022 -0.1946
  163DOPC    HS19685   2.584   6.011  17.651 -0.1003  0.7936 -0.2006
  163DOPC   O2119686   2.751   6.109  17.567  0.5580 -0.1360 -0.0002
  163DOPC   C2119687   2.772   6.010  17.491  0.6481 -0.4673  0.1777
  163DOPC   O2219688   2.703   5.911  17.479  0.0667 -0.1233  0.7219
  163DOPC   C2219689   2.907   6.029  17.422 -0.2677  0.1796 -0.3610
  163DOPC   H2R19690   2.975   6.036  17.510 -0.5028 -1.2811 -0.0394
  163DOPC   H2S19691   2.906   6.126  17.368  0.2830  0.5944  0.3441
  163DOPC    C319692   2.505   6.172  17.530 -0.1828  0.2805  0.8023
  163DOPC    HX19693   2.524   6.274  17.491 -3.2302 -0.3647 -2.9912
  163DOPC    HY19694   2.415   6.180  17.596 -0.6318  0.1612  0.2086
  163DOPC   O3119695   2.488   6.092  17.407 -0.2141 -0.0418  0.1293
  163DOPC   C3119696   2.412   5.986  17.426 -0.2263 -0.0621  0.1216
  163DOPC   O3219697   2.352   5.957  17.529  0.6522  0.1404 -0.1078
  163DOPC   C3219698   2.423   5.911  17.294 -0.0109  0.1701 -0.2228
  163DOPC   H2X19699   2.355   5.953  17.217  0.6785  1.0475 -0.3726
  163DOPC   H2Y19700   2.530   5.925  17.269  0.3815 -0.2927  1.1327
  163DOPC   C2319701   2.942   5.909  17.343 -0.2449  0.0360 -0.2733
  163DOPC   H3R19702   2.933   5.816  17.403  1.0158  1.3389  2.0843
  163DOPC   H3S19703   3.048   5.913  17.310 -0.4571 -0.5574 -1.0488
  163DOPC   C2419704   2.868   5.904  17.207 -0.1494  0.3296 -0.5358
  163DOPC   H4R19705   2.760   5.920  17.225  0.0991  2.4005 -0.6832
  163DOPC   H4S19706   2.893   5.805  17.163  0.1983  0.9816 -1.8882
  163DOPC   C2519707   2.927   6.009  17.110  0.0338 -0.5370 -0.4978
  163DOPC   H5R19708   3.038   6.015  17.119 -0.0265 -0.1580 -0.0039
  163DOPC   H5S19709   2.893   6.107  17.148  1.3465 -0.3047  0.1374
  163DOPC   C2619710   2.881   5.991  16.961 -0.3035 -0.1844 -0.3888
  163DOPC   H6R19711   2.774   5.965  16.975 -0.3043 -0.8956 -1.5198
  163DOPC   H6S19712   2.918   5.895  16.918  0.4704  0.8367 -2.1046
  163DOPC   C2719713   2.884   6.112  16.862 -0.9657 -0.6629 -0.5125
  163DOPC   H7R19714   2.985   6.152  16.840 -0.9713 -1.4884 -2.1374
  163DOPC   H7S19715   2.843   6.199  16.918  1.2441  0.7850 -1.0288
  163DOPC   C2819716   2.797   6.097  16.736 -0.1826 -0.0768  0.1983
  163DOPC   H8R19717   2.697   6.058  16.764 -1.1321  1.4977 -0.8090
  163DOPC   H8S19718   2.843   6.013  16.680 -0.7360 -1.7586  2.1832
  163DOPC   C2919719   2.797   6.224  16.649 -0.2056  0.8584 -0.3642
  163DOPC   H9R19720   2.864   6.308  16.674 -0.1857  0.5584  0.6458
  163DOPC  C21019721   2.729   6.239  16.531  0.1096  0.1260 -0.3665
  163DOPC  H10R19722   2.752   6.325  16.467  0.2998 -1.2346 -2.1998
  163DOPC  C21119723   2.638   6.137  16.465  0.3361 -1.0155 -0.4162
  163DOPC  H11R19724   2.536   6.181  16.459  0.3046 -1.0050  0.1343
  163DOPC  H11S19725   2.632   6.044  16.525 -2.6728 -1.0975 -0.7023
  163DOPC  C21219726   2.688   6.102  16.323  0.3582 -0.0060  0.9873
  163DOPC  H12R19727   2.636   6.006  16.298 -0.2825 -0.4271  3.7041
  163DOPC  H12S19728   2.798   6.082  16.329  0.7170  1.3906 -0.3265
  163DOPC  C21319729   2.660   6.207  16.207  0.4948  0.4620  0.2421
  163DOPC  H13R19730   2.700   6.302  16.249  1.4280  1.4201 -2.6165
  163DOPC  H13S19731   2.550   6.205  16.193  0.5902 -0.2153 -0.4344
  163DOPC  C21419732   2.747   6.181  16.075 -0.3973  0.6981 -0.4470
  163DOPC  H14R19733   2.707   6.094  16.018 -0.8336  1.6156 -1.5718
  163DOPC  H14S19734   2.852   6.165  16.108 -1.0470 -0.2992  1.2917
  163DOPC  C21519735   2.743   6.302  15.993 -0.4549  0.5279 -0.7113
  163DOPC  H15R19736   2.798   6.383  16.045 -1.0715 -0.2048  1.1489
  163DOPC  H15S19737   2.637   6.335  15.992 -0.8694 -0.7065  0.3569
  163DOPC  C21619738   2.804   6.286  15.845 -0.1204 -0.0378 -0.5556
  163DOPC  H16R19739   2.773   6.374  15.784 -1.7687  0.3243  0.7175
  163DOPC  H16S19740   2.750   6.198  15.805 -2.5232  2.0711 -2.2758
  163DOPC  C21719741   2.955   6.273  15.843  0.6276 -0.0748 -0.3250
  163DOPC  H17R19742   2.987   6.200  15.920 -1.8336 -0.8341  0.0406
  163DOPC  H17S19743   2.988   6.378  15.860 -1.0616  0.3624  0.4499
  163DOPC  C21819744   3.022   6.223  15.715 -0.0806  0.4411  0.6172
  163DOPC  H18R19745   3.130   6.247  15.716 -0.5930  3.3689 -1.3068
  163DOPC  H18S19746   2.974   6.269  15.625 -1.1982 -0.5716  0.6756
  163DOPC  H18T19747   3.019   6.112  15.707 -0.5353  0.3902  1.4085
  163DOPC   C3319748   2.409   5.755  17.319  0.4136 -0.1918  0.6759
  163DOPC   H3X19749   2.303   5.735  17.345  0.1371 -4.0723 -2.4180
  163DOPC   H3Y19750   2.477   5.718  17.399  0.9529 -0.5371  0.0723
  163DOPC   C3419751   2.437   5.680  17.188 -0.6409  0.4121  0.1441
  163DOPC   H4X19752   2.457   5.575  17.221 -0.6397  0.8113  1.4823
  163DOPC   H4Y19753   2.531   5.725  17.150  0.0462 -0.1202  1.1665
  163DOPC   C3519754   2.310   5.670  17.107  0.0237  0.7017  0.5292
  163DOPC   H5X19755   2.273   5.772  17.088  1.2156  0.9540 -0.6108
  163DOPC   H5Y19756   2.227   5.617  17.158 -0.4129  0.5962 -0.2677
  163DOPC   C3619757   2.336   5.594  16.972 -0.2241  0.1449 -0.1999
  163DOPC   H6X19758   2.260   5.635  16.902 -1.7967  1.7413  2.2875
  163DOPC   H6Y19759   2.431   5.632  16.927  0.7096  0.0726  1.6226
  163DOPC   C3719760   2.331   5.443  16.986  0.0321 -0.0032 -0.5094
  163DOPC   H7X19761   2.387   5.424  17.080  0.9712 -0.5551 -1.1703
  163DOPC   H7Y19762   2.222   5.426  17.001  0.0404  0.6554  0.3397
  163DOPC   C3819763   2.396   5.369  16.867  0.2293 -0.0753 -0.5395
  163DOPC   H8X19764   2.414   5.264  16.898 -3.0692 -0.7421 -0.5715
  163DOPC   H8Y19765   2.489   5.423  16.839 -0.3107  0.7939 -0.7042
  163DOPC   C3919766   2.312   5.372  16.750  0.1272 -0.1530  0.1479
  163DOPC   H9X19767   2.319   5.466  16.694  0.6727 -0.8256 -0.9608
  163DOPC  C31019768   2.229   5.280  16.701 -0.5162 -0.9703 -0.4745
  163DOPC  H10X19769   2.172   5.295  16.609  0.2080  1.2647 -0.6180
  163DOPC  C31119770   2.205   5.148  16.763 -0.3629  0.4446  0.9054
  163DOPC  H11X19771   2.103   5.111  16.736  0.1236  0.6969 -1.4745
  163DOPC  H11Y19772   2.216   5.150  16.873  1.3282  2.2454  0.7554
  163DOPC  C31219773   2.296   5.047  16.686  0.1005  0.6522 -0.0093
  163DOPC  H12X19774   2.286   4.955  16.748 -2.6993  2.1347  1.9381
  163DOPC  H12Y19775   2.402   5.076  16.671  0.1233  1.5423  1.6725
  163DOPC  C31319776   2.238   5.019  16.545  0.2081  0.2703  0.2159
  163DOPC  H13X19777   2.149   4.952  16.552 -0.6264  1.4598  1.3961
  163DOPC  H13Y19778   2.192   5.110  16.500 -0.6403 -1.2336 -2.1762
  163DOPC  C31419779   2.347   4.961  16.451 -0.3422  0.0643 -0.2946
  163DOPC  H14X19780   2.441   5.019  16.457  0.0674 -0.6490  0.3458
  163DOPC  H14Y19781   2.361   4.860  16.495 -1.1540 -0.5018 -1.2775
  163DOPC  C31519782   2.307   4.936  16.306 -0.0335 -0.2900  0.1752
  163DOPC  H15X19783   2.377   4.872  16.248 -1.1349  0.2582 -1.8967
  163DOPC  H15Y19784   2.302   5.033  16.252 -1.5196  0.2916  1.2965
  163DOPC  C31619785   2.163   4.878  16.288 -0.1506 -0.2982 -0.3699
  163DOPC  H16X19786   2.086   4.937  16.342 -0.0541 -0.4285 -0.0869
  163DOPC  H16Y19787   2.138   4.874  16.180  2.2430  4.1344 -1.3069
  163DOPC  C31719788   2.150   4.735  16.335 -0.1922 -0.2054  0.0542
  163DOPC  H17X19789   2.245   4.682  16.310 -0.0158  0.6546 -1.1409
  163DOPC  H17Y19790   2.143   4.735  16.446  1.4910  2.6069  0.2522
  163DOPC  C31819791   2.029   4.666  16.275 -0.1577 -0.5179 -0.3906
  163DOPC  H18X19792   2.042   4.661  16.165  0.1030 -3.7149 -0.3014
  163DOPC  H18Y19793   2.010   4.567  16.322 -1.2297  0.7426  2.0679
  163DOPC  H18Z19794   1.945   4.737  16.296 -0.2046 -0.1219 -1.8293
  164DOPC     N19795   1.212   3.127  18.102 -0.1578  0.1059 -0.2437
  164DOPC   C1219796   1.330   3.223  18.091 -0.2972 -0.3060  0.4570
  164DOPC  H12A19797   1.317   3.281  18.001 -3.6635 -2.7755 -0.8370
  164DOPC  H12B19798   1.422   3.166  18.079 -0.8868 -1.5288  1.4914
  164DOPC   C1319799   1.208   3.034  17.989 -0.0998  0.0341 -0.1484
  164DOPC  H13A19800   1.111   2.988  17.975 -0.3481  0.6820 -0.5518
  164DOPC  H13B19801   1.230   3.087  17.898  0.1587 -1.4824 -1.0004
  164DOPC  H13C19802   1.281   2.954  17.999 -2.4157 -1.9480  3.3682
  164DOPC   C1419803   1.082   3.203  18.086 -0.7888  0.1096  0.7913
  164DOPC  H14A19804   1.099   3.296  18.138  1.1372 -0.9081  2.1427
  164DOPC  H14B19805   1.067   3.229  17.982 -0.2317 -0.8702  0.4433
  164DOPC  H14C19806   0.997   3.149  18.123  0.1544 -0.9091  1.5379
  164DOPC   C1519807   1.197   3.048  18.229  0.0325  0.1920  0.4348
  164DOPC  H15A19808   1.179   3.110  18.316 -0.9397  1.4233 -0.6122
  164DOPC  H15B19809   1.288   2.990  18.244 -1.3540 -1.4735  3.4697
  164DOPC  H15C19810   1.121   2.971  18.228  1.4331 -1.2685 -1.2478
  164DOPC   C1119811   1.347   3.327  18.204  0.0468 -0.5949 -0.0807
  164DOPC  H11A19812   1.340   3.280  18.304  0.1090  0.4475  0.4235
  164DOPC  H11B19813   1.454   3.357  18.193 -0.0624  0.5740  1.6567
  164DOPC     P19814   1.259   3.559  18.107  0.2518 -0.2451 -0.0545
  164DOPC   O1319815   1.388   3.621  18.126 -0.3255  0.1971 -0.2816
  164DOPC   O1419816   1.133   3.634  18.127  0.4841  0.4558  0.4927
  164DOPC   O1219817   1.244   3.426  18.197  0.3360  0.2185 -0.5331
  164DOPC   O1119818   1.262   3.498  17.962  0.3661 -0.2321 -0.7598
  164DOPC    C119819   1.240   3.579  17.846  0.6517 -0.1565  0.4072
  164DOPC    HA19820   1.322   3.651  17.823 -0.7427  1.3923  0.0824
  164DOPC    HB19821   1.148   3.641  17.854  0.2382 -0.9820  3.2045
  164DOPC    C219822   1.201   3.483  17.729  0.0490  0.0387  0.4626
  164DOPC    HS19823   1.252   3.384  17.726  0.2130  0.1112 -2.3380
  164DOPC   O2119824   1.219   3.553  17.603 -0.3456 -0.1163  0.0258
  164DOPC   C2119825   1.342   3.556  17.568  0.0337 -0.0295  0.4611
  164DOPC   O2219826   1.432   3.487  17.621 -0.4414  0.0382 -0.2616
  164DOPC   C2219827   1.366   3.665  17.456  0.2319  0.9805 -0.2593
  164DOPC   H2R19828   1.455   3.724  17.489  0.5558 -0.9775  2.6591
  164DOPC   H2S19829   1.276   3.730  17.452 -0.0344  0.5635 -1.9428
  164DOPC    C319830   1.056   3.441  17.741 -0.5224  0.5215  0.3113
  164DOPC    HX19831   0.996   3.534  17.732 -0.6310  0.4719  0.4987
  164DOPC    HY19832   1.049   3.401  17.845 -1.2014  1.0874  0.4943
  164DOPC   O3119833   1.006   3.356  17.637 -0.2602  0.1898 -0.7417
  164DOPC   C3119834   1.057   3.230  17.647  0.5762 -0.5822  0.1775
  164DOPC   O3219835   1.113   3.194  17.747 -0.5444  0.7190  0.2909
  164DOPC   C3219836   1.038   3.157  17.514  0.3847  1.2473  0.6870
  164DOPC   H2X19837   1.039   3.048  17.538  0.9060  1.1051  0.0456
  164DOPC   H2Y19838   0.941   3.174  17.463  1.1236 -0.4800 -1.4420
  164DOPC   C2319839   1.390   3.604  17.314  0.1972 -0.6568  0.3035
  164DOPC   H3R19840   1.449   3.511  17.328  1.8810  0.5007  1.3456
  164DOPC   H3S19841   1.457   3.680  17.269  1.8995 -2.2035  0.1134
  164DOPC   C2419842   1.258   3.586  17.241  0.0558  0.4095 -0.0161
  164DOPC   H4R19843   1.209   3.684  17.227  0.8205  1.2963  2.8321
  164DOPC   H4S19844   1.185   3.520  17.293  2.2135 -2.1855 -0.0762
  164DOPC   C2519845   1.282   3.509  17.105  0.5233 -0.4429 -0.0546
  164DOPC   H5R19846   1.181   3.474  17.077  0.7421 -2.0509  1.0198
  164DOPC   H5S19847   1.344   3.424  17.141  1.3081 -0.0319 -0.4145
  164DOPC   C2619848   1.334   3.591  16.994  0.6259 -0.1252  0.3611
  164DOPC   H6R19849   1.435   3.625  17.024 -0.1417  0.9975  1.7722
  164DOPC   H6S19850   1.272   3.683  16.986  1.7274  0.5760 -0.4401
  164DOPC   C2719851   1.329   3.521  16.856  0.5210 -0.6088  0.4879
  164DOPC   H7R19852   1.240   3.456  16.843  1.1249 -1.2383 -0.5938
  164DOPC   H7S19853   1.418   3.456  16.851  0.6341 -0.4862  0.8636
  164DOPC   C2819854   1.355   3.614  16.732 -0.0474  0.0276  0.9472
  164DOPC   H8R19855   1.438   3.679  16.767  0.4045 -0.7926  1.4097
  164DOPC   H8S19856   1.271   3.678  16.698  2.3996  2.5146 -0.8699
  164DOPC   C2919857   1.398   3.528  16.615 -0.1178  0.1544 -0.7331
  164DOPC   H9R19858   1.485   3.464  16.635  0.3580  0.5737 -1.4254
  164DOPC  C21019859   1.362   3.539  16.493  0.0966 -0.1654  0.3565
  164DOPC  H10R19860   1.416   3.473  16.423 -1.3054 -1.9153  0.8365
  164DOPC  C21119861   1.269   3.647  16.432  0.5604 -0.6764  0.5717
  164DOPC  H11R19862   1.232   3.714  16.513 -1.3524 -0.9753 -0.0144
  164DOPC  H11S19863   1.184   3.592  16.387  0.0105  1.1576 -0.7160
  164DOPC  C21219864   1.329   3.726  16.316  0.4976 -0.3800  0.1082
  164DOPC  H12R19865   1.406   3.799  16.347 -0.9938  1.9846 -1.4257
  164DOPC  H12S19866   1.253   3.797  16.277 -0.3392 -1.3434 -0.0883
  164DOPC  C21319867   1.368   3.634  16.198  0.2480 -0.3340 -0.4281
  164DOPC  H13R19868   1.282   3.572  16.167 -0.6571 -0.0322  1.3452
  164DOPC  H13S19869   1.450   3.566  16.230  0.7573  1.3802  2.2419
  164DOPC  C21419870   1.404   3.723  16.077  0.4320  0.2351  0.0837
  164DOPC  H14R19871   1.482   3.794  16.114  1.9881 -1.5316  0.3398
  164DOPC  H14S19872   1.317   3.783  16.043  0.3980 -0.2091 -0.6204
  164DOPC  C21519873   1.438   3.637  15.951 -0.2461 -0.8653 -0.4812
  164DOPC  H15R19874   1.377   3.547  15.931  1.3831 -2.0063 -0.4753
  164DOPC  H15S19875   1.540   3.595  15.956  0.8478  1.5918 -0.6177
  164DOPC  C21619876   1.440   3.727  15.823 -0.2014  0.5394 -0.0578
  164DOPC  H16R19877   1.500   3.817  15.844 -3.1010  1.9318  3.2997
  164DOPC  H16S19878   1.338   3.765  15.800 -0.9686 -1.7000 -0.6217
  164DOPC  C21719879   1.482   3.644  15.698  0.2075 -0.9628  0.3357
  164DOPC  H17R19880   1.412   3.561  15.675  0.1656 -0.9502  0.4167
  164DOPC  H17S19881   1.587   3.610  15.707  0.7944  0.4676 -0.8362
  164DOPC  C21819882   1.464   3.731  15.574 -0.0030 -0.0814 -0.0559
  164DOPC  H18R19883   1.523   3.825  15.580  0.9477 -0.7635  2.7352
  164DOPC  H18S19884   1.358   3.763  15.568  0.2890  0.8047 -0.6086
  164DOPC  H18T19885   1.498   3.677  15.483 -1.5143  0.1872 -0.8100
  164DOPC   C3319886   1.153   3.194  17.413 -0.6838 -0.6704  0.2631
  164DOPC   H3X19887   1.248   3.185  17.469 -0.5312 -0.3531  0.0521
  164DOPC   H3Y19888   1.140   3.297  17.375 -0.7640 -1.0053 -0.6280
  164DOPC   C3419889   1.149   3.105  17.291  0.1425  0.5517 -0.3086
  164DOPC   H4X19890   1.042   3.103  17.264  0.2921 -0.3440 -0.8514
  164DOPC   H4Y19891   1.180   3.002  17.319 -1.4881  0.3557  0.8961
  164DOPC   C3519892   1.231   3.161  17.173 -0.0014  0.3774 -0.1422
  164DOPC   H5X19893   1.335   3.179  17.208 -0.1018 -0.4668  0.6311
  164DOPC   H5Y19894   1.193   3.261  17.144 -1.5562 -0.9519 -3.0841
  164DOPC   C3619895   1.229   3.067  17.054 -0.2488 -0.7222 -0.0102
  164DOPC   H6X19896   1.303   2.985  17.064  1.6936  0.7798 -1.2755
  164DOPC   H6Y19897   1.125   3.032  17.034 -0.5179 -0.2340  0.5130
  164DOPC   C3719898   1.269   3.150  16.934 -0.5910  0.7758 -0.4820
  164DOPC   H7X19899   1.183   3.190  16.876 -1.2543  0.7232  0.4558
  164DOPC   H7Y19900   1.341   3.229  16.963 -1.1367  0.8549  0.7160
  164DOPC   C3819901   1.336   3.054  16.830 -1.2096 -0.2015  0.1161
  164DOPC   H8X19902   1.427   3.000  16.866  0.1969  1.3874 -0.9118
  164DOPC   H8Y19903   1.355   3.124  16.747  0.3810  1.6110  1.9034
  164DOPC   C3919904   1.246   2.950  16.780  0.2161  0.5193  0.1871
  164DOPC   H9X19905   1.261   2.852  16.829 -0.5103  0.0931 -0.4232
  164DOPC  C31019906   1.160   2.952  16.674 -0.2120  0.0795  0.0059
  164DOPC  H10X19907   1.126   2.851  16.646  1.2211 -0.5808  0.4994
  164DOPC  C31119908   1.127   3.066  16.587  0.1350  0.7893  0.1568
  164DOPC  H11X19909   1.159   3.157  16.641 -0.1787  0.6513  0.5850
  164DOPC  H11Y19910   1.019   3.058  16.562 -0.1736  1.7807  1.1008
  164DOPC  C31219911   1.207   3.051  16.451  0.0802 -0.6527 -0.1572
  164DOPC  H12X19912   1.162   2.964  16.398 -0.4717 -0.2426 -0.3671
  164DOPC  H12Y19913   1.315   3.025  16.458  0.0436 -0.9759 -0.6879
  164DOPC  C31319914   1.186   3.179  16.369  0.4006  0.5910  0.4412
  164DOPC  H13X19915   1.098   3.236  16.406  0.4663 -0.2572  1.9940
  164DOPC  H13Y19916   1.280   3.238  16.366 -0.6420  2.2723 -0.3479
  164DOPC  C31419917   1.155   3.127  16.226 -0.5500  0.3641  0.2688
  164DOPC  H14X19918   1.065   3.061  16.224  0.4914 -1.1435 -1.9237
  164DOPC  H14Y19919   1.234   3.052  16.205  0.7802  2.3976 -2.5056
  164DOPC  C31519920   1.151   3.237  16.121  0.3281  1.2583 -0.1071
  164DOPC  H15X19921   1.239   3.304  16.127  2.0261 -0.9082  0.2059
  164DOPC  H15Y19922   1.054   3.291  16.128  1.3372  4.0000 -3.9384
  164DOPC  C31619923   1.152   3.168  15.987  0.3019 -0.0693 -0.5819
  164DOPC  H16X19924   1.243   3.105  15.985 -0.2247 -0.8568 -0.0416
  164DOPC  H16Y19925   1.072   3.093  15.974 -0.8323  1.0448 -0.2564
  164DOPC  C31719926   1.161   3.257  15.861 -0.5628 -0.0355 -0.1665
  164DOPC  H17X19927   1.057   3.294  15.849 -1.0213 -0.5284  1.8134
  164DOPC  H17Y19928   1.228   3.338  15.896  0.2813 -0.2400 -1.2647
  164DOPC  C31819929   1.230   3.193  15.734 -0.0060  0.5535 -0.1418
  164DOPC  H18X19930   1.217   3.266  15.652 -1.0550  0.2331 -0.2816
  164DOPC  H18Y19931   1.338   3.179  15.753  0.0194  0.1634 -0.5641
  164DOPC  H18Z19932   1.179   3.098  15.707  0.9703 -0.7352  2.1838
  165DOPC     N19933   5.387   3.975  18.357  0.7538 -0.4454 -0.1793
  165DOPC   C1219934   5.327   4.041  18.240 -0.8637 -0.0784  0.0293
  165DOPC  H12A19935   5.264   4.124  18.268 -2.6116 -1.8522  1.7016
  165DOPC  H12B19936   5.264   3.965  18.196  0.2118 -1.7265  1.1698
  165DOPC   C1319937   5.463   3.856  18.310  0.4345  0.3086  0.2419
  165DOPC  H13A19938   5.403   3.798  18.242 -1.7731  0.6109  1.8430
  165DOPC  H13B19939   5.558   3.891  18.270 -0.2090  2.1623  0.2298
  165DOPC  H13C19940   5.497   3.794  18.392  3.2267  0.1644 -0.9078
  165DOPC   C1419941   5.272   3.920  18.440  1.0106  0.1781 -0.1888
  165DOPC  H14A19942   5.202   3.860  18.383  0.3935  2.2541 -1.7279
  165DOPC  H14B19943   5.299   3.873  18.534  2.0732 -0.5605 -0.8467
  165DOPC  H14C19944   5.210   4.001  18.476  0.3310 -0.7651  0.8335
  165DOPC   C1519945   5.481   4.061  18.444 -0.4486 -0.2073  0.3115
  165DOPC  H15A19946   5.546   4.120  18.382 -2.1669  1.0411 -0.4026
  165DOPC  H15B19947   5.541   3.997  18.507  0.5789  0.3224 -0.1118
  165DOPC  H15C19948   5.426   4.134  18.502 -1.9749 -2.1465  1.4487
  165DOPC   C1119949   5.413   4.096  18.129 -0.3215  0.8314 -0.8321
  165DOPC  H11A19950   5.486   4.022  18.089 -0.0635 -0.3629  1.6356
  165DOPC  H11B19951   5.347   4.113  18.042 -2.9457 -0.7835  0.7142
  165DOPC     P19952   5.397   4.344  18.187 -0.0412  0.2940  0.6094
  165DOPC   O1319953   5.482   4.463  18.205 -0.1369  0.0867 -0.5159
  165DOPC   O1419954   5.293   4.324  18.293  0.1193 -0.4426 -0.2713
  165DOPC   O1219955   5.483   4.211  18.175 -0.2251 -0.2385  0.5702
  165DOPC   O1119956   5.313   4.355  18.053  0.3169  0.1358 -0.3500
  165DOPC    C119957   5.369   4.381  17.926  0.0507 -0.1828  0.4032
  165DOPC    HA19958   5.291   4.360  17.850 -3.5941  1.1477  3.4151
  165DOPC    HB19959   5.466   4.330  17.914  0.5939  1.3306 -2.5758
  165DOPC    C219960   5.404   4.531  17.909  0.1285 -0.6728 -0.1500
  165DOPC    HS19961   5.465   4.564  17.996 -1.7117  2.7944  0.0285
  165DOPC   O2119962   5.281   4.608  17.917 -0.1573  0.0388  0.1261
  165DOPC   C2119963   5.292   4.737  17.925 -0.0354 -0.4819  0.1894
  165DOPC   O2219964   5.396   4.792  17.965  0.3648  0.1508 -0.3741
  165DOPC   C2219965   5.166   4.812  17.866 -0.5029 -0.0577  0.1804
  165DOPC   H2R19966   5.103   4.833  17.956  0.6973  0.0964  1.0050
  165DOPC   H2S19967   5.108   4.745  17.800  0.9886 -3.1875  1.8524
  165DOPC    C319968   5.496   4.567  17.780 -0.1371  0.1248 -0.1609
  165DOPC    HX19969   5.579   4.493  17.785 -0.2878 -0.1496 -1.3498
  165DOPC    HY19970   5.546   4.663  17.803 -0.9623  0.2091  1.4342
  165DOPC   O3119971   5.419   4.565  17.651 -0.2235 -0.3969 -0.3969
  165DOPC   C3119972   5.435   4.450  17.584 -0.5745  0.2947 -0.1526
  165DOPC   O3219973   5.498   4.351  17.621 -0.2234 -0.4228  0.0717
  165DOPC   C3219974   5.384   4.458  17.436 -0.2253 -0.1212 -0.8413
  165DOPC   H2X19975   5.352   4.355  17.412 -0.5894 -0.1821 -0.1326
  165DOPC   H2Y19976   5.291   4.518  17.436 -1.0273 -1.3378 -0.1421
  165DOPC   C2319977   5.207   4.949  17.801 -0.0423 -0.0131 -0.3400
  165DOPC   H3R19978   5.267   5.004  17.877 -2.2704 -1.1426  2.4419
  165DOPC   H3S19979   5.122   5.020  17.791  1.5191  1.8788 -0.7621
  165DOPC   C2419980   5.277   4.920  17.669  0.3478 -0.4734 -0.7315
  165DOPC   H4R19981   5.239   4.827  17.621 -0.0658 -1.3982  1.2924
  165DOPC   H4S19982   5.381   4.891  17.691  0.6199  0.9736  0.0453
  165DOPC   C2519983   5.271   5.025  17.566 -0.2843 -0.0681  0.5838
  165DOPC   H5R19984   5.323   5.114  17.607 -2.6959  1.2295  1.0148
  165DOPC   H5S19985   5.164   5.050  17.544 -0.1657  0.5892  0.7117
  165DOPC   C2619986   5.338   4.981  17.432  0.1214 -0.7864 -0.2587
  165DOPC   H6R19987   5.300   4.876  17.423 -0.9754 -0.6734  2.2651
  165DOPC   H6S19988   5.448   4.985  17.449  0.0431  1.7106 -0.0398
  165DOPC   C2719989   5.302   5.062  17.310 -0.5352  0.0908  1.1181
  165DOPC   H7R19990   5.349   5.161  17.327  0.9717 -0.4867  0.4598
  165DOPC   H7S19991   5.192   5.077  17.298 -0.5032 -0.7185 -0.3186
  165DOPC   C2819992   5.348   4.997  17.169  0.2474  0.6961  0.3105
  165DOPC   H8R19993   5.279   5.024  17.086 -1.6469  0.3312  1.7260
  165DOPC   H8S19994   5.329   4.888  17.181 -0.4760  1.0169  2.3318
  165DOPC   C2919995   5.501   5.016  17.141  0.6724  0.2333 -0.0040
  165DOPC   H9R19996   5.561   4.995  17.231  1.8714 -2.6810 -1.3730
  165DOPC  C21019997   5.562   5.057  17.026  0.2223 -0.4374  0.3049
  165DOPC  H10R19998   5.672   5.061  17.026  0.1971  0.8640  1.3623
  165DOPC  C21119999   5.497   5.082  16.888  0.0149 -0.2874  0.2790
  165DOPC  H11R20000   5.482   5.191  16.875 -2.2120 -0.5366  0.4584
  165DOPC  H11S20001   5.395   5.038  16.881  0.0884 -0.3779 -0.3105
  165DOPC  C21220002   5.566   5.016  16.767 -0.0065  0.0413  0.3923
  165DOPC  H12R20003   5.577   4.906  16.779  2.5352 -0.0914 -2.0618
  165DOPC  H12S20004   5.669   5.057  16.759 -0.5072  1.0647 -1.5467
  165DOPC  C21320005   5.485   5.047  16.638  0.2687  0.1778  0.2526
  165DOPC  H13R20006   5.475   5.157  16.627 -0.1212  0.1313  0.1379
  165DOPC  H13S20007   5.384   5.003  16.652 -0.2466  0.6551 -1.6820
  165DOPC  C21420008   5.540   4.985  16.512  0.5785 -0.3981  0.7587
  165DOPC  H14R20009   5.564   4.878  16.530 -0.2160 -1.0071 -1.4732
  165DOPC  H14S20010   5.634   5.027  16.470 -0.6785  3.6076  1.5438
  165DOPC  C21520011   5.424   4.997  16.409  0.0825  0.1789 -0.3960
  165DOPC  H15R20012   5.384   5.100  16.419 -1.7124 -0.4596 -0.6248
  165DOPC  H15S20013   5.337   4.935  16.438  0.4903 -0.1395  0.1529
  165DOPC  C21620014   5.473   4.970  16.272 -0.0689 -0.9960 -0.0057
  165DOPC  H16R20015   5.524   4.871  16.274 -0.2065 -1.1102 -1.4455
  165DOPC  H16S20016   5.548   5.045  16.240 -0.7000 -0.7240 -0.8550
  165DOPC  C21720017   5.367   4.962  16.158 -0.1622 -0.7756 -0.0014
  165DOPC  H17R20018   5.418   4.917  16.070  1.7613 -0.4127  0.8783
  165DOPC  H17S20019   5.334   5.064  16.129 -0.6708 -0.9329  0.0248
  165DOPC  C21820020   5.237   4.879  16.182 -0.0869 -0.0167  0.3985
  165DOPC  H18R20021   5.193   4.902  16.281 -0.7931  0.7355 -0.0821
  165DOPC  H18S20022   5.250   4.770  16.162  0.6855 -0.1139  1.3148
  165DOPC  H18T20023   5.167   4.915  16.104  2.2173  0.5316 -1.5403
  165DOPC   C3320024   5.483   4.513  17.331 -0.4427  0.3098 -0.0803
  165DOPC   H3X20025   5.590   4.492  17.352 -0.5546  0.8729  1.1786
  165DOPC   H3Y20026   5.479   4.624  17.332  1.1894  0.4533  3.0878
  165DOPC   C3420027   5.444   4.466  17.189  0.7701  0.8480 -0.4573
  165DOPC   H4X20028   5.334   4.474  17.178  0.9741  1.8522 -1.9356
  165DOPC   H4Y20029   5.460   4.357  17.173 -1.4712 -0.0739  2.4991
  165DOPC   C3520030   5.510   4.549  17.082 -0.4625 -0.3017  0.7537
  165DOPC   H5X20031   5.592   4.612  17.123 -0.5127  1.2143 -1.3506
  165DOPC   H5Y20032   5.434   4.603  17.023 -0.9461 -3.9700 -2.3822
  165DOPC   C3620033   5.578   4.459  16.984 -0.0930  0.6484 -0.3347
  165DOPC   H6X20034   5.659   4.402  17.034 -1.1146  1.5524  2.5621
  165DOPC   H6Y20035   5.499   4.390  16.946 -0.5117  0.4269  0.8646
  165DOPC   C3720036   5.621   4.549  16.871 -0.9061  0.6055 -0.1474
  165DOPC   H7X20037   5.712   4.610  16.892 -0.4313  0.4583 -1.6435
  165DOPC   H7Y20038   5.540   4.624  16.855 -0.7365  0.9451  0.5752
  165DOPC   C3820039   5.639   4.479  16.738 -0.7174 -0.7064 -0.3620
  165DOPC   H8X20040   5.543   4.429  16.714 -0.1416 -3.0112  1.6745
  165DOPC   H8Y20041   5.717   4.403  16.764  0.4887  0.9835  1.2671
  165DOPC   C3920042   5.692   4.553  16.622 -0.6454 -0.7035  0.2820
  165DOPC   H9X20043   5.780   4.616  16.643 -1.1180  0.9636 -2.2559
  165DOPC  C31020044   5.636   4.579  16.503  0.4733  0.4692 -0.7614
  165DOPC  H10X20045   5.682   4.641  16.425 -0.1763  1.3354 -0.4769
  165DOPC  C31120046   5.503   4.519  16.447  0.1495 -0.3712  0.1161
  165DOPC  H11X20047   5.428   4.597  16.424  0.0894 -0.4783 -0.0540
  165DOPC  H11Y20048   5.453   4.452  16.520  0.6920  0.1450  0.9856
  165DOPC  C31220049   5.537   4.439  16.319 -0.4377  0.1370 -0.0507
  165DOPC  H12X20050   5.444   4.395  16.276 -0.9302 -0.1208  1.2113
  165DOPC  H12Y20051   5.597   4.352  16.354 -2.0590 -1.1522 -0.3272
  165DOPC  C31320052   5.590   4.530  16.209 -0.0493 -0.6305 -1.1737
  165DOPC  H13X20053   5.522   4.619  16.210  0.9699  0.1726  0.1559
  165DOPC  H13Y20054   5.691   4.565  16.239 -0.7344  0.8726 -0.5168
  165DOPC  C31420055   5.606   4.477  16.064  0.4431  0.1908 -0.5890
  165DOPC  H14X20056   5.674   4.390  16.079  3.7805  2.6348 -0.5123
  165DOPC  H14Y20057   5.506   4.443  16.029  0.0604  1.3378 -0.6447
  165DOPC  C31520058   5.663   4.584  15.970  0.3233  0.7032 -0.0938
  165DOPC  H15X20059   5.745   4.641  16.020 -0.3373  1.2739  0.3474
  165DOPC  H15Y20060   5.588   4.662  15.946 -1.1171 -0.1738  1.3959
  165DOPC  C31620061   5.723   4.518  15.847 -0.0439  0.3784  0.1175
  165DOPC  H16X20062   5.800   4.446  15.882 -0.2437 -0.0625 -0.3473
  165DOPC  H16Y20063   5.647   4.472  15.780  1.2021  0.4197 -1.3797
  165DOPC  C31720064   5.803   4.627  15.773  0.9373 -0.5788 -0.0799
  165DOPC  H17X20065   5.717   4.683  15.729  0.6188 -2.5313 -2.1378
  165DOPC  H17Y20066   5.869   4.684  15.841  0.2951 -1.6397  1.4907
  165DOPC  C31820067   5.866   4.574  15.646 -0.1278 -0.2239 -0.0222
  165DOPC  H18X20068   5.925   4.480  15.655  3.6333  1.7683 -1.6661
  165DOPC  H18Y20069   5.795   4.565  15.561 -1.3155 -0.5425  0.9712
  165DOPC  H18Z20070   5.935   4.656  15.616 -2.5528  1.7022 -0.6559
  166DOPC     N20071   0.677   6.045  18.653 -0.7102 -0.2594 -0.4489
  166DOPC   C1220072   0.705   5.899  18.625 -0.2289 -0.3199 -0.1350
  166DOPC  H12A20073   0.685   5.879  18.521 -1.0024 -3.2953  0.4935
  166DOPC  H12B20074   0.637   5.841  18.685 -1.3415  0.5517 -0.5227
  166DOPC   C1320075   0.528   6.075  18.625 -0.4894  0.6247 -0.2449
  166DOPC  H13A20076   0.500   6.042  18.526  1.4039  1.2766 -1.0257
  166DOPC  H13B20077   0.459   6.025  18.692 -0.1345  0.8211  0.2700
  166DOPC  H13C20078   0.524   6.182  18.637  0.5592  0.8909 -1.9221
  166DOPC   C1420079   0.759   6.123  18.547  0.1216 -0.8032  0.6846
  166DOPC  H14A20080   0.753   6.229  18.567  0.1743 -0.6900  0.1139
  166DOPC  H14B20081   0.865   6.101  18.550  0.8358  1.8898 -1.0024
  166DOPC  H14C20082   0.721   6.122  18.446 -0.2922 -0.5134  0.8338
  166DOPC   C1520083   0.714   6.090  18.785 -0.3000 -0.2617  0.6157
  166DOPC  H15A20084   0.653   6.053  18.866 -1.3429  1.1631  0.5160
  166DOPC  H15B20085   0.708   6.198  18.782 -1.1891 -0.2676 -3.5575
  166DOPC  H15C20086   0.819   6.070  18.801 -0.0927  0.4440  0.1773
  166DOPC   C1120087   0.851   5.853  18.656  0.8335 -0.2958  0.1702
  166DOPC  H11A20088   0.881   5.875  18.761  3.5740 -0.3047 -0.5412
  166DOPC  H11B20089   0.852   5.742  18.649  0.3580 -0.1880 -2.8295
  166DOPC     P20090   0.997   5.854  18.438  0.2036  0.1116  0.5902
  166DOPC   O1320091   1.072   5.732  18.468  0.7280  0.2310 -0.3045
  166DOPC   O1420092   1.065   5.962  18.364  0.1697  0.2551  0.4510
  166DOPC   O1220093   0.948   5.920  18.577 -0.1766 -0.4710  0.6163
  166DOPC   O1120094   0.854   5.825  18.369 -0.6856  0.4880 -1.1035
  166DOPC    C120095   0.835   5.725  18.272  0.4392 -0.1988  0.0889
  166DOPC    HA20096   0.726   5.711  18.262  0.3890  0.8454 -1.0926
  166DOPC    HB20097   0.883   5.627  18.292 -0.0050 -0.4844 -0.2312
  166DOPC    C220098   0.893   5.772  18.131 -0.3009  0.1936 -0.3221
  166DOPC    HS20099   1.003   5.788  18.144 -0.3254  0.1167 -0.0183
  166DOPC   O2120100   0.820   5.890  18.095  0.0941  1.1321  0.0141
  166DOPC   C2120101   0.882   5.975  18.025  0.0123  0.3871 -0.4685
  166DOPC   O2220102   1.005   5.975  18.018  0.0962  0.1021 -0.0991
  166DOPC   C2220103   0.785   6.080  17.969 -0.6518  0.5867 -0.4964
  166DOPC   H2R20104   0.729   6.126  18.053 -1.2206  0.7362 -0.9532
  166DOPC   H2S20105   0.706   6.031  17.908 -0.4917  1.8633 -1.7772
  166DOPC    C320106   0.876   5.665  18.019 -0.1259 -0.1066  0.0852
  166DOPC    HX20107   0.778   5.614  18.027 -0.3711  0.3967  0.3150
  166DOPC    HY20108   0.954   5.587  18.030  1.0707  1.3538  3.0545
  166DOPC   O3120109   0.886   5.723  17.888  0.5159  0.9602  0.5022
  166DOPC   C3120110   0.904   5.643  17.790  0.3933 -0.2233  0.2414
  166DOPC   O3220111   0.920   5.525  17.797  0.5407  0.1776  0.5566
  166DOPC   C3220112   0.907   5.716  17.649 -0.2514  0.3237 -0.7020
  166DOPC   H2X20113   0.810   5.770  17.644 -0.0761  0.7240  0.0268
  166DOPC   H2Y20114   0.994   5.785  17.648 -0.6290  0.8111 -0.3633
  166DOPC   C2320115   0.860   6.186  17.883  0.3564 -0.0900  0.0330
  166DOPC   H3R20116   0.932   6.246  17.942  0.5916 -1.5363  1.2525
  166DOPC   H3S20117   0.784   6.256  17.842  1.2040 -0.9828 -3.4171
  166DOPC   C2420118   0.941   6.120  17.768 -0.3789  0.0100 -0.3593
  166DOPC   H4R20119   0.879   6.051  17.706 -0.5875 -0.2539  0.1448
  166DOPC   H4S20120   1.023   6.059  17.809 -3.1039 -2.1489  2.3434
  166DOPC   C2520121   1.002   6.229  17.677  0.0453 -0.1872  0.2633
  166DOPC   H5R20122   1.081   6.285  17.733  0.3426  0.2213 -0.5521
  166DOPC   H5S20123   0.919   6.295  17.644  0.5076  1.1230  1.5787
  166DOPC   C2620124   1.066   6.177  17.550  0.0329  0.1860 -0.3061
  166DOPC   H6R20125   1.010   6.089  17.513  1.0309  0.4040 -2.5209
  166DOPC   H6S20126   1.169   6.139  17.564 -0.5306 -2.0036 -1.6501
  166DOPC   C2720127   1.056   6.281  17.437  0.4828 -0.3197  0.4580
  166DOPC   H7R20128   1.109   6.375  17.460 -1.8505  0.8745  1.2565
  166DOPC   H7S20129   0.952   6.318  17.429 -0.1795 -1.9578  0.9202
  166DOPC   C2820130   1.112   6.236  17.301  0.2392 -0.3705 -0.6997
  166DOPC   H8R20131   1.211   6.188  17.316  0.2029 -0.0233  0.8797
  166DOPC   H8S20132   1.117   6.331  17.244 -1.7289  0.2474  0.0564
  166DOPC   C2920133   1.028   6.141  17.223  0.2096 -0.1464  0.8955
  166DOPC   H9R20134   0.998   6.051  17.277 -0.4758 -0.1181  0.5718
  166DOPC  C21020135   0.978   6.161  17.100  0.0777  0.2126 -0.1832
  166DOPC  H10R20136   0.915   6.081  17.058  3.5619 -2.1817 -1.2371
  166DOPC  C21120137   1.002   6.273  17.007 -0.4915  0.1562  1.0912
  166DOPC  H11R20138   1.048   6.361  17.056  1.7724  0.9779 -2.1801
  166DOPC  H11S20139   0.903   6.308  16.969 -1.3656 -3.3256 -0.1516
  166DOPC  C21220140   1.091   6.250  16.885  0.0338  0.8467 -0.0768
  166DOPC  H12R20141   1.194   6.221  16.915 -0.6570 -2.1001 -0.2331
  166DOPC  H12S20142   1.099   6.346  16.830 -2.0357  1.3974  0.5118
  166DOPC  C21320143   1.039   6.148  16.779 -0.6007 -0.0157  0.2641
  166DOPC  H13R20144   0.928   6.161  16.782 -0.5390  0.2923  1.4898
  166DOPC  H13S20145   1.053   6.044  16.813 -3.8831 -0.4833  0.5685
  166DOPC  C21420146   1.103   6.163  16.645 -0.2246  0.3778  0.1021
  166DOPC  H14R20147   1.210   6.172  16.672 -0.1925 -1.3409  0.7168
  166DOPC  H14S20148   1.074   6.253  16.588  0.8202 -1.1541 -3.0939
  166DOPC  C21520149   1.102   6.041  16.550 -0.3213 -0.2671 -0.2930
  166DOPC  H15R20150   0.999   6.023  16.511 -0.5248 -1.2509  0.6555
  166DOPC  H15S20151   1.132   5.953  16.611  0.3368  0.8374  1.0101
  166DOPC  C21620152   1.175   6.063  16.421  0.2167  0.3878  0.2337
  166DOPC  H16R20153   1.283   6.070  16.449  0.8364  0.4897 -1.9896
  166DOPC  H16S20154   1.131   6.151  16.370 -2.5112 -1.6953 -1.2553
  166DOPC  C21720155   1.158   5.947  16.318  0.3413 -0.3506  0.0696
  166DOPC  H17R20156   1.049   5.924  16.320  0.1316  0.6556  1.7645
  166DOPC  H17S20157   1.193   5.852  16.365 -1.2765 -0.7051  0.6354
  166DOPC  C21820158   1.202   5.987  16.175  0.4729  0.3226 -0.4669
  166DOPC  H18R20159   1.200   5.905  16.100  1.7190 -0.3470  0.1975
  166DOPC  H18S20160   1.303   6.034  16.183 -0.6267  2.5131  3.5744
  166DOPC  H18T20161   1.128   6.060  16.135 -0.5230  0.6367  1.7629
  166DOPC   C3320162   0.919   5.618  17.527 -1.2987  0.3874 -0.6653
  166DOPC   H3X20163   0.824   5.560  17.530 -2.2354  1.8464 -0.9678
  166DOPC   H3Y20164   1.009   5.556  17.545 -2.6395 -1.6893 -0.6288
  166DOPC   C3420165   0.930   5.694  17.394 -0.2598  0.1944  0.3524
  166DOPC   H4X20166   1.012   5.769  17.407 -0.6807  0.3814  2.2509
  166DOPC   H4Y20167   0.842   5.753  17.361 -0.4538  0.3735  1.1738
  166DOPC   C3520168   0.976   5.610  17.273 -0.4408  0.3519  0.3465
  166DOPC   H5X20169   0.903   5.530  17.248  0.0677 -0.1365  0.3906
  166DOPC   H5Y20170   1.063   5.543  17.293 -3.2507 -3.8412 -0.1531
  166DOPC   C3620171   0.997   5.689  17.144  0.0914 -0.4052 -0.2511
  166DOPC   H6X20172   0.902   5.720  17.095  0.7806 -0.1594 -1.4762
  166DOPC   H6Y20173   1.054   5.782  17.162  0.4117 -0.3413 -1.4726
  166DOPC   C3720174   1.079   5.615  17.048  0.1632  0.0439  1.0589
  166DOPC   H7X20175   1.183   5.633  17.081 -0.1414  0.5020  1.7893
  166DOPC   H7Y20176   1.060   5.505  17.052 -1.4768  0.1590 -1.6426
  166DOPC   C3820177   1.051   5.650  16.896 -0.2057  0.5654 -0.0940
  166DOPC   H8X20178   1.130   5.603  16.833 -0.2127 -1.7137  1.4494
  166DOPC   H8Y20179   1.063   5.757  16.872  0.4494 -0.0370 -2.8400
  166DOPC   C3920180   0.907   5.607  16.864  0.3715  0.2036  0.3396
  166DOPC   H9X20181   0.846   5.573  16.949  1.1843  2.1667  1.7850
  166DOPC  C31020182   0.838   5.625  16.745 -0.0291 -0.0910  0.5804
  166DOPC  H10X20183   0.736   5.584  16.732 -0.3901  0.8765  0.2637
  166DOPC  C31120184   0.885   5.695  16.616 -0.3036  0.5040 -0.1780
  166DOPC  H11X20185   0.990   5.730  16.630 -0.1760 -0.7356  2.7738
  166DOPC  H11Y20186   0.828   5.788  16.595  1.8094  1.4507 -2.2956
  166DOPC  C31220187   0.884   5.597  16.498 -0.1683  0.3781 -0.1921
  166DOPC  H12X20188   0.777   5.582  16.471 -0.6581  0.8252  1.3452
  166DOPC  H12Y20189   0.922   5.497  16.528 -1.2301  0.4641  1.6352
  166DOPC  C31320190   0.968   5.635  16.377 -0.1684 -0.6153 -0.0933
  166DOPC  H13X20191   0.936   5.731  16.331 -0.1777  0.4593  2.0047
  166DOPC  H13Y20192   1.072   5.658  16.411 -0.2733  0.0541 -0.2098
  166DOPC  C31420193   0.962   5.536  16.258  0.2671 -0.4239 -0.9132
  166DOPC  H14X20194   1.003   5.437  16.289  1.6152  0.9574  2.2140
  166DOPC  H14Y20195   0.856   5.517  16.234 -0.0779  0.2119  0.0403
  166DOPC  C31520196   1.031   5.595  16.135  0.3479 -0.0135  0.1508
  166DOPC  H15X20197   1.140   5.594  16.157  0.8146  0.2843 -1.8987
  166DOPC  H15Y20198   1.006   5.700  16.108 -2.2932 -0.5082  0.3873
  166DOPC  C31620199   1.012   5.509  16.009  0.2463  0.2476 -0.2414
  166DOPC  H16X20200   1.029   5.404  16.041  1.8239  0.5179 -0.1226
  166DOPC  H16Y20201   0.909   5.512  15.967  0.3283 -2.2544 -0.7771
  166DOPC  C31720202   1.112   5.548  15.898 -0.5817  0.4201 -0.2906
  166DOPC  H17X20203   1.071   5.648  15.872 -1.7459  0.3679  1.1698
  166DOPC  H17Y20204   1.219   5.563  15.925 -1.0348 -0.2295  2.1534
  166DOPC  C31820205   1.110   5.452  15.772  0.3704 -0.5579 -0.3442
  166DOPC  H18X20206   1.195   5.488  15.709  0.1130 -0.9457 -0.9200
  166DOPC  H18Y20207   1.132   5.348  15.804  0.1622 -1.4338 -2.8074
  166DOPC  H18Z20208   1.011   5.462  15.722 -1.1899 -0.3138  2.6225
  167DOPC     N20209   0.479   4.280  18.246 -0.4121  0.0718  0.0124
  167DOPC   C1220210   0.475   4.270  18.100 -0.3920 -0.6646  0.1377
  167DOPC  H12A20211   0.453   4.166  18.086 -0.9553 -0.7190  1.3160
  167DOPC  H12B20212   0.573   4.292  18.059 -0.8157  0.2012 -0.4497
  167DOPC   C1320213   0.482   4.425  18.302  0.3374  0.1591  0.1081
  167DOPC  H13A20214   0.562   4.479  18.252  0.4045 -1.9359 -2.2670
  167DOPC  H13B20215   0.388   4.470  18.274 -0.7264 -2.4704 -0.8968
  167DOPC  H13C20216   0.489   4.417  18.409 -0.0081 -0.4982  0.0891
  167DOPC   C1420217   0.606   4.213  18.300 -0.1313 -0.2138  0.6223
  167DOPC  H14A20218   0.692   4.274  18.275 -0.4893  0.2217  0.4367
  167DOPC  H14B20219   0.609   4.201  18.408  0.7747 -1.7638  0.4497
  167DOPC  H14C20220   0.619   4.113  18.261  3.0845 -0.2469  1.4809
  167DOPC   C1520221   0.358   4.204  18.308  0.5352 -0.5114  0.2690
  167DOPC  H15A20222   0.334   4.224  18.411 -0.5695  0.4804 -0.1653
  167DOPC  H15B20223   0.370   4.098  18.290 -1.8980 -0.4660 -2.1550
  167DOPC  H15C20224   0.271   4.236  18.254  0.5518  0.3119  0.7132
  167DOPC   C1120225   0.370   4.352  18.023 -0.2511  0.0632  0.4169
  167DOPC  H11A20226   0.370   4.460  18.051 -1.2340 -0.6406  3.4884
  167DOPC  H11B20227   0.408   4.339  17.919  1.0209  0.2578  0.8348
  167DOPC     P20228   0.170   4.191  17.974 -0.0079 -0.5837  0.0698
  167DOPC   O1320229   0.024   4.217  17.982  0.4313 -0.2468  0.1617
  167DOPC   O1420230   0.206   4.068  18.037  0.6135 -0.0550  0.4033
  167DOPC   O1220231   0.240   4.314  18.051 -0.1163  0.4027  0.4651
  167DOPC   O1120232   0.221   4.196  17.827  0.6939  0.4402  0.0947
  167DOPC    C120233   0.184   4.295  17.729  0.3628  0.2231  0.0177
  167DOPC    HA20234   0.231   4.391  17.758  0.7390  0.1656 -0.3973
  167DOPC    HB20235   0.077   4.323  17.742  0.6746  1.6362 -0.3442
  167DOPC    C220236   0.209   4.244  17.581 -0.2359 -0.5505 -0.8665
  167DOPC    HS20237   0.319   4.228  17.570 -0.2288 -1.5640  0.4118
  167DOPC   O2120238   0.149   4.340  17.491 -0.4594  0.5013 -0.3068
  167DOPC   C2120239   0.227   4.443  17.467  0.2286 -0.3254  0.2348
  167DOPC   O2220240   0.339   4.466  17.509 -0.5975  0.3403 -0.3134
  167DOPC   C2220241   0.150   4.541  17.368  0.5114 -0.4222 -0.0514
  167DOPC   H2R20242   0.093   4.615  17.428 -0.1765  0.5568 -1.8430
  167DOPC   H2S20243   0.088   4.480  17.299 -0.0049  1.2445 -1.1269
  167DOPC    C320244   0.137   4.108  17.558  0.5040 -0.5785  0.6770
  167DOPC    HX20245   0.028   4.129  17.565  0.6839  0.8136 -0.3754
  167DOPC    HY20246   0.152   4.032  17.638  0.7298 -1.9112 -0.5856
  167DOPC   O3120247   0.163   4.063  17.426  0.3267 -0.3029 -0.4367
  167DOPC   C3120248   0.199   3.938  17.413 -0.2089 -1.3794 -0.5073
  167DOPC   O3220249   0.239   3.862  17.496  0.2909 -0.1023  0.4638
  167DOPC   C3220250   0.207   3.916  17.260 -0.6090  0.2116 -0.0783
  167DOPC   H2X20251   0.225   3.810  17.233  0.1912  0.3755 -0.1871
  167DOPC   H2Y20252   0.101   3.927  17.227 -0.4611 -1.4727 -1.2612
  167DOPC   C2320253   0.246   4.615  17.267 -0.0602 -0.5135 -0.3881
  167DOPC   H3R20254   0.311   4.680  17.330 -2.0503  0.9202  0.2817
  167DOPC   H3S20255   0.181   4.693  17.221  1.4303  0.6528 -0.6233
  167DOPC   C2420256   0.329   4.525  17.172  0.6604 -0.3516  0.1961
  167DOPC   H4R20257   0.361   4.435  17.229 -1.9879 -1.6741 -0.2536
  167DOPC   H4S20258   0.422   4.573  17.134 -0.0943 -2.0120 -4.3369
  167DOPC   C2520259   0.252   4.496  17.038  0.4470  0.1023 -0.0793
  167DOPC   H5R20260   0.198   4.591  17.018 -1.0693 -0.5853  0.5812
  167DOPC   H5S20261   0.178   4.416  17.062  0.5672  0.5120  1.8017
  167DOPC   C2620262   0.355   4.445  16.932 -0.3370 -0.1385  0.1871
  167DOPC   H6R20263   0.414   4.365  16.982 -1.0748 -0.5299  0.4499
  167DOPC   H6S20264   0.435   4.514  16.898 -0.4971 -0.3073 -0.5669
  167DOPC   C2720265   0.291   4.382  16.809  0.2387  1.4284 -0.3586
  167DOPC   H7R20266   0.249   4.463  16.746  0.1179  0.4749 -1.5607
  167DOPC   H7S20267   0.205   4.322  16.846  0.4794  0.9703 -0.5247
  167DOPC   C2820268   0.391   4.302  16.726 -0.2982  0.0285  0.5190
  167DOPC   H8R20269   0.435   4.221  16.788 -0.0401 -0.4354 -0.2656
  167DOPC   H8S20270   0.483   4.361  16.705 -0.0697 -0.4867  0.0671
  167DOPC   C2920271   0.332   4.243  16.602  0.2272 -0.5747 -0.7077
  167DOPC   H9R20272   0.252   4.172  16.628 -0.4170  1.1204  2.4641
  167DOPC  C21020273   0.338   4.287  16.479  0.4715  0.8913 -0.8637
  167DOPC  H10R20274   0.279   4.238  16.400  0.6713  1.0958 -1.1419
  167DOPC  C21120275   0.425   4.404  16.435  0.0638 -0.0669 -0.0042
  167DOPC  H11R20276   0.522   4.416  16.488  0.0990  0.4179 -0.1693
  167DOPC  H11S20277   0.373   4.502  16.431  4.1163  2.2773 -1.8916
  167DOPC  C21220278   0.464   4.389  16.288 -0.6560  0.2552  0.4273
  167DOPC  H12R20279   0.370   4.373  16.231 -0.3845  0.8852 -0.2190
  167DOPC  H12S20280   0.505   4.488  16.258 -1.3719  0.3519 -0.2659
  167DOPC  C21320281   0.566   4.279  16.266 -0.3527 -0.2251 -0.1866
  167DOPC  H13R20282   0.531   4.177  16.290 -2.1586 -0.0458 -1.8040
  167DOPC  H13S20283   0.649   4.301  16.338 -0.5284  0.6586 -0.2443
  167DOPC  C21420284   0.631   4.285  16.125 -0.7993  0.6248 -0.3070
  167DOPC  H14R20285   0.720   4.219  16.124 -1.5460 -0.5819 -3.9323
  167DOPC  H14S20286   0.675   4.387  16.115  2.0834 -0.5501 -0.6679
  167DOPC  C21520287   0.537   4.238  16.018 -0.7426  0.0017 -0.0569
  167DOPC  H15R20288   0.439   4.282  16.049 -0.4874 -1.2537  2.8858
  167DOPC  H15S20289   0.525   4.128  16.021 -0.5704 -0.0370 -0.6702
  167DOPC  C21620290   0.572   4.277  15.871 -0.1003  0.2834 -0.6934
  167DOPC  H16R20291   0.492   4.233  15.807 -1.6748  1.6429  0.2570
  167DOPC  H16S20292   0.669   4.238  15.835  0.0974  1.1413 -1.1074
  167DOPC  C21720293   0.573   4.431  15.854 -0.8069  0.6240 -0.1002
  167DOPC  H17R20294   0.666   4.476  15.893 -1.1565  0.5325  0.8907
  167DOPC  H17S20295   0.499   4.489  15.914  0.5510  0.8652  1.3901
  167DOPC  C21820296   0.570   4.477  15.706  0.5604  0.0511 -0.3307
  167DOPC  H18R20297   0.497   4.409  15.657  2.0504 -1.5926 -0.3893
  167DOPC  H18S20298   0.671   4.468  15.660  0.0330 -2.5095 -1.1806
  167DOPC  H18T20299   0.533   4.581  15.715 -0.1294 -0.3411  1.9218
  167DOPC   C3320300   0.303   4.011  17.197  0.4218  0.2955  0.2425
  167DOPC   H3X20301   0.398   3.978  17.243 -0.0978 -0.2213  0.9545
  167DOPC   H3Y20302   0.285   4.114  17.236  0.5354 -0.0310  1.1624
  167DOPC   C3420303   0.318   3.996  17.043 -0.7902  0.0469  0.4045
  167DOPC   H4X20304   0.388   4.071  17.000  0.2535 -2.0815 -1.8383
  167DOPC   H4Y20305   0.219   4.030  17.005 -0.0287  2.0773  0.0828
  167DOPC   C3520306   0.345   3.850  16.992 -0.1344  0.4619 -0.0568
  167DOPC   H5X20307   0.263   3.778  17.012 -0.7900  0.4446 -2.5495
  167DOPC   H5Y20308   0.438   3.819  17.044 -0.2320 -1.1008 -0.7713
  167DOPC   C3620309   0.366   3.849  16.839  0.0043 -0.4226  0.1189
  167DOPC   H6X20310   0.447   3.920  16.811  0.4240 -1.7158 -2.2273
  167DOPC   H6Y20311   0.405   3.749  16.810  0.2360 -0.5971  1.0173
  167DOPC   C3720312   0.244   3.887  16.761 -0.4196 -0.5630  0.5221
  167DOPC   H7X20313   0.162   3.815  16.778  0.6436 -2.0842 -0.5496
  167DOPC   H7Y20314   0.206   3.985  16.799  0.6462 -0.0781  0.3795
  167DOPC   C3820315   0.284   3.892  16.610 -0.4245 -0.3972 -0.0723
  167DOPC   H8X20316   0.323   3.799  16.562 -0.6534 -0.0474 -0.9693
  167DOPC   H8Y20317   0.372   3.958  16.622 -0.5049 -0.7149  2.7486
  167DOPC   C3920318   0.173   3.955  16.524 -0.5041  0.7910  0.0162
  167DOPC   H9X20319   0.092   4.006  16.577 -0.2660  2.9570 -1.5586
  167DOPC  C31020320   0.175   3.963  16.389 -0.4943 -0.1035 -0.1359
  167DOPC  H10X20321   0.087   4.001  16.336 -0.7056  0.2399  0.4458
  167DOPC  C31120322   0.297   3.914  16.307 -0.2990 -0.1620 -0.3505
  167DOPC  H11X20323   0.296   3.804  16.299  3.1401 -0.1673 -3.3162
  167DOPC  H11Y20324   0.386   3.951  16.362 -0.4412  1.1343 -0.9295
  167DOPC  C31220325   0.292   3.984  16.168 -0.0045 -0.1699  0.2092
  167DOPC  H12X20326   0.390   3.946  16.130  0.8127  1.5172  0.5716
  167DOPC  H12Y20327   0.300   4.094  16.167  0.3982 -0.1990 -0.2735
  167DOPC  C31320328   0.183   3.935  16.071 -0.6408 -0.1346  0.4819
  167DOPC  H13X20329   0.170   3.827  16.048 -0.6140  0.1882 -1.1593
  167DOPC  H13Y20330   0.083   3.970  16.105 -0.1739  0.6003  1.1187
  167DOPC  C31420331   0.210   4.014  15.940 -0.0837 -0.0849 -0.1656
  167DOPC  H14X20332   0.249   4.115  15.965  0.4808 -0.1245 -0.8393
  167DOPC  H14Y20333   0.299   3.975  15.885  1.9637  1.7680  1.6394
  167DOPC  C31520334   0.089   4.018  15.842 -0.5588  0.2702 -0.6486
  167DOPC  H15X20335  -0.006   4.047  15.891  0.6091  1.8692  0.7891
  167DOPC  H15Y20336   0.082   3.911  15.811 -0.2989 -0.1432  0.6151
  167DOPC  C31620337   0.111   4.106  15.722 -0.1059 -0.4153  0.0351
  167DOPC  H16X20338   0.026   4.106  15.650 -0.1886 -2.8961  0.0363
  167DOPC  H16Y20339   0.136   4.207  15.761 -1.6542  0.0451 -0.0806
  167DOPC  C31720340   0.226   4.068  15.637 -0.3502 -0.2280 -0.2734
  167DOPC  H17X20341   0.314   4.057  15.704 -0.8803 -0.5966  0.3781
  167DOPC  H17Y20342   0.208   3.963  15.605 -1.3755 -0.0316 -0.3600
  167DOPC  C31820343   0.257   4.160  15.512  0.5350  0.1200  0.1698
  167DOPC  H18X20344   0.186   4.147  15.428  0.5212  1.4741 -0.0402
  167DOPC  H18Y20345   0.253   4.268  15.536 -0.4062  0.6763 -2.1738
  167DOPC  H18Z20346   0.355   4.139  15.466  0.3214  0.1770 -0.3217
  168DOPC     N20347   3.069   3.340  18.212 -0.3944 -0.0437  0.2772
  168DOPC   C1220348   3.158   3.381  18.094 -0.0764 -0.1455  0.6385
  168DOPC  H12A20349   3.220   3.299  18.061  2.5318  1.4197  1.3273
  168DOPC  H12B20350   3.224   3.451  18.143  0.3974 -0.9985  1.2442
  168DOPC   C1320351   3.140   3.246  18.295  0.8321  0.2762 -0.6203
  168DOPC  H13A20352   3.072   3.188  18.355 -0.2255 -1.2692 -3.1139
  168DOPC  H13B20353   3.201   3.171  18.246  0.9439 -0.6354  0.8595
  168DOPC  H13C20354   3.214   3.290  18.359  2.3493 -2.8783 -0.0042
  168DOPC   C1420355   2.945   3.260  18.165 -0.0750 -0.3236  0.2086
  168DOPC  H14A20356   2.874   3.243  18.245 -1.7640 -0.2141 -1.1900
  168DOPC  H14B20357   2.882   3.327  18.108  1.9380  1.3583 -0.1502
  168DOPC  H14C20358   2.954   3.175  18.100 -0.2952  0.7897 -1.3438
  168DOPC   C1520359   3.030   3.461  18.282  0.2852 -0.3029 -0.3922
  168DOPC  H15A20360   2.958   3.525  18.234  0.1812  1.2379  1.7015
  168DOPC  H15B20361   3.113   3.527  18.306 -0.1049  0.2990 -0.6746
  168DOPC  H15C20362   2.977   3.432  18.371 -1.6938 -0.2154 -1.4849
  168DOPC   C1120363   3.091   3.452  17.971 -0.2267  0.5457  0.5262
  168DOPC  H11A20364   3.169   3.450  17.892 -1.6384 -0.0670 -0.8997
  168DOPC  H11B20365   3.000   3.394  17.945  0.5340 -1.0372  1.3051
  168DOPC     P20366   3.129   3.705  17.988 -0.4611 -0.1329  0.3226
  168DOPC   O1320367   3.233   3.682  18.089 -0.3745 -0.1219  0.2821
  168DOPC   O1420368   3.043   3.822  18.003  0.8801  0.1667 -0.5730
  168DOPC   O1220369   3.040   3.580  18.005  0.2613 -0.0194 -0.3381
  168DOPC   O1120370   3.182   3.695  17.830 -0.0358 -0.3751  0.0726
  168DOPC    C120371   3.087   3.749  17.737 -0.9066  0.1259 -0.6874
  168DOPC    HA20372   3.082   3.860  17.748  0.7109  0.1426  0.2940
  168DOPC    HB20373   2.990   3.696  17.746  0.0995 -1.8192 -0.9334
  168DOPC    C220374   3.132   3.720  17.585 -0.1585 -0.3774 -0.2079
  168DOPC    HS20375   3.038   3.726  17.526  0.4166 -1.5743 -1.2914
  168DOPC   O2120376   3.194   3.594  17.563  0.2821 -0.4310 -0.2446
  168DOPC   C2120377   3.109   3.492  17.555  0.4881 -0.4512  0.2701
  168DOPC   O2220378   2.988   3.497  17.556 -0.4347 -0.0672 -0.4665
  168DOPC   C2220379   3.181   3.364  17.531 -0.1996 -0.1174  0.4599
  168DOPC   H2R20380   3.113   3.276  17.536 -0.8356  0.4478  3.6796
  168DOPC   H2S20381   3.254   3.345  17.612 -0.1575 -0.8598  0.2563
  168DOPC    C320382   3.218   3.841  17.531  0.4949  0.2757 -0.2485
  168DOPC    HX20383   3.307   3.830  17.597 -0.7599 -3.0422  1.1396
  168DOPC    HY20384   3.181   3.941  17.560 -0.5339 -0.6029  1.6850
  168DOPC   O3120385   3.258   3.814  17.398 -0.5380 -0.1582 -0.2010
  168DOPC   C3120386   3.176   3.856  17.306  0.2511 -0.2093 -0.0178
  168DOPC   O3220387   3.061   3.887  17.333  0.2404  0.5760 -0.0155
  168DOPC   C3220388   3.232   3.830  17.162  0.0651 -0.2198 -0.2738
  168DOPC   H2X20389   3.324   3.892  17.157  0.2066 -0.4412 -0.4281
  168DOPC   H2Y20390   3.271   3.727  17.172  1.2492  0.3234  1.1741
  168DOPC   C2320391   3.250   3.378  17.388  0.1772 -0.6790  0.2801
  168DOPC   H3R20392   3.323   3.295  17.373  0.3465 -0.6021  0.6578
  168DOPC   H3S20393   3.312   3.470  17.384  0.1077 -0.5992  0.9956
  168DOPC   C2420394   3.147   3.365  17.279 -0.5424  0.3929 -0.7373
  168DOPC   H4R20395   3.060   3.430  17.302 -0.4093  0.8600 -1.5319
  168DOPC   H4S20396   3.121   3.257  17.288 -1.4204  0.7544  1.6790
  168DOPC   C2520397   3.222   3.384  17.148  0.1889 -0.1121  0.4793
  168DOPC   H5R20398   3.314   3.322  17.140  1.9699  2.1783  2.0950
  168DOPC   H5S20399   3.268   3.485  17.154  0.8082 -0.4407  1.4489
  168DOPC   C2620400   3.136   3.368  17.022 -0.4364  0.1105 -0.9862
  168DOPC   H6R20401   3.065   3.453  17.020  0.1862  0.6290 -1.4928
  168DOPC   H6S20402   3.080   3.272  17.029 -1.1640  0.5655 -0.4039
  168DOPC   C2720403   3.212   3.385  16.900  0.0786  0.2891  0.1575
  168DOPC   H7R20404   3.293   3.309  16.896  1.8384  2.0263  1.1213
  168DOPC   H7S20405   3.274   3.477  16.909  0.1216  0.0761  2.7833
  168DOPC   C2820406   3.138   3.379  16.764  0.3286 -0.0034  0.6278
  168DOPC   H8R20407   3.068   3.465  16.758 -1.4300 -1.0177  4.0802
  168DOPC   H8S20408   3.064   3.297  16.774  1.2104 -0.9385 -0.3435
  168DOPC   C2920409   3.229   3.364  16.646  0.5628  0.0445 -0.1416
  168DOPC   H9R20410   3.310   3.293  16.669  0.2895  0.0988  1.0462
  168DOPC  C21020411   3.226   3.422  16.521 -0.2094 -0.3926 -0.0336
  168DOPC  H10R20412   3.311   3.412  16.452 -0.6976  2.4345 -1.1701
  168DOPC  C21120413   3.118   3.515  16.467  0.2808  0.0104  0.4717
  168DOPC  H11R20414   3.167   3.610  16.436  0.1616 -0.0577  0.0792
  168DOPC  H11S20415   3.038   3.546  16.538 -2.2416  3.0149 -3.3177
  168DOPC  C21220416   3.052   3.454  16.342  0.2579 -0.0312 -0.3610
  168DOPC  H12R20417   2.974   3.526  16.310  0.7285  1.4706  1.6813
  168DOPC  H12S20418   2.998   3.357  16.357 -0.3812  0.6032  1.8459
  168DOPC  C21320419   3.142   3.441  16.225 -0.1074  1.0685 -0.9448
  168DOPC  H13R20420   3.227   3.372  16.248 -1.1412  0.1508  0.2672
  168DOPC  H13S20421   3.189   3.539  16.204  1.6617  0.5023  0.1422
  168DOPC  C21420422   3.076   3.398  16.095  1.0228  0.5694 -0.5435
  168DOPC  H14R20423   3.004   3.479  16.070  0.7122  0.8756  1.1979
  168DOPC  H14S20424   3.016   3.306  16.113 -1.4491  2.2758  0.4472
  168DOPC  C21520425   3.185   3.373  15.997 -0.3461  0.0092 -0.0648
  168DOPC  H15R20426   3.249   3.296  16.046 -1.2527  0.8826  2.7199
  168DOPC  H15S20427   3.258   3.457  15.988  0.7816 -0.5742  2.6315
  168DOPC  C21620428   3.129   3.328  15.859  0.2652 -0.2826 -0.4316
  168DOPC  H16R20429   3.042   3.263  15.879 -0.6390  1.6434  2.5443
  168DOPC  H16S20430   3.197   3.272  15.792 -1.5206 -0.7695 -1.9250
  168DOPC  C21720431   3.078   3.447  15.771 -0.2576  0.7159 -0.5964
  168DOPC  H17R20432   3.166   3.510  15.748 -0.1730  1.2689  1.0798
  168DOPC  H17S20433   3.011   3.512  15.833  0.5587 -0.5140  1.6901
  168DOPC  C21820434   3.007   3.392  15.647 -0.0322 -0.3287  0.3996
  168DOPC  H18R20435   2.934   3.318  15.686 -0.1317  1.8633  5.0041
  168DOPC  H18S20436   3.075   3.339  15.577 -0.5475 -2.0119  1.1295
  168DOPC  H18T20437   2.952   3.476  15.599 -1.0423 -0.2107  1.7052
  168DOPC   C3320438   3.133   3.845  17.042 -0.4722 -0.4578 -0.5223
  168DOPC   H3X20439   3.061   3.929  17.051 -1.3355 -1.1129 -1.0251
  168DOPC   H3Y20440   3.068   3.755  17.052 -0.0095 -0.8345 -0.8437
  168DOPC   C3420441   3.204   3.843  16.905  0.4201 -0.2013  0.1859
  168DOPC   H4X20442   3.274   3.757  16.900 -0.0093 -0.5150 -0.5669
  168DOPC   H4Y20443   3.267   3.933  16.890 -0.0116 -0.2196 -2.0344
  168DOPC   C3520444   3.105   3.838  16.796 -0.5127  0.1907  0.7029
  168DOPC   H5X20445   3.040   3.928  16.806 -1.1778 -0.3617  1.4066
  168DOPC   H5Y20446   3.041   3.748  16.798 -0.7593  0.2382 -1.6093
  168DOPC   C3620447   3.174   3.845  16.660 -0.2838 -0.0831  0.2887
  168DOPC   H6X20448   3.261   3.914  16.665 -0.3403  0.4209 -3.2282
  168DOPC   H6Y20449   3.217   3.745  16.638  0.0414  0.9913 -5.4836
  168DOPC   C3720450   3.087   3.910  16.547 -0.1342  0.1613  0.4164
  168DOPC   H7X20451   3.008   3.837  16.521  2.6897 -2.2761 -2.0395
  168DOPC   H7Y20452   3.037   3.997  16.596  0.4375  0.8791 -0.2489
  168DOPC   C3820453   3.165   3.941  16.415 -0.0908  0.1125 -0.1217
  168DOPC   H8X20454   3.080   3.969  16.348 -2.0784 -3.0002  0.9180
  168DOPC   H8Y20455   3.197   3.841  16.379 -0.0495 -0.1344  0.6043
  168DOPC   C3920456   3.280   4.037  16.428 -0.3953 -0.3184  0.7870
  168DOPC   H9X20457   3.253   4.128  16.482  0.4369 -0.0964  0.8371
  168DOPC  C31020458   3.405   4.026  16.369  0.2760  0.5724  0.4572
  168DOPC  H10X20459   3.483   4.102  16.385  2.4006 -1.1454 -1.0920
  168DOPC  C31120460   3.448   3.918  16.273  0.2393 -0.2490  0.6058
  168DOPC  H11X20461   3.420   3.812  16.292  0.0002 -0.7774 -2.1549
  168DOPC  H11Y20462   3.559   3.916  16.277  0.2632 -2.0239 -0.1147
  168DOPC  C31220463   3.401   3.937  16.128 -0.1988  0.4951  0.7584
  168DOPC  H12X20464   3.445   4.033  16.094 -1.1668  0.5595 -0.3663
  168DOPC  H12Y20465   3.290   3.939  16.129 -0.2747 -0.3781 -1.5154
  168DOPC  C31320466   3.437   3.815  16.045 -0.0513  0.8707 -0.3376
  168DOPC  H13X20467   3.545   3.794  16.060 -0.5510 -4.4275 -1.8611
  168DOPC  H13Y20468   3.386   3.721  16.076  1.2761  0.2097 -0.0529
  168DOPC  C31420469   3.416   3.823  15.888  0.0879 -0.1032 -0.3746
  168DOPC  H14X20470   3.322   3.876  15.859  0.2939  0.0896 -0.7015
  168DOPC  H14Y20471   3.491   3.896  15.851  1.0117 -1.2689 -0.8522
  168DOPC  C31520472   3.431   3.694  15.818  0.0598  0.7967 -0.4585
  168DOPC  H15X20473   3.354   3.618  15.843  0.5886 -0.6234 -2.8013
  168DOPC  H15Y20474   3.530   3.648  15.843 -2.3219 -3.6148  2.1363
  168DOPC  C31620475   3.431   3.705  15.667 -0.2769 -0.6629  0.0107
  168DOPC  H16X20476   3.329   3.731  15.633  0.7572  0.8767 -2.1536
  168DOPC  H16Y20477   3.492   3.795  15.642 -1.7350 -0.1024 -1.7334
  168DOPC  C31720478   3.486   3.591  15.576 -0.3583  0.6795 -0.0209
  168DOPC  H17X20479   3.577   3.553  15.626 -0.0360  0.8640 -0.4644
  168DOPC  H17Y20480   3.411   3.510  15.586  0.8685 -0.2695  2.4458
  168DOPC  C31820481   3.504   3.627  15.429  0.2917  0.6236  0.0599
  168DOPC  H18X20482   3.552   3.549  15.367 -0.7223 -0.0127  0.0514
  168DOPC  H18Y20483   3.402   3.637  15.385 -0.2402  0.3113  1.1786
  168DOPC  H18Z20484   3.551   3.726  15.411  1.0874  0.5106  1.3953
  169DOPC     N20485   1.309   4.052  18.134  0.1873  0.3309 -0.2817
  169DOPC   C1220486   1.320   4.179  18.045 -0.3413 -0.3292 -0.0275
  169DOPC  H12A20487   1.408   4.234  18.073  0.3273 -0.7510 -1.1980
  169DOPC  H12B20488   1.237   4.244  18.068 -0.5209 -0.9125  1.0512
  169DOPC   C1320489   1.275   4.096  18.276 -0.5031 -0.0884 -0.6775
  169DOPC  H13A20490   1.357   4.151  18.318 -0.6195  0.0114 -0.5813
  169DOPC  H13B20491   1.179   4.145  18.280 -1.6767 -2.2550 -0.7988
  169DOPC  H13C20492   1.248   4.013  18.339  0.2805  0.4041  0.3278
  169DOPC   C1420493   1.436   3.975  18.137 -0.0805 -0.5611  0.5767
  169DOPC  H14A20494   1.431   3.898  18.213  1.5954 -2.2294 -0.9082
  169DOPC  H14B20495   1.446   3.928  18.040 -1.9992 -0.5209  0.3287
  169DOPC  H14C20496   1.515   4.043  18.165  0.1405 -0.7578  0.4423
  169DOPC   C1520497   1.209   3.961  18.074 -0.2691  0.1432 -0.3814
  169DOPC  H15A20498   1.107   3.985  18.101 -0.1040 -2.2140  3.1033
  169DOPC  H15B20499   1.226   3.860  18.108  0.2326  0.7196  1.1765
  169DOPC  H15C20500   1.205   3.974  17.967 -1.1810  0.8792 -0.2690
  169DOPC   C1120501   1.331   4.169  17.891  0.3269 -0.0930 -0.3507
  169DOPC  H11A20502   1.359   4.266  17.845 -2.0230  0.4719 -0.7406
  169DOPC  H11B20503   1.416   4.103  17.864  0.9070  0.5429 -0.0931
  169DOPC     P20504   1.081   4.212  17.822  0.1399 -0.3262  0.4279
  169DOPC   O1320505   1.061   4.298  17.939 -0.6594 -0.5875  0.4117
  169DOPC   O1420506   0.967   4.125  17.788  0.1526  0.6297 -0.0420
  169DOPC   O1220507   1.207   4.122  17.830 -0.3331 -0.2962 -0.7474
  169DOPC   O1120508   1.114   4.312  17.700 -0.3431  0.0592  0.3450
  169DOPC    C120509   1.193   4.267  17.587 -0.6294 -0.4850  0.8039
  169DOPC    HA20510   1.208   4.158  17.596  0.9160 -0.2800  1.0313
  169DOPC    HB20511   1.293   4.316  17.581 -0.5036 -0.6850  1.2549
  169DOPC    C220512   1.112   4.298  17.458 -0.3302  0.3666 -0.7115
  169DOPC    HS20513   1.007   4.263  17.465  0.0194 -0.6179 -0.1725
  169DOPC   O2120514   1.183   4.246  17.344 -0.2448 -0.3551  0.0465
  169DOPC   C2120515   1.161   4.122  17.314 -0.8570 -0.2881  0.0882
  169DOPC   O2220516   1.084   4.048  17.373  0.0196 -0.5754  0.1298
  169DOPC   C2220517   1.257   4.075  17.203 -0.0603 -0.2317  0.0086
  169DOPC   H2R20518   1.260   3.964  17.207 -2.1372 -0.2876  2.4857
  169DOPC   H2S20519   1.356   4.116  17.232 -0.6211  1.1812  0.0040
  169DOPC    C320520   1.084   4.454  17.442 -0.1198 -0.4246  0.1085
  169DOPC    HX20521   1.171   4.511  17.482  0.5282 -0.2018 -1.5024
  169DOPC    HY20522   0.992   4.479  17.499 -0.8770 -2.3125 -0.2207
  169DOPC   O3120523   1.054   4.468  17.301 -0.3161  0.2588  0.0025
  169DOPC   C3120524   1.130   4.568  17.234  0.2225 -0.1298 -0.7616
  169DOPC   O3220525   1.210   4.636  17.296  0.4489  0.5601 -0.3835
  169DOPC   C3220526   1.108   4.579  17.081 -0.5495 -0.2465  0.2181
  169DOPC   H2X20527   1.033   4.499  17.063 -1.5087  0.2739  1.6570
  169DOPC   H2Y20528   1.056   4.675  17.058 -1.5507 -0.5984  0.9714
  169DOPC   C2320529   1.205   4.114  17.059  0.4286  0.5066 -0.1389
  169DOPC   H3R20530   1.259   4.208  17.034 -0.1372  0.7390 -0.4955
  169DOPC   H3S20531   1.095   4.123  17.052  0.5547  1.8503 -0.8105
  169DOPC   C2420532   1.257   4.012  16.954  0.0122 -0.3848 -0.8428
  169DOPC   H4R20533   1.214   3.909  16.962 -2.4482  0.6986  0.9123
  169DOPC   H4S20534   1.367   4.012  16.971 -0.2771  0.7456  1.3828
  169DOPC   C2520535   1.227   4.059  16.808 -0.2900  0.3621  0.1623
  169DOPC   H5R20536   1.265   4.163  16.804 -1.1426  0.6668 -0.1504
  169DOPC   H5S20537   1.117   4.060  16.791  0.0152 -0.2990 -2.1369
  169DOPC   C2620538   1.298   3.989  16.700  0.0509 -0.6099  0.3075
  169DOPC   H6R20539   1.267   3.882  16.698  1.3649 -0.9976 -0.3013
  169DOPC   H6S20540   1.404   4.015  16.719  0.0747 -0.0289 -0.5856
  169DOPC   C2720541   1.252   4.053  16.563 -0.1865 -0.0333 -0.3745
  169DOPC   H7R20542   1.167   4.122  16.581  1.0623  1.8445 -1.3740
  169DOPC   H7S20543   1.234   3.977  16.485  3.5947  0.8591 -2.3375
  169DOPC   C2820544   1.366   4.142  16.498  0.7664  0.0457 -0.5127
  169DOPC   H8R20545   1.423   4.186  16.582 -0.9761  1.0497  0.2146
  169DOPC   H8S20546   1.310   4.219  16.441  2.0898  1.7961  0.4500
  169DOPC   C2920547   1.450   4.066  16.406 -0.6278  0.2992  0.3429
  169DOPC   H9R20548   1.495   3.974  16.448  1.1819 -0.0554 -2.2032
  169DOPC  C21020549   1.468   4.093  16.273  0.0326  0.6354  0.7832
  169DOPC  H10R20550   1.526   4.027  16.206 -0.4242  1.2359 -0.2286
  169DOPC  C21120551   1.431   4.221  16.193  0.2269 -0.5723 -0.0237
  169DOPC  H11R20552   1.483   4.308  16.238  0.6140 -0.9963  0.3534
  169DOPC  H11S20553   1.321   4.229  16.210 -0.0056 -1.6013 -0.9490
  169DOPC  C21220554   1.454   4.202  16.041  0.4207 -0.1110  0.1231
  169DOPC  H12R20555   1.393   4.277  15.986  0.4681 -0.9330 -1.0903
  169DOPC  H12S20556   1.416   4.100  16.017 -1.7123  0.2062  1.7886
  169DOPC  C21320557   1.596   4.204  15.990  0.4019  0.2952  0.3329
  169DOPC  H13R20558   1.652   4.116  16.029 -0.7608 -0.4299  0.4159
  169DOPC  H13S20559   1.649   4.298  16.016  1.1127 -0.2665  0.9829
  169DOPC  C21420560   1.594   4.192  15.832  0.0251 -0.1066  0.1550
  169DOPC  H14R20561   1.526   4.271  15.796  1.6076  0.9875 -0.5155
  169DOPC  H14S20562   1.573   4.090  15.794  1.4381 -0.2647 -0.2793
  169DOPC  C21520563   1.728   4.243  15.781  0.3308  0.6029 -0.3531
  169DOPC  H15R20564   1.732   4.225  15.671  0.5040 -1.1975 -0.0912
  169DOPC  H15S20565   1.810   4.179  15.819  0.1753  0.6536  0.0756
  169DOPC  C21620566   1.761   4.386  15.812 -0.1710 -0.7461  0.0587
  169DOPC  H16R20567   1.774   4.398  15.922 -0.5639 -0.4187  0.0731
  169DOPC  H16S20568   1.685   4.456  15.770  0.2503 -0.5521 -0.3820
  169DOPC  C21720569   1.892   4.430  15.740 -0.0715 -0.3148  0.3731
  169DOPC  H17R20570   1.876   4.421  15.631  1.3162  2.2337 -0.1073
  169DOPC  H17S20571   1.972   4.363  15.777  0.0433  0.8810  2.4441
  169DOPC  C21820572   1.940   4.567  15.775  0.5402  0.3120 -0.1111
  169DOPC  H18R20573   2.037   4.582  15.721 -0.7715  1.0186 -2.4213
  169DOPC  H18S20574   1.959   4.581  15.883 -0.6181  2.0224 -0.0895
  169DOPC  H18T20575   1.871   4.640  15.729 -1.8949 -1.4803  0.5162
  169DOPC   C3320576   1.238   4.544  16.999 -0.4156 -1.3500 -0.2577
  169DOPC   H3X20577   1.257   4.434  17.005  1.1027 -1.2057 -1.6518
  169DOPC   H3Y20578   1.331   4.596  17.030 -0.8166  0.6262 -2.1271
  169DOPC   C3420579   1.228   4.572  16.851  0.3216 -0.1915  0.1963
  169DOPC   H4X20580   1.321   4.550  16.794  0.0805  0.4513 -0.4583
  169DOPC   H4Y20581   1.217   4.682  16.847  0.3539 -0.2112 -0.5779
  169DOPC   C3520582   1.113   4.493  16.779 -0.4932 -0.2955 -0.1991
  169DOPC   H5X20583   1.015   4.509  16.830 -0.4505 -0.7239  0.0168
  169DOPC   H5Y20584   1.138   4.386  16.768  2.1485  0.1473  0.9030
  169DOPC   C3620585   1.090   4.538  16.641 -0.1871 -0.1549 -0.5885
  169DOPC   H6X20586   1.005   4.478  16.604 -1.0938 -0.9292  2.4815
  169DOPC   H6Y20587   1.075   4.648  16.638  1.5002  0.1542  0.6895
  169DOPC   C3720588   1.211   4.509  16.556 -0.4481  0.1853  0.5627
  169DOPC   H7X20589   1.288   4.588  16.572 -0.4922  0.2026  0.6905
  169DOPC   H7Y20590   1.269   4.420  16.589  0.3949  1.2882  2.2393
  169DOPC   C3820591   1.183   4.493  16.408  0.3807  0.1488  1.1115
  169DOPC   H8X20592   1.128   4.398  16.388  0.0665  0.6767 -0.6802
  169DOPC   H8Y20593   1.282   4.467  16.367 -0.2708 -0.3037 -0.2316
  169DOPC   C3920594   1.117   4.613  16.343  0.0341  0.2995 -0.2266
  169DOPC   H9X20595   1.099   4.710  16.392 -0.6019 -0.3820  0.9380
  169DOPC  C31020596   1.096   4.609  16.217  0.0189 -0.0281 -0.5077
  169DOPC  H10X20597   1.054   4.696  16.164  2.2958  1.3727 -0.1828
  169DOPC  C31120598   1.108   4.488  16.126 -0.3972  0.0450 -0.5760
  169DOPC  H11X20599   1.169   4.412  16.180  0.5380  2.3062  1.7236
  169DOPC  H11Y20600   1.177   4.510  16.041  1.8337 -1.1847  0.8082
  169DOPC  C31220601   0.969   4.433  16.080  0.2209  0.2586 -0.2234
  169DOPC  H12X20602   0.899   4.519  16.070 -0.4611 -0.4415 -1.8969
  169DOPC  H12Y20603   0.923   4.367  16.157  0.4592  0.6908  0.2972
  169DOPC  C31320604   0.969   4.359  15.945 -0.2839 -0.1479  0.3084
  169DOPC  H13X20605   1.042   4.276  15.954  0.2679  0.2416 -0.4514
  169DOPC  H13Y20606   0.873   4.308  15.921  1.7198 -3.4068 -1.3986
  169DOPC  C31420607   1.015   4.452  15.824  0.0133  0.1380 -0.0262
  169DOPC  H14X20608   0.958   4.546  15.835 -0.1674  0.3522 -2.3205
  169DOPC  H14Y20609   1.123   4.475  15.830 -0.0560  0.9213 -1.3769
  169DOPC  C31520610   0.984   4.380  15.692  0.8404 -0.6040  0.2476
  169DOPC  H15X20611   1.015   4.449  15.611  0.4717 -0.5732  0.1335
  169DOPC  H15Y20612   0.875   4.360  15.693  0.3684  1.6277  1.8645
  169DOPC  C31620613   1.049   4.241  15.688  0.0744  0.0870  0.1567
  169DOPC  H16X20614   1.008   4.173  15.765 -0.9997  1.3767  0.7563
  169DOPC  H16Y20615   1.016   4.188  15.595 -3.4314 -0.0278  1.3152
  169DOPC  C31720616   1.205   4.248  15.679 -0.2060  0.4395  0.3267
  169DOPC  H17X20617   1.247   4.318  15.604  1.5843 -0.5991  0.3083
  169DOPC  H17Y20618   1.248   4.285  15.774  0.8280 -0.8690  0.3883
  169DOPC  C31820619   1.271   4.112  15.655 -0.3329  1.1449 -0.9835
  169DOPC  H18X20620   1.231   4.049  15.573 -0.3497  0.3802 -0.3946
  169DOPC  H18Y20621   1.380   4.119  15.633 -0.1678  0.4349 -0.3932
  169DOPC  H18Z20622   1.270   4.061  15.753  2.6585  0.9095 -0.9938
  170DOPC     N20623   0.405   2.781  18.201  0.1875  0.5449 -0.0369
  170DOPC   C1220624   0.494   2.667  18.169  0.2352 -0.2549  0.0358
  170DOPC  H12A20625   0.507   2.608  18.259 -0.2951  0.2757  0.4797
  170DOPC  H12B20626   0.592   2.696  18.135  0.1053  0.5644  0.3215
  170DOPC   C1320627   0.283   2.748  18.282 -0.4443 -0.6976 -0.5392
  170DOPC  H13A20628   0.229   2.657  18.259 -0.6062 -1.2813  1.8659
  170DOPC  H13B20629   0.303   2.732  18.387 -0.9597  0.9140 -0.1681
  170DOPC  H13C20630   0.216   2.833  18.278  1.7264  1.1107 -0.1413
  170DOPC   C1420631   0.369   2.856  18.078  0.6910 -0.5814 -0.6093
  170DOPC  H14A20632   0.292   2.927  18.103 -1.6147 -2.7453 -1.1354
  170DOPC  H14B20633   0.452   2.906  18.030 -0.4604  1.4093 -0.6467
  170DOPC  H14C20634   0.321   2.797  18.001 -0.2527  1.9935 -2.1310
  170DOPC   C1520635   0.488   2.873  18.278 -0.8871 -0.5351  0.1013
  170DOPC  H15A20636   0.547   2.833  18.359  0.4451  0.8173 -0.1538
  170DOPC  H15B20637   0.421   2.945  18.321 -0.0966 -0.2085  0.8084
  170DOPC  H15C20638   0.567   2.924  18.226 -1.4615  0.6380  0.3612
  170DOPC   C1120639   0.446   2.566  18.061  0.0146 -0.1613 -0.4743
  170DOPC  H11A20640   0.435   2.625  17.968  4.6630  0.3856 -0.8829
  170DOPC  H11B20641   0.526   2.490  18.053 -1.2573 -1.4394 -1.8326
  170DOPC     P20642   0.304   2.348  18.129  0.2810  0.0356 -0.1506
  170DOPC   O1320643   0.176   2.342  18.202  0.2648  0.0057  0.1505
  170DOPC   O1420644   0.416   2.294  18.211 -0.0102 -0.2482  0.4146
  170DOPC   O1220645   0.322   2.502  18.091 -0.0834 -0.1148 -0.2522
  170DOPC   O1120646   0.296   2.276  17.987 -0.2842 -0.2024  0.1382
  170DOPC    C120647   0.286   2.365  17.870  0.6858  0.3152 -1.0590
  170DOPC    HA20648   0.387   2.409  17.852  0.2782  1.6107 -0.3633
  170DOPC    HB20649   0.211   2.447  17.879 -0.5483 -0.8714 -0.2142
  170DOPC    C220650   0.243   2.284  17.746  0.5499  0.6626  0.2368
  170DOPC    HS20651   0.148   2.232  17.772 -0.4708  0.6696 -3.0863
  170DOPC   O2120652   0.349   2.193  17.709  0.2306 -0.6830 -0.7144
  170DOPC   C2120653   0.308   2.093  17.621 -0.0479  0.0272 -0.5496
  170DOPC   O2220654   0.189   2.057  17.606  0.0605  0.7442 -0.3188
  170DOPC   C2220655   0.428   2.024  17.554  0.0071 -0.7347 -0.3119
  170DOPC   H2R20656   0.403   1.917  17.542 -1.3990 -0.3362 -1.2021
  170DOPC   H2S20657   0.526   2.034  17.605  0.3512  1.3091 -1.2509
  170DOPC    C320658   0.212   2.397  17.637  0.2523  0.4721  0.4089
  170DOPC    HX20659   0.311   2.445  17.623  0.2033  0.4993  0.1556
  170DOPC    HY20660   0.147   2.475  17.681 -0.1971 -0.2903  1.1339
  170DOPC   O3120661   0.159   2.352  17.512 -0.4182  0.0967  0.7953
  170DOPC   C3120662   0.035   2.319  17.515 -0.0660  1.3832 -0.0395
  170DOPC   O3220663  -0.036   2.319  17.620  0.3665 -0.0326  0.5824
  170DOPC   C3220664  -0.019   2.281  17.378 -0.2923  0.3936  0.7757
  170DOPC   H2X20665  -0.016   2.170  17.368  1.7231  0.2965  1.7999
  170DOPC   H2Y20666  -0.120   2.327  17.382 -0.5068 -0.1061  1.1339
  170DOPC   C2320667   0.447   2.074  17.405  0.3515 -0.2210 -0.2393
  170DOPC   H3R20668   0.556   2.082  17.388  0.0363  0.9181 -1.9895
  170DOPC   H3S20669   0.415   2.181  17.405  2.9993  0.6396  0.2928
  170DOPC   C2420670   0.370   1.995  17.298 -0.7331 -0.6094  0.4917
  170DOPC   H4R20671   0.263   1.988  17.329 -0.6250 -0.5832  0.8797
  170DOPC   H4S20672   0.405   1.897  17.260 -1.6699 -0.0108 -2.1209
  170DOPC   C2520673   0.388   2.080  17.169  0.0726  0.0782 -0.0744
  170DOPC   H5R20674   0.496   2.097  17.152  0.5110 -2.5332 -0.2562
  170DOPC   H5S20675   0.347   2.183  17.184  0.3649  0.1426  0.2976
  170DOPC   C2620676   0.340   2.013  17.041  0.2060 -0.3848 -0.1176
  170DOPC   H6R20677   0.233   1.985  17.049 -0.3043  1.8837  2.2152
  170DOPC   H6S20678   0.390   1.915  17.025 -1.9002 -1.4572 -0.5625
  170DOPC   C2720679   0.342   2.105  16.922  0.2075  0.3331 -0.4377
  170DOPC   H7R20680   0.449   2.132  16.911  1.0315 -1.5424  1.9250
  170DOPC   H7S20681   0.280   2.194  16.946  1.3738  0.9799  0.2759
  170DOPC   C2820682   0.278   2.030  16.803  0.3086  0.2550 -0.0802
  170DOPC   H8R20683   0.191   1.965  16.825  0.6091 -0.6578 -1.4289
  170DOPC   H8S20684   0.346   1.957  16.754 -0.5865 -0.0559 -0.8831
  170DOPC   C2920685   0.229   2.139  16.698 -0.6589  0.4520 -0.3911
  170DOPC   H9R20686   0.182   2.230  16.738  1.6953  1.2564  0.7393
  170DOPC  C21020687   0.265   2.133  16.562  0.2597 -0.0015 -0.3909
  170DOPC  H10R20688   0.229   2.216  16.499  0.2076  2.8622  3.1120
  170DOPC  C21120689   0.323   2.017  16.486  0.3067  0.5619 -0.4656
  170DOPC  H11R20690   0.317   1.931  16.556  0.3309  0.4064 -0.6556
  170DOPC  H11S20691   0.430   2.044  16.472  0.0539  4.2155  2.8890
  170DOPC  C21220692   0.238   1.971  16.366  0.0139  0.7594  1.2646
  170DOPC  H12R20693   0.135   1.944  16.395 -0.0861  0.2090  0.4271
  170DOPC  H12S20694   0.286   1.875  16.338  0.3071  1.3758 -0.5206
  170DOPC  C21320695   0.230   2.060  16.243 -0.9358 -0.7199 -0.1124
  170DOPC  H13R20696   0.333   2.089  16.213 -1.7510  1.5171 -0.9368
  170DOPC  H13S20697   0.187   2.161  16.262  0.1411 -0.1949 -0.3496
  170DOPC  C21420698   0.154   1.993  16.125  0.4002  0.3480 -0.2323
  170DOPC  H14R20699   0.067   1.929  16.154  0.0162  0.0643 -1.9177
  170DOPC  H14S20700   0.230   1.925  16.082  0.3018  1.0707 -1.5961
  170DOPC  C21520701   0.112   2.102  16.023 -0.7221  0.4965 -0.4985
  170DOPC  H15R20702   0.075   2.193  16.074 -3.2623 -0.3300 -0.7042
  170DOPC  H15S20703   0.029   2.055  15.965  0.9626 -1.0170 -1.8156
  170DOPC  C21620704   0.233   2.146  15.925 -0.1126  0.2835  0.0845
  170DOPC  H16R20705   0.331   2.152  15.978  0.8527  1.5084 -1.7661
  170DOPC  H16S20706   0.213   2.252  15.901 -4.0844 -0.0208  1.3336
  170DOPC  C21720707   0.241   2.061  15.799 -0.6494 -0.5418 -0.5491
  170DOPC  H17R20708   0.136   2.043  15.766 -0.5992 -1.3645 -0.2819
  170DOPC  H17S20709   0.276   1.963  15.838 -0.2305 -0.2588 -0.2136
  170DOPC  C21820710   0.332   2.127  15.687  0.1156  0.2598 -0.5536
  170DOPC  H18R20711   0.436   2.147  15.722 -0.0870 -0.3819  0.4739
  170DOPC  H18S20712   0.288   2.224  15.659 -0.1495  0.4525  0.5064
  170DOPC  H18T20713   0.332   2.048  15.608 -0.3131 -0.4657  0.1506
  170DOPC   C3320714   0.050   2.336  17.247 -0.5907 -0.1005 -0.1511
  170DOPC   H3X20715   0.154   2.299  17.231  0.7210  3.6960 -1.3568
  170DOPC   H3Y20716   0.061   2.445  17.262 -1.0542 -0.0032 -0.5015
  170DOPC   C3420717  -0.036   2.311  17.129 -0.4630  0.0302 -0.0066
  170DOPC   H4X20718  -0.139   2.353  17.140  0.0649  2.0241 -1.9409
  170DOPC   H4Y20719  -0.039   2.205  17.097 -0.3210 -0.1742  0.6304
  170DOPC   C3520720   0.007   2.403  17.005 -0.2072 -0.4422  0.0540
  170DOPC   H5X20721   0.116   2.386  16.993  0.4001  2.5497  0.6719
  170DOPC   H5Y20722   0.002   2.509  17.038 -1.7216  0.0526 -1.6277
  170DOPC   C3620723  -0.075   2.371  16.880  0.0963 -0.4060  0.1388
  170DOPC   H6X20724  -0.039   2.436  16.797  0.2963 -0.5488  0.1145
  170DOPC   H6Y20725  -0.066   2.267  16.843  0.0333 -0.4949  0.3784
  170DOPC   C3720726  -0.221   2.418  16.900  0.3821  0.5749 -0.0796
  170DOPC   H7X20727  -0.269   2.344  16.968  2.5208 -0.7731  0.0687
  170DOPC   H7Y20728  -0.216   2.517  16.952 -1.9035  0.1318  1.1019
  170DOPC   C3820729  -0.305   2.426  16.765  0.3568 -0.2384  0.1495
  170DOPC   H8X20730  -0.411   2.452  16.782  1.0588  2.4427  0.9648
  170DOPC   H8Y20731  -0.306   2.321  16.730  1.6442  0.4682 -2.1837
  170DOPC   C3920732  -0.252   2.526  16.665  0.0988 -0.0777  0.5697
  170DOPC   H9X20733  -0.255   2.627  16.709  0.5696 -0.9236  2.6560
  170DOPC  C31020734  -0.190   2.497  16.544 -0.7601 -0.6160 -0.0980
  170DOPC  H10X20735  -0.180   2.581  16.475 -1.5999 -0.0968  0.3904
  170DOPC  C31120736  -0.157   2.364  16.483 -0.8129  0.6536 -0.4591
  170DOPC  H11X20737  -0.187   2.285  16.555  0.7741 -0.6421 -1.1347
  170DOPC  H11Y20738  -0.047   2.353  16.471 -0.8233  0.0365 -0.0598
  170DOPC  C31220739  -0.230   2.341  16.349 -0.0862  1.2640  0.3229
  170DOPC  H12X20740  -0.334   2.379  16.349 -0.5107  0.2268 -1.5740
  170DOPC  H12Y20741  -0.222   2.232  16.328  2.1460  1.2876  0.7891
  170DOPC  C31320742  -0.152   2.392  16.227  0.7219 -0.1347  0.6777
  170DOPC  H13X20743  -0.172   2.500  16.216  1.1192  0.0889  2.0053
  170DOPC  H13Y20744  -0.045   2.363  16.238  0.8761 -1.4961 -2.9483
  170DOPC  C31420745  -0.195   2.324  16.098  0.0559 -0.0589 -0.0726
  170DOPC  H14X20746  -0.190   2.214  16.113 -2.0501 -0.3421 -1.0470
  170DOPC  H14Y20747  -0.304   2.341  16.086 -0.0226  0.6577  1.4444
  170DOPC  C31520748  -0.117   2.390  15.987  0.4065 -0.7193 -0.0160
  170DOPC  H15X20749  -0.008   2.399  16.011  0.6480 -2.4701 -0.3393
  170DOPC  H15Y20750  -0.160   2.491  15.969 -0.9329 -1.2388  0.2119
  170DOPC  C31620751  -0.139   2.316  15.858  0.5829  0.5270  0.4411
  170DOPC  H16X20752  -0.112   2.209  15.873  3.1155  0.6167 -2.4350
  170DOPC  H16Y20753  -0.245   2.321  15.826  0.6098 -2.9542 -0.6735
  170DOPC  C31720754  -0.053   2.368  15.747  0.1005  0.2956 -0.0289
  170DOPC  H17X20755  -0.042   2.478  15.741  2.1329  0.2657  1.9924
  170DOPC  H17Y20756   0.050   2.337  15.772 -0.9557 -2.0775  1.8282
  170DOPC  C31820757  -0.109   2.301  15.615 -0.2780 -0.0604  0.6317
  170DOPC  H18X20758  -0.043   2.327  15.529 -1.1095  2.2395  0.6061
  170DOPC  H18Y20759  -0.092   2.191  15.615  1.9043  0.1569 -2.0050
  170DOPC  H18Z20760  -0.214   2.333  15.596 -0.3817 -1.5456 -1.6976
  171DOPC     N20761   1.958   0.825  12.536  0.6869  0.1935 -0.1792
  171DOPC   C1220762   2.076   0.895  12.601 -0.1992 -0.1131 -0.0297
  171DOPC  H12A20763   2.035   0.985  12.644 -0.3327 -0.5056  0.6796
  171DOPC  H12B20764   2.153   0.919  12.529 -1.1700  1.5651 -0.5746
  171DOPC   C1320765   1.898   0.904  12.424  0.4544 -0.5686 -0.2050
  171DOPC  H13A20766   1.889   1.002  12.467  2.9990  0.9344 -2.7069
  171DOPC  H13B20767   1.954   0.912  12.332  1.2588  1.2396  0.4035
  171DOPC  H13C20768   1.793   0.881  12.412  0.4949 -0.8126 -0.1150
  171DOPC   C1420769   1.847   0.810  12.640  0.8608 -0.6613 -0.6020
  171DOPC  H14A20770   1.882   0.772  12.735 -2.3129  2.0056  1.8891
  171DOPC  H14B20771   1.795   0.901  12.668  0.6215 -1.4143  1.5937
  171DOPC  H14C20772   1.764   0.754  12.601 -2.0139  0.5562  3.2215
  171DOPC   C1520773   1.972   0.682  12.489  0.1680  0.0672 -0.0761
  171DOPC  H15A20774   2.036   0.673  12.402 -0.3241  2.1035 -0.7326
  171DOPC  H15B20775   1.879   0.638  12.455  1.6218 -4.6237  1.3004
  171DOPC  H15C20776   2.020   0.624  12.566  0.9740  0.3978 -0.3157
  171DOPC   C1120777   2.137   0.829  12.726 -0.6061  0.4983 -0.1256
  171DOPC  H11A20778   2.226   0.882  12.764  0.1065 -0.6864 -0.0930
  171DOPC  H11B20779   2.054   0.828  12.801 -1.2374 -0.9882 -0.7899
  171DOPC     P20780   2.304   0.637  12.644 -0.3269 -0.1430  0.4223
  171DOPC   O1320781   2.366   0.723  12.536 -0.3042  1.0350 -0.1424
  171DOPC   O1420782   2.276   0.496  12.618  0.3174 -0.2539 -0.9138
  171DOPC   O1220783   2.171   0.696  12.701  0.3082 -0.2565  0.9398
  171DOPC   O1120784   2.411   0.629  12.763  0.2921  0.1955  0.1053
  171DOPC    C120785   2.368   0.595  12.893  0.4719  0.5029 -0.0917
  171DOPC    HA20786   2.292   0.514  12.902  0.8992  0.2438  1.5872
  171DOPC    HB20787   2.339   0.688  12.948  0.3871  0.3391  0.1439
  171DOPC    C220788   2.481   0.532  12.981 -0.4698 -0.1286 -0.2402
  171DOPC    HS20789   2.568   0.600  12.967 -1.6031  1.4696  0.1903
  171DOPC   O2120790   2.511   0.400  12.933  0.3408  0.1797 -0.4288
  171DOPC   C2120791   2.629   0.348  12.966 -0.2777 -0.1550 -0.1789
  171DOPC   O2220792   2.727   0.411  12.998  0.5296  0.3957 -0.1597
  171DOPC   C2220793   2.621   0.198  12.946 -0.3234 -0.1291  0.3767
  171DOPC   H2R20794   2.720   0.157  12.976 -0.2954 -2.2181 -2.2279
  171DOPC   H2S20795   2.602   0.180  12.838 -0.1743 -0.8223  0.4620
  171DOPC    C320796   2.437   0.529  13.128  0.3101  0.5059 -0.6508
  171DOPC    HX20797   2.362   0.446  13.131 -1.2953  1.8496 -1.8684
  171DOPC    HY20798   2.383   0.617  13.169  2.6835  0.2112  3.6408
  171DOPC   O3120799   2.553   0.488  13.207 -0.5484 -0.2054 -0.3719
  171DOPC   C3120800   2.629   0.591  13.247 -0.0762 -0.3624 -0.0629
  171DOPC   O3220801   2.605   0.708  13.225  0.1775 -0.4281  0.8764
  171DOPC   C3220802   2.740   0.542  13.348  0.5701 -0.5550  0.3645
  171DOPC   H2X20803   2.809   0.482  13.286 -1.0989 -1.9637 -0.2076
  171DOPC   H2Y20804   2.795   0.633  13.381  1.1780 -0.5224 -0.6983
  171DOPC   C2320805   2.516   0.133  13.038  0.4985 -1.1436 -0.2531
  171DOPC   H3R20806   2.524   0.024  13.017  4.2341 -0.9160 -0.6939
  171DOPC   H3S20807   2.417   0.173  13.006  0.8310  0.3548  0.4688
  171DOPC   C2420808   2.529   0.142  13.189 -0.0627  0.2014 -0.9047
  171DOPC   H4R20809   2.529   0.248  13.220  0.6611 -0.4129  1.4261
  171DOPC   H4S20810   2.619   0.090  13.227 -1.3437 -1.9059 -0.5604
  171DOPC   C2520811   2.414   0.078  13.272 -0.7396  0.4592 -0.3398
  171DOPC   H5R20812   2.401  -0.027  13.238  0.4967 -0.4635  1.7952
  171DOPC   H5S20813   2.313   0.119  13.250  0.1328  3.0024  0.0488
  171DOPC   C2620814   2.438   0.094  13.422 -0.1279  0.2222 -0.4388
  171DOPC   H6R20815   2.340   0.070  13.468 -0.6434  3.1170  0.1893
  171DOPC   H6S20816   2.464   0.199  13.447 -0.1907  0.1255  0.0292
  171DOPC   C2720817   2.547   0.001  13.475  0.3041 -0.0184 -0.6317
  171DOPC   H7R20818   2.648   0.046  13.463  0.5138  0.5302  2.3837
  171DOPC   H7S20819   2.544  -0.098  13.424 -2.2389 -0.7405  0.7397
  171DOPC   C2820820   2.531  -0.047  13.619 -0.7859 -0.0523 -0.6157
  171DOPC   H8R20821   2.562   0.040  13.681  2.4498  0.6157 -2.9151
  171DOPC   H8S20822   2.609  -0.123  13.639  2.4628  3.5275  1.6747
  171DOPC   C2920823   2.394  -0.098  13.654 -0.1757  0.1646 -0.2834
  171DOPC   H9R20824   2.342  -0.150  13.572  0.8975 -0.4161 -0.6215
  171DOPC  C21020825   2.323  -0.078  13.759 -0.6870 -1.1578  0.2595
  171DOPC  H10R20826   2.234  -0.142  13.769 -1.5514 -0.0602 -0.1939
  171DOPC  C21120827   2.373  -0.010  13.880  0.1917  0.0275  0.0276
  171DOPC  H11R20828   2.293   0.054  13.924 -0.7452 -2.1893  1.7717
  171DOPC  H11S20829   2.471   0.041  13.874 -1.3874  3.3275 -0.0061
  171DOPC  C21220830   2.385  -0.110  13.996 -0.0285 -1.2805  1.0352
  171DOPC  H12R20831   2.467  -0.184  13.985 -1.0126 -2.2325 -0.1404
  171DOPC  H12S20832   2.291  -0.166  14.016  0.7869 -3.9978 -1.9282
  171DOPC  C21320833   2.415  -0.040  14.132  0.2842  0.0801  0.6542
  171DOPC  H13R20834   2.360   0.057  14.136 -0.0366 -0.0670  0.0231
  171DOPC  H13S20835   2.522  -0.012  14.134  0.9142 -2.0479 -0.6715
  171DOPC  C21420836   2.390  -0.121  14.257 -0.0838  0.6791  0.3992
  171DOPC  H14R20837   2.440  -0.220  14.252 -1.1095  0.1401  0.4290
  171DOPC  H14S20838   2.282  -0.148  14.267  0.2308 -0.8468  0.0319
  171DOPC  C21520839   2.440  -0.059  14.383 -0.5470  0.2165  0.6575
  171DOPC  H15R20840   2.367   0.022  14.405 -0.6309  1.0000 -2.1587
  171DOPC  H15S20841   2.532   0.004  14.374  1.2430 -1.9941  2.1848
  171DOPC  C21620842   2.459  -0.158  14.502 -0.1778 -1.1579  0.5212
  171DOPC  H16R20843   2.533  -0.226  14.454 -0.7141 -1.2693 -0.1581
  171DOPC  H16S20844   2.366  -0.215  14.522 -1.1622  0.8082  1.8605
  171DOPC  C21720845   2.522  -0.098  14.625  0.1048 -0.5085 -0.1320
  171DOPC  H17R20846   2.618  -0.048  14.602 -0.1122  0.1411  0.3325
  171DOPC  H17S20847   2.570  -0.173  14.691  3.7236  0.9692 -0.8532
  171DOPC  C21820848   2.421  -0.017  14.696 -0.1002  0.3078  0.4124
  171DOPC  H18R20849   2.338  -0.080  14.735  0.4189 -0.5120  0.2156
  171DOPC  H18S20850   2.379   0.064  14.633 -0.6680  0.9005  1.5174
  171DOPC  H18T20851   2.469   0.034  14.783  2.3552  1.8630 -1.7231
  171DOPC   C3320852   2.682   0.460  13.467  0.6004 -0.3602  0.3385
  171DOPC   H3X20853   2.756   0.422  13.542 -0.6600 -0.9510  1.3271
  171DOPC   H3Y20854   2.633   0.373  13.418 -0.2388 -0.1759  0.8430
  171DOPC   C3420855   2.577   0.543  13.543 -0.3226 -0.9613 -0.0830
  171DOPC   H4X20856   2.496   0.573  13.472  0.3541  1.1782 -0.0461
  171DOPC   H4Y20857   2.628   0.631  13.589  2.6397 -3.4223  1.6873
  171DOPC   C3520858   2.515   0.470  13.656  0.3141  0.0177 -0.0708
  171DOPC   H5X20859   2.604   0.444  13.717 -0.3778  0.0168  0.9734
  171DOPC   H5Y20860   2.451   0.383  13.630  0.3412 -0.0945  0.2340
  171DOPC   C3620861   2.436   0.562  13.752  0.2842 -0.8903 -0.0809
  171DOPC   H6X20862   2.504   0.646  13.777  1.1298 -1.4541 -0.4284
  171DOPC   H6Y20863   2.357   0.617  13.697  0.7856 -0.3207 -0.2448
  171DOPC   C3720864   2.372   0.503  13.881  0.7112  0.5568  0.4444
  171DOPC   H7X20865   2.345   0.592  13.941 -0.0891 -2.1587  4.5615
  171DOPC   H7Y20866   2.276   0.450  13.859  0.1655  0.6970  2.3692
  171DOPC   C3820867   2.458   0.408  13.970  0.2191 -0.1472  0.4882
  171DOPC   H8X20868   2.541   0.478  13.997 -0.0159  0.0393  0.7371
  171DOPC   H8Y20869   2.494   0.326  13.905 -1.1647  0.5235 -1.1911
  171DOPC   C3920870   2.384   0.357  14.093 -0.2287  0.1179  0.0873
  171DOPC   H9X20871   2.341   0.260  14.067  1.2929 -0.7340  0.6550
  171DOPC  C31020872   2.379   0.406  14.217 -0.2362 -0.1054  0.4885
  171DOPC  H10X20873   2.317   0.357  14.293 -0.5121  0.5690  0.7125
  171DOPC  C31120874   2.449   0.537  14.262 -0.0749 -0.3102  0.0335
  171DOPC  H11X20875   2.377   0.615  14.295  1.8426  1.2756  0.6661
  171DOPC  H11Y20876   2.504   0.580  14.175 -0.7029 -1.6598 -1.0811
  171DOPC  C31220877   2.536   0.510  14.379  0.4234  0.2073  0.3485
  171DOPC  H12X20878   2.581   0.610  14.399  2.4904 -0.5844 -0.0567
  171DOPC  H12Y20879   2.605   0.428  14.350  0.9093  0.4199  0.8643
  171DOPC  C31320880   2.452   0.479  14.504  0.0246  0.3881 -0.3063
  171DOPC  H13X20881   2.361   0.543  14.505 -1.4221 -1.5586  1.3120
  171DOPC  H13Y20882   2.397   0.387  14.475  1.2460  0.3713 -2.7630
  171DOPC  C31420883   2.518   0.469  14.642 -0.3672  1.0733 -0.6732
  171DOPC  H14X20884   2.612   0.413  14.625  0.5641  2.0999  0.8137
  171DOPC  H14Y20885   2.545   0.573  14.672  1.5325  0.4887 -0.1923
  171DOPC  C31520886   2.436   0.417  14.759  0.7098  0.8272  0.5912
  171DOPC  H15X20887   2.415   0.309  14.743 -1.4649  1.2295  0.3432
  171DOPC  H15Y20888   2.335   0.464  14.770  1.3711  2.3344  0.4379
  171DOPC  C31620889   2.498   0.422  14.895  0.7144  0.2466  0.0412
  171DOPC  H16X20890   2.605   0.395  14.880  0.2947 -0.1629 -2.7083
  171DOPC  H16Y20891   2.486   0.523  14.939  0.2373 -0.3366  1.3390
  171DOPC  C31720892   2.436   0.331  15.003  0.1925  0.0992  0.0922
  171DOPC  H17X20893   2.464   0.225  14.984  0.7684  0.5182 -1.5201
  171DOPC  H17Y20894   2.487   0.362  15.096 -1.1750 -0.1379  0.9528
  171DOPC  C31820895   2.282   0.343  15.035 -0.2967 -0.5647 -0.3933
  171DOPC  H18X20896   2.247   0.289  15.126 -2.8422  0.8405 -0.4392
  171DOPC  H18Y20897   2.257   0.450  15.049  1.6057 -0.3461  1.7769
  171DOPC  H18Z20898   2.211   0.297  14.961 -0.0579 -2.3899  0.4542
  172DOPC     N20899   1.659   0.270  12.761  0.1385 -0.2825 -0.5399
  172DOPC   C1220900   1.693   0.161  12.849  0.4167  0.2768  0.4578
  172DOPC  H12A20901   1.777   0.107  12.808 -0.1415 -0.9030  0.8372
  172DOPC  H12B20902   1.616   0.086  12.841  1.2853 -0.4162 -2.2620
  172DOPC   C1320903   1.764   0.370  12.749  0.4159  0.9515  0.3074
  172DOPC  H13A20904   1.841   0.324  12.690 -0.0085  2.2365 -1.3272
  172DOPC  H13B20905   1.731   0.446  12.679 -2.6451 -0.2757  0.2913
  172DOPC  H13C20906   1.811   0.410  12.838  1.9008 -0.3617  0.1464
  172DOPC   C1420907   1.543   0.348  12.817 -0.2732 -0.3087 -0.0329
  172DOPC  H14A20908   1.524   0.437  12.758 -0.6069 -1.5408 -1.8849
  172DOPC  H14B20909   1.453   0.290  12.826  0.4974 -1.4091  0.9210
  172DOPC  H14C20910   1.581   0.389  12.909 -1.0912 -0.5585  0.4257
  172DOPC   C1520911   1.633   0.219  12.618 -0.2399 -0.3948 -0.2868
  172DOPC  H15A20912   1.710   0.162  12.568 -1.1250 -0.4574 -1.6260
  172DOPC  H15B20913   1.622   0.304  12.552  0.8303  0.9052  1.1115
  172DOPC  H15C20914   1.539   0.168  12.613  0.4219 -2.1505  2.8008
  172DOPC   C1120915   1.727   0.187  12.996  0.4067  0.2099  0.3990
  172DOPC  H11A20916   1.635   0.236  13.035  0.2118 -0.0502  0.2726
  172DOPC  H11B20917   1.732   0.093  13.055  2.7653  1.1973  1.8982
  172DOPC     P20918   1.983   0.194  12.997 -0.3056 -0.5192 -0.0769
  172DOPC   O1320919   2.073   0.279  12.917 -0.0938  0.0178 -0.5848
  172DOPC   O1420920   1.969   0.059  12.948  0.3308 -0.0504 -0.6549
  172DOPC   O1220921   1.847   0.270  13.013  0.2965  0.7750 -0.3320
  172DOPC   O1120922   2.022   0.203  13.150 -0.0802 -0.0506  0.2115
  172DOPC    C120923   2.076   0.327  13.206  0.2809  1.0381  0.6552
  172DOPC    HA20924   2.073   0.413  13.136  0.9024 -0.2619 -1.0162
  172DOPC    HB20925   2.187   0.317  13.217  0.7779  3.4653 -1.2962
  172DOPC    C220926   1.993   0.363  13.333 -0.2009 -0.1228  0.4865
  172DOPC    HS20927   2.018   0.468  13.360  1.3615 -0.2884 -0.2045
  172DOPC   O2120928   2.031   0.283  13.444  0.0481  0.6830 -0.6409
  172DOPC   C2120929   2.149   0.309  13.492 -0.1885 -0.3038 -0.6801
  172DOPC   O2220930   2.236   0.384  13.452 -0.0693  0.2740  0.1128
  172DOPC   C2220931   2.163   0.237  13.619  0.2170  0.0007 -0.5449
  172DOPC   H2R20932   2.239   0.290  13.681  0.2956 -1.3730  0.5805
  172DOPC   H2S20933   2.203   0.134  13.606  0.9419  0.4005 -1.6354
  172DOPC    C320934   1.839   0.350  13.304  0.2165 -0.2026  0.0679
  172DOPC    HX20935   1.815   0.242  13.295  1.7730 -0.5870  0.1630
  172DOPC    HY20936   1.818   0.394  13.204  0.5343  0.1615  0.1576
  172DOPC   O3120937   1.765   0.402  13.410  0.2335 -0.1970 -0.5477
  172DOPC   C3120938   1.718   0.525  13.397  0.4058 -0.0883  0.3958
  172DOPC   O3220939   1.719   0.591  13.293  0.1750 -0.1934 -0.6965
  172DOPC   C3220940   1.641   0.568  13.524 -0.0486  0.4263  0.0934
  172DOPC   H2X20941   1.560   0.636  13.490 -1.3383 -1.5529 -0.9666
  172DOPC   H2Y20942   1.594   0.474  13.560  0.1244 -0.1423 -1.1102
  172DOPC   C2320943   2.034   0.233  13.702  0.2567  0.0264 -0.1849
  172DOPC   H3R20944   1.946   0.180  13.659 -0.3707  1.4725 -0.7305
  172DOPC   H3S20945   1.995   0.334  13.728 -0.8461 -0.1313 -1.1387
  172DOPC   C2420946   2.058   0.177  13.843 -0.8443 -0.3378  0.4493
  172DOPC   H4R20947   2.140   0.230  13.897 -0.5576 -0.0507 -0.2458
  172DOPC   H4S20948   2.091   0.072  13.825  0.0830 -0.2913  1.7394
  172DOPC   C2520949   1.929   0.184  13.927  0.6078 -0.5380  0.3552
  172DOPC   H5R20950   1.851   0.128  13.872  0.1236  2.3451 -2.2032
  172DOPC   H5S20951   1.893   0.289  13.922 -0.7989 -1.0418 -1.0518
  172DOPC   C2620952   1.934   0.145  14.070 -1.0925 -0.1793  0.0769
  172DOPC   H6R20953   1.849   0.191  14.125 -1.4668  0.6549 -1.1380
  172DOPC   H6S20954   2.022   0.195  14.115 -0.3202 -1.9776  0.6551
  172DOPC   C2720955   1.935  -0.004  14.086  0.2737  0.3142  0.0020
  172DOPC   H7R20956   1.999  -0.047  14.006  0.1806  3.1926 -1.7546
  172DOPC   H7S20957   1.839  -0.055  14.065  0.6491 -0.7205  0.7341
  172DOPC   C2820958   1.985  -0.051  14.225  0.1691 -0.1721 -0.0295
  172DOPC   H8R20959   2.088  -0.009  14.233 -0.9864  2.6341  1.9600
  172DOPC   H8S20960   1.988  -0.161  14.214 -2.5620 -0.1785 -1.6510
  172DOPC   C2920961   1.888  -0.023  14.338 -0.1511  0.6484  0.6717
  172DOPC   H9R20962   1.781  -0.047  14.321  0.3456 -0.9367 -0.4934
  172DOPC  C21020963   1.930  -0.001  14.466  0.6231  0.3507  0.8376
  172DOPC  H10R20964   1.853   0.027  14.539 -0.7302  1.2785 -0.8758
  172DOPC  C21120965   2.071   0.032  14.516  0.0495  0.0350 -0.0234
  172DOPC  H11R20966   2.147   0.059  14.439  0.8540  0.3625  0.8691
  172DOPC  H11S20967   2.117  -0.052  14.573  0.0437 -0.4906 -0.7837
  172DOPC  C21220968   2.064   0.157  14.612 -1.1200 -0.4770 -0.6433
  172DOPC  H12R20969   2.026   0.243  14.554  0.8407  0.1237 -1.1174
  172DOPC  H12S20970   2.168   0.186  14.638 -1.1995 -1.0688  0.3880
  172DOPC  C21320971   1.977   0.152  14.735 -0.3547  0.7123  0.5701
  172DOPC  H13R20972   1.871   0.135  14.708 -0.4221 -2.7580  2.4595
  172DOPC  H13S20973   1.971   0.250  14.785  1.8376  0.6878  0.9716
  172DOPC  C21420974   2.016   0.055  14.847  0.4935 -0.2495 -0.0641
  172DOPC  H14R20975   2.125   0.046  14.862  0.5252 -1.2206 -0.7604
  172DOPC  H14S20976   1.970  -0.042  14.817 -1.3388  0.1495  1.2400
  172DOPC  C21520977   1.954   0.092  14.980 -0.3882 -0.1995 -0.0521
  172DOPC  H15R20978   1.849   0.125  14.965 -0.7522 -1.4041 -0.3396
  172DOPC  H15S20979   2.010   0.179  15.018  1.5767 -2.3173  2.2923
  172DOPC  C21620980   1.966  -0.011  15.082 -1.1568  0.2795 -0.3223
  172DOPC  H16R20981   2.072  -0.031  15.106 -0.8895  3.8517  2.3488
  172DOPC  H16S20982   1.937  -0.113  15.049  1.2790 -1.4452  2.3619
  172DOPC  C21720983   1.894   0.036  15.206 -0.5000 -0.6472 -0.4219
  172DOPC  H17R20984   1.784   0.037  15.191 -0.3830  1.1225 -1.4629
  172DOPC  H17S20985   1.924   0.143  15.216 -1.6755 -0.4354  1.1787
  172DOPC  C21820986   1.932  -0.044  15.336 -0.2722 -1.0655 -0.7836
  172DOPC  H18R20987   2.041  -0.024  15.352 -0.2063 -0.6898 -1.6118
  172DOPC  H18S20988   1.907  -0.151  15.324  0.2807 -1.5421  1.7732
  172DOPC  H18T20989   1.877  -0.008  15.425  0.3878  0.0752 -0.8126
  172DOPC   C3320990   1.732   0.631  13.635  0.2358 -0.1859  0.7019
  172DOPC   H3X20991   1.783   0.721  13.596  0.4669  0.5481  2.6031
  172DOPC   H3Y20992   1.811   0.561  13.668  0.1590  0.2425  1.8307
  172DOPC   C3420993   1.656   0.669  13.765  1.0721  0.3046 -0.2259
  172DOPC   H4X20994   1.592   0.582  13.793 -0.6549  1.5540 -0.1527
  172DOPC   H4Y20995   1.585   0.750  13.739  1.2859  1.4745  2.4698
  172DOPC   C3520996   1.737   0.709  13.885  0.2379 -0.0517  0.2217
  172DOPC   H5X20997   1.673   0.704  13.976  1.0674 -0.9256  0.7810
  172DOPC   H5Y20998   1.773   0.813  13.871 -0.3751  0.0718 -0.4690
  172DOPC   C3620999   1.857   0.626  13.924 -0.5547  0.1980 -0.1311
  172DOPC   H6X21000   1.838   0.516  13.922 -0.9633  0.2279  1.1224
  172DOPC   H6Y21001   1.938   0.648  13.851 -1.9271  0.3529 -1.6509
  172DOPC   C3721002   1.916   0.673  14.056  0.1637 -0.4381 -0.1759
  172DOPC   H7X21003   1.937   0.782  14.053  1.8052 -0.7504 -2.0089
  172DOPC   H7Y21004   1.837   0.652  14.131 -1.9587 -0.5251 -2.3212
  172DOPC   C3821005   2.050   0.606  14.097  0.0026 -0.4296  0.8204
  172DOPC   H8X21006   2.109   0.614  14.002  1.0323  1.1687  1.5581
  172DOPC   H8Y21007   2.015   0.500  14.104 -1.7341 -0.5218 -4.4223
  172DOPC   C3921008   2.115   0.661  14.212  0.3088 -0.7170  0.4374
  172DOPC   H9X21009   2.208   0.708  14.177 -0.4847  0.7585  0.1926
  172DOPC  C31021010   2.066   0.657  14.339  0.0409 -0.4747  0.2858
  172DOPC  H10X21011   2.106   0.723  14.417 -2.4669  2.0585 -0.3898
  172DOPC  C31121012   1.947   0.577  14.378 -0.8007 -0.2709  0.5483
  172DOPC  H11X21013   1.945   0.485  14.315  1.0547 -1.3448  1.9705
  172DOPC  H11Y21014   1.848   0.626  14.365 -0.9373  0.2830  3.1341
  172DOPC  C31221015   1.944   0.518  14.526  0.2118 -0.5151 -0.0304
  172DOPC  H12X21016   2.042   0.466  14.540  0.0981 -0.3587  1.5061
  172DOPC  H12Y21017   1.866   0.439  14.525  0.3958 -0.9569  3.8832
  172DOPC  C31321018   1.920   0.614  14.640  0.0486 -0.1030  0.1304
  172DOPC  H13X21019   2.002   0.689  14.645  0.9826 -0.8744 -2.2266
  172DOPC  H13Y21020   1.821   0.664  14.634  0.4467  0.9572  1.6286
  172DOPC  C31421021   1.930   0.541  14.783  0.1357 -0.5139  1.2160
  172DOPC  H14X21022   1.846   0.471  14.798 -0.4515  0.2354  1.5281
  172DOPC  H14Y21023   2.020   0.478  14.797  1.0335  0.0129 -1.6573
  172DOPC  C31521024   1.941   0.641  14.900 -0.5702  0.9508 -0.5339
  172DOPC  H15X21025   1.867   0.724  14.903 -0.8612  0.6724  0.0737
  172DOPC  H15Y21026   2.043   0.684  14.891 -0.4393  0.9368  0.7670
  172DOPC  C31621027   1.946   0.582  15.046 -0.1621  0.0479  0.3891
  172DOPC  H16X21028   1.843   0.560  15.082 -0.7195  0.6772 -0.7764
  172DOPC  H16Y21029   1.998   0.486  15.027 -0.7360 -0.5334  1.6036
  172DOPC  C31721030   2.014   0.667  15.157 -0.0989  0.2723  0.6606
  172DOPC  H17X21031   2.112   0.707  15.123 -0.3292 -0.9995 -1.7156
  172DOPC  H17Y21032   1.951   0.754  15.183  1.0936  1.4029 -0.1194
  172DOPC  C31821033   2.024   0.586  15.288  0.9222  0.1699 -1.0988
  172DOPC  H18X21034   1.920   0.574  15.326  0.5946  2.6137 -1.0831
  172DOPC  H18Y21035   2.067   0.487  15.261 -0.0505 -0.3267 -0.8559
  172DOPC  H18Z21036   2.092   0.637  15.361 -0.4447 -3.3789  3.1415
  173DOPC     N21037   6.600   0.764  13.183 -0.1701  0.2909  0.5286
  173DOPC   C1221038   6.563   0.777  13.330 -0.2232  0.2614 -0.3881
  173DOPC  H12A21039   6.647   0.818  13.383 -1.5048  0.0779  1.9347
  173DOPC  H12B21040   6.549   0.677  13.370 -0.7303  0.0939 -0.9599
  173DOPC   C1321041   6.721   0.676  13.180 -0.4431  0.4142 -0.2900
  173DOPC  H13A21042   6.707   0.575  13.216  0.5284  0.3654 -0.0483
  173DOPC  H13B21043   6.764   0.666  13.081 -0.5144  1.0998 -0.3959
  173DOPC  H13C21044   6.801   0.717  13.239 -0.5189 -0.6868  0.6108
  173DOPC   C1421045   6.623   0.895  13.123  0.5650 -0.0033 -0.7541
  173DOPC  H14A21046   6.695   0.947  13.184 -0.7502 -0.8148  1.6140
  173DOPC  H14B21047   6.643   0.893  13.017 -0.6986 -1.0795 -1.0026
  173DOPC  H14C21048   6.535   0.957  13.113 -0.1284 -0.4779  1.7994
  173DOPC   C1521049   6.485   0.706  13.108 -0.1544  0.1449  0.0608
  173DOPC  H15A21050   6.528   0.668  13.017  0.0536 -1.5297  0.8130
  173DOPC  H15B21051   6.402   0.774  13.102  0.5078  0.8454 -1.8771
  173DOPC  H15C21052   6.445   0.622  13.164 -1.0204  0.7287  0.3359
  173DOPC   C1121053   6.431   0.857  13.362  0.2921 -0.2457  0.5821
  173DOPC  H11A21054   6.348   0.811  13.303  1.8116 -1.7883 -0.4322
  173DOPC  H11B21055   6.402   0.834  13.467 -1.1357  0.9201  0.4815
  173DOPC     P21056   6.545   1.085  13.406 -0.0691  0.4688 -0.4027
  173DOPC   O1321057   6.542   1.215  13.339  0.6930  0.7456  0.5731
  173DOPC   O1421058   6.673   1.016  13.392  0.2023 -0.0532  0.4356
  173DOPC   O1221059   6.436   1.002  13.336 -0.0588  0.2681 -0.0842
  173DOPC   O1121060   6.504   1.092  13.558  0.0134  0.9426  0.3525
  173DOPC    C121061   6.373   1.134  13.595 -0.5442 -0.2309 -0.5307
  173DOPC    HA21062   6.289   1.068  13.565 -0.8430 -0.3522  0.5138
  173DOPC    HB21063   6.357   1.232  13.547 -1.1369 -0.6405 -1.1872
  173DOPC    C221064   6.344   1.154  13.745 -0.5862 -0.2029  0.3350
  173DOPC    HS21065   6.275   1.238  13.766 -0.9034  0.0884 -1.6279
  173DOPC   O2121066   6.473   1.178  13.809  0.9956 -0.3248 -0.1041
  173DOPC   C2121067   6.517   1.304  13.775 -0.3627  0.3664  0.1239
  173DOPC   O2221068   6.459   1.387  13.712 -0.1522  0.0498  0.1045
  173DOPC   C2221069   6.638   1.340  13.866 -0.2087 -0.0448  0.3194
  173DOPC   H2R21070   6.724   1.294  13.813 -0.0849 -0.2634  0.7137
  173DOPC   H2S21071   6.625   1.282  13.959  1.4835 -0.7706  0.1372
  173DOPC    C321072   6.290   1.026  13.808 -0.0916  0.7184  0.4570
  173DOPC    HX21073   6.371   0.952  13.790 -1.0241  0.0851 -1.4073
  173DOPC    HY21074   6.202   0.993  13.749 -0.9050  0.9086  1.5226
  173DOPC   O3121075   6.252   1.062  13.941 -0.1088  0.0187  0.1374
  173DOPC   C3121076   6.293   0.969  14.025  0.0697  0.1727  0.1116
  173DOPC   O3221077   6.333   0.857  13.995 -0.3080  0.4362  0.2639
  173DOPC   C3221078   6.275   1.026  14.167 -0.0216  0.0985  0.2107
  173DOPC   H2X21079   6.341   1.114  14.182  1.4446 -0.8874 -0.2150
  173DOPC   H2Y21080   6.170   1.060  14.157 -0.4642 -1.8467 -4.0696
  173DOPC   C2321081   6.654   1.495  13.877  0.2222 -0.5852  0.6869
  173DOPC   H3R21082   6.562   1.548  13.910  0.1039 -0.1900 -0.2415
  173DOPC   H3S21083   6.683   1.542  13.781 -0.1099 -2.3416 -0.3152
  173DOPC   C2421084   6.745   1.534  13.999  0.2507 -0.9948  0.3165
  173DOPC   H4R21085   6.748   1.644  13.988  1.6680 -1.2517 -2.8847
  173DOPC   H4S21086   6.851   1.507  13.983  0.6665 -0.5107  2.0737
  173DOPC   C2521087   6.698   1.500  14.144  0.4273 -0.4107  0.4247
  173DOPC   H5R21088   6.683   1.390  14.157  1.5722 -0.3898  2.4665
  173DOPC   H5S21089   6.599   1.545  14.164 -0.0967 -0.3238 -2.1066
  173DOPC   C2621090   6.793   1.550  14.258  0.1799 -0.2315 -0.0938
  173DOPC   H6R21091   6.874   1.618  14.223  0.1938  0.9085  1.9320
  173DOPC   H6S21092   6.846   1.461  14.299  1.6436  0.3619 -0.6531
  173DOPC   C2721093   6.722   1.621  14.379 -0.2155 -0.2770  0.4185
  173DOPC   H7R21094   6.653   1.697  14.337  0.6193  0.6654  0.7113
  173DOPC   H7S21095   6.795   1.677  14.441 -0.8776  0.9498  0.1110
  173DOPC   C2821096   6.639   1.528  14.465  0.0369 -0.0178  0.0644
  173DOPC   H8R21097   6.714   1.455  14.501 -0.0874 -0.5402 -0.7061
  173DOPC   H8S21098   6.562   1.474  14.406  0.5587 -1.5520  0.7236
  173DOPC   C2921099   6.564   1.607  14.568 -0.0732  0.4033 -0.0080
  173DOPC   H9R21100   6.511   1.691  14.522  0.1628  0.8163  0.4650
  173DOPC  C21021101   6.588   1.603  14.702 -0.2572  0.5138 -0.0382
  173DOPC  H10R21102   6.525   1.670  14.762  0.1270  0.6243  0.2481
  173DOPC  C21121103   6.683   1.516  14.779 -0.1486 -0.5674 -0.2067
  173DOPC  H11R21104   6.761   1.471  14.714 -1.2219  1.0725 -2.8051
  173DOPC  H11S21105   6.632   1.431  14.829 -0.6834 -0.3774 -0.4219
  173DOPC  C21221106   6.763   1.586  14.885 -1.1057 -0.6252  0.0976
  173DOPC  H12R21107   6.809   1.674  14.835  1.3643 -1.4298  0.8080
  173DOPC  H12S21108   6.849   1.522  14.913 -0.7996  0.2508  1.2128
  173DOPC  C21321109   6.678   1.633  15.004 -0.6339 -0.7384 -0.4648
  173DOPC  H13R21110   6.645   1.534  15.044  1.1902 -1.5763 -0.9423
  173DOPC  H13S21111   6.582   1.685  14.984 -1.0291 -1.0819  0.5061
  173DOPC  C21421112   6.755   1.705  15.111 -0.0730 -0.0841 -1.0749
  173DOPC  H14R21113   6.782   1.808  15.080 -0.9506  0.6629  0.4884
  173DOPC  H14S21114   6.847   1.647  15.133 -0.3428 -0.6896 -1.5234
  173DOPC  C21521115   6.677   1.725  15.246 -0.2770  0.0756  0.1769
  173DOPC  H15R21116   6.738   1.781  15.320  0.1207 -0.7989  0.5323
  173DOPC  H15S21117   6.652   1.621  15.278 -1.7340  0.2304 -0.3844
  173DOPC  C21621118   6.544   1.802  15.238 -0.1530  0.4197  0.2042
  173DOPC  H16R21119   6.477   1.755  15.164  1.5592  0.4131 -1.4302
  173DOPC  H16S21120   6.559   1.908  15.208  1.4696  0.6824  1.7653
  173DOPC  C21721121   6.485   1.799  15.377 -0.0328  0.1569 -0.2652
  173DOPC  H17R21122   6.471   1.691  15.398 -1.6298 -0.2701 -3.0759
  173DOPC  H17S21123   6.381   1.838  15.375 -0.0388  0.1042 -1.3180
  173DOPC  C21821124   6.558   1.880  15.490  0.6555  0.2723 -0.4546
  173DOPC  H18R21125   6.492   1.881  15.579  0.3613 -0.3789 -0.6584
  173DOPC  H18S21126   6.561   1.989  15.470  2.4574  0.0871 -1.4537
  173DOPC  H18T21127   6.657   1.844  15.527  0.5425 -0.5127 -0.9080
  173DOPC   C3321128   6.290   0.911  14.267  0.0834  0.7324 -0.2197
  173DOPC   H3X21129   6.392   0.869  14.274 -0.8530 -1.4412  1.7894
  173DOPC   H3Y21130   6.229   0.819  14.254  1.8635 -0.7440  1.2357
  173DOPC   C3421131   6.255   0.955  14.414  0.2442  0.5972 -0.4408
  173DOPC   H4X21132   6.145   0.962  14.426  0.0397  1.4573 -2.4060
  173DOPC   H4Y21133   6.296   1.059  14.416 -0.8784  1.0457 -0.1840
  173DOPC   C3521134   6.303   0.864  14.533 -0.5354  0.3820  1.0716
  173DOPC   H5X21135   6.414   0.858  14.527 -0.6301 -2.3766  0.6681
  173DOPC   H5Y21136   6.261   0.762  14.517  0.3562  0.0860  0.5404
  173DOPC   C3621137   6.251   0.926  14.668 -0.8301  0.5340 -0.2001
  173DOPC   H6X21138   6.305   1.011  14.713 -2.0029  0.9944  0.3881
  173DOPC   H6Y21139   6.152   0.970  14.643 -0.1774  1.2249 -1.7427
  173DOPC   C3721140   6.224   0.828  14.787 -0.7583  0.1627  0.3099
  173DOPC   H7X21141   6.161   0.752  14.736 -1.0885  0.8479 -0.3166
  173DOPC   H7Y21142   6.322   0.786  14.819 -1.1898 -1.1252  0.0343
  173DOPC   C3821143   6.147   0.897  14.899 -0.6311 -0.2878  0.3739
  173DOPC   H8X21144   6.101   0.823  14.969 -2.5865  0.5652  0.0758
  173DOPC   H8Y21145   6.059   0.955  14.862 -1.3736 -0.7496  1.3591
  173DOPC   C3921146   6.228   0.990  14.982  0.6115  0.1672 -0.5210
  173DOPC   H9X21147   6.337   0.984  14.974  0.8159  0.2903  1.4930
  173DOPC  C31021148   6.172   1.074  15.075 -0.1108 -0.1513 -0.0550
  173DOPC  H10X21149   6.251   1.143  15.108  0.6668 -0.5526 -1.0051
  173DOPC  C31121150   6.027   1.103  15.109 -0.8228  0.4547 -0.2048
  173DOPC  H11X21151   6.014   1.058  15.210  0.4024 -1.1046 -0.6982
  173DOPC  H11Y21152   5.965   1.037  15.044  0.1838 -0.2979 -0.4304
  173DOPC  C31221153   5.992   1.244  15.099 -0.1743 -0.1466  0.1644
  173DOPC  H12X21154   5.995   1.274  14.992  2.7228  0.3945  0.3228
  173DOPC  H12Y21155   6.069   1.308  15.146  0.3452 -0.8408  0.2605
  173DOPC  C31321156   5.854   1.287  15.160  0.3656 -0.5166  0.0111
  173DOPC  H13X21157   5.774   1.230  15.108 -1.2775  0.1002  1.7317
  173DOPC  H13Y21158   5.846   1.245  15.263  0.4474 -2.2128 -0.6419
  173DOPC  C31421159   5.819   1.441  15.149 -0.2516 -0.0156 -0.0925
  173DOPC  H14X21160   5.912   1.479  15.197 -0.3896 -2.0562  1.9621
  173DOPC  H14Y21161   5.815   1.469  15.041  1.8504 -1.0897 -0.5190
  173DOPC  C31521162   5.694   1.482  15.232  0.7225 -0.3112  0.7868
  173DOPC  H15X21163   5.722   1.462  15.337  0.4755  0.5064  1.0152
  173DOPC  H15Y21164   5.615   1.410  15.201  1.0090 -0.7014  0.9627
  173DOPC  C31621165   5.667   1.629  15.206 -0.5666  0.1306 -0.3191
  173DOPC  H16X21166   5.766   1.680  15.203  0.0237 -0.4854  3.5570
  173DOPC  H16Y21167   5.617   1.644  15.108 -1.1379 -1.8374 -0.3825
  173DOPC  C31721168   5.592   1.692  15.320  0.6990  0.1834  0.1731
  173DOPC  H17X21169   5.655   1.685  15.411 -0.1660  2.8057  1.0811
  173DOPC  H17Y21170   5.583   1.803  15.309  1.1278  0.4276  1.9799
  173DOPC  C31821171   5.454   1.625  15.341  0.0063 -0.2332  0.3571
  173DOPC  H18X21172   5.386   1.649  15.256 -0.1349 -1.9772 -0.0516
  173DOPC  H18Y21173   5.462   1.514  15.342  0.0209 -0.3619 -3.1547
  173DOPC  H18Z21174   5.413   1.653  15.440  1.0213 -0.8865  0.9767
  174DOPC     N21175   2.995   6.588  12.275 -0.7623  0.1215 -0.7716
  174DOPC   C1221176   3.094   6.509  12.353 -0.3066 -0.3930  0.6533
  174DOPC  H12A21177   3.171   6.476  12.284 -2.7532 -2.7623 -1.1538
  174DOPC  H12B21178   3.046   6.419  12.389 -0.0587 -0.3725  1.0404
  174DOPC   C1321179   2.899   6.646  12.379  0.2017 -0.8211  0.3372
  174DOPC  H13A21180   2.808   6.690  12.340  0.3875  0.3779  1.2016
  174DOPC  H13B21181   2.854   6.574  12.446 -0.8404  1.0608  1.7790
  174DOPC  H13C21182   2.945   6.716  12.447 -0.6964  0.7032 -0.5476
  174DOPC   C1421183   2.917   6.503  12.188 -0.2278 -0.0304  0.5806
  174DOPC  H14A21184   2.855   6.566  12.127  0.7545  0.6516  0.2713
  174DOPC  H14B21185   2.972   6.463  12.104 -1.7320 -0.5395 -0.1854
  174DOPC  H14C21186   2.864   6.422  12.236 -1.3914 -0.3140 -1.1041
  174DOPC   C1521187   3.067   6.697  12.195 -0.1159 -0.3276 -0.3354
  174DOPC  H15A21188   3.136   6.746  12.261 -1.4904  1.7326 -0.3244
  174DOPC  H15B21189   2.998   6.772  12.158 -0.3052  0.4541  1.5020
  174DOPC  H15C21190   3.122   6.655  12.112  1.0756  0.3604  0.0914
  174DOPC   C1121191   3.160   6.572  12.479  0.0749 -0.1249 -0.5489
  174DOPC  H11A21192   3.092   6.575  12.568 -1.2040  0.9565 -1.5156
  174DOPC  H11B21193   3.227   6.491  12.513 -0.7200 -0.1821  0.9891
  174DOPC     P21194   3.374   6.727  12.516  0.0457 -0.0580  0.2098
  174DOPC   O1321195   3.393   6.871  12.485 -0.7454  0.2760 -0.0201
  174DOPC   O1421196   3.480   6.637  12.468 -0.7320 -0.1258 -0.4152
  174DOPC   O1221197   3.235   6.688  12.451 -0.4631 -0.4799  0.0589
  174DOPC   O1121198   3.359   6.710  12.669  0.3115 -0.4229 -0.3788
  174DOPC    C121199   3.349   6.590  12.743 -0.2203  0.1770 -0.1541
  174DOPC    HA21200   3.395   6.501  12.695 -3.7292 -1.5824 -0.5476
  174DOPC    HB21201   3.242   6.569  12.767  0.0320  0.3987  1.2492
  174DOPC    C221202   3.422   6.604  12.881 -0.9496 -0.1578  0.1782
  174DOPC    HS21203   3.431   6.502  12.923 -0.9723  0.2724  1.2633
  174DOPC   O2121204   3.345   6.696  12.966 -0.0329  0.0334  0.3386
  174DOPC   C2121205   3.226   6.654  13.013 -0.3065 -0.2586 -0.3133
  174DOPC   O2221206   3.182   6.542  13.005  0.0291  0.8463  0.2128
  174DOPC   C2221207   3.158   6.771  13.083 -0.0664 -0.5700  0.1914
  174DOPC   H2R21208   3.096   6.809  12.999  1.6683 -1.7588 -1.7222
  174DOPC   H2S21209   3.231   6.848  13.115 -0.1907 -0.9605  1.4727
  174DOPC    C321210   3.566   6.663  12.870  0.2787  0.2538  0.2975
  174DOPC    HX21211   3.550   6.749  12.802  0.7621 -1.4276 -2.0860
  174DOPC    HY21212   3.617   6.583  12.812 -1.5683 -0.1114 -0.9103
  174DOPC   O3121213   3.622   6.678  13.005  0.2030 -0.4148  0.4930
  174DOPC   C3121214   3.590   6.795  13.064 -1.2089 -1.0481 -0.5753
  174DOPC   O3221215   3.548   6.892  13.004 -0.1291 -0.0982  0.2055
  174DOPC   C3221216   3.619   6.792  13.213  0.1935  0.3121  0.2960
  174DOPC   H2X21217   3.716   6.742  13.234 -0.0923 -0.8233 -0.9865
  174DOPC   H2Y21218   3.636   6.895  13.253  0.8998  0.5751 -0.6314
  174DOPC   C2321219   3.075   6.746  13.219 -0.0274 -0.0059 -0.7179
  174DOPC   H3R21220   3.137   6.750  13.311 -2.8527  0.8801  1.2681
  174DOPC   H3S21221   3.033   6.643  13.210  3.2701 -1.6797  0.9027
  174DOPC   C2421222   2.958   6.848  13.245 -0.0772  0.0924  0.6072
  174DOPC   H4R21223   2.894   6.853  13.155 -0.6969  0.5394  1.0669
  174DOPC   H4S21224   2.991   6.952  13.261 -4.4056  1.8180 -0.3300
  174DOPC   C2521225   2.872   6.789  13.355 -0.1787 -0.6459 -0.0408
  174DOPC   H5R21226   2.839   6.685  13.331 -2.4907 -0.6421  2.5874
  174DOPC   H5S21227   2.777   6.843  13.376  0.9791  0.6835  1.9944
  174DOPC   C2621228   2.943   6.787  13.493 -0.3955  0.3048  0.6491
  174DOPC   H6R21229   2.976   6.889  13.521  0.4904  0.3763 -0.5953
  174DOPC   H6S21230   3.018   6.706  13.485 -1.2720 -0.5529  0.8999
  174DOPC   C2721231   2.843   6.749  13.607  0.3468 -0.2807  0.5709
  174DOPC   H7R21232   2.807   6.644  13.599  0.9378 -0.6558  2.3324
  174DOPC   H7S21233   2.753   6.813  13.612 -0.0022 -0.8510  2.0164
  174DOPC   C2821234   2.897   6.742  13.749  0.1849  0.6208  0.7472
  174DOPC   H8R21235   2.986   6.675  13.757 -1.0547 -0.9996  1.5732
  174DOPC   H8S21236   2.825   6.675  13.800  0.4851 -1.5417 -1.5199
  174DOPC   C2921237   2.906   6.874  13.827 -0.9197 -0.8365 -0.1176
  174DOPC   H9R21238   2.972   6.949  13.782 -2.0611  0.9113  0.9925
  174DOPC  C21021239   2.830   6.898  13.939 -0.7192  0.5785  0.5631
  174DOPC  H10R21240   2.857   6.989  13.994  0.3202  0.3820  0.4031
  174DOPC  C21121241   2.734   6.806  14.005  0.2380  0.7992 -0.1577
  174DOPC  H11R21242   2.687   6.728  13.940 -0.0249  1.0539 -0.2734
  174DOPC  H11S21243   2.654   6.870  14.047 -1.4409 -0.6380 -0.9943
  174DOPC  C21221244   2.786   6.718  14.124 -0.3703  0.2757  0.2715
  174DOPC  H12R21245   2.889   6.679  14.107 -0.5413 -0.4357  0.8265
  174DOPC  H12S21246   2.720   6.630  14.139 -1.1810  0.9095  0.4437
  174DOPC  C21321247   2.787   6.810  14.238 -0.0518 -0.1673  0.1017
  174DOPC  H13R21248   2.686   6.854  14.258  1.3089  2.3625  1.9935
  174DOPC  H13S21249   2.855   6.896  14.220  1.6215 -1.5794 -0.5488
  174DOPC  C21421250   2.849   6.750  14.364 -0.6507  0.1090 -0.4071
  174DOPC  H14R21251   2.953   6.721  14.338 -0.2908 -0.6161  1.6292
  174DOPC  H14S21252   2.790   6.659  14.385  0.0842  0.0224  1.5081
  174DOPC  C21521253   2.835   6.848  14.479 -0.4833 -0.1096 -0.3955
  174DOPC  H15R21254   2.728   6.881  14.480 -0.9471 -1.4993  1.7400
  174DOPC  H15S21255   2.903   6.935  14.465 -1.1872  0.6265  0.5859
  174DOPC  C21621256   2.872   6.784  14.618 -0.8143 -0.1436  0.7315
  174DOPC  H16R21257   2.981   6.765  14.616 -0.4355  1.8093 -1.2980
  174DOPC  H16S21258   2.829   6.682  14.628 -0.8358  0.0237  2.8592
  174DOPC  C21721259   2.831   6.879  14.727 -0.5158 -0.1465  0.5786
  174DOPC  H17R21260   2.720   6.883  14.720 -0.5040  0.2762  0.5628
  174DOPC  H17S21261   2.877   6.979  14.708 -0.0576 -0.6399 -1.0894
  174DOPC  C21821262   2.867   6.837  14.875  0.4646  0.0992 -0.4624
  174DOPC  H18R21263   2.860   6.927  14.940 -2.6873 -1.1496  1.1287
  174DOPC  H18S21264   2.973   6.802  14.878  1.5257  2.9674 -0.8167
  174DOPC  H18T21265   2.813   6.749  14.914  2.4852 -1.6893 -1.4634
  174DOPC   C3321266   3.507   6.732  13.298 -0.5643  0.0123 -0.6203
  174DOPC   H3X21267   3.408   6.774  13.270 -0.3372  2.3954  1.7340
  174DOPC   H3Y21268   3.529   6.754  13.405 -0.4854 -0.0202 -0.6288
  174DOPC   C3421269   3.500   6.573  13.275 -0.1287 -0.1423 -0.1541
  174DOPC   H4X21270   3.599   6.531  13.304 -1.7424 -3.2521  1.2653
  174DOPC   H4Y21271   3.482   6.571  13.165 -0.8354  3.1413 -0.2104
  174DOPC   C3521272   3.389   6.502  13.354  0.0444  0.8226  0.0103
  174DOPC   H5X21273   3.397   6.393  13.331 -0.9428  1.1948 -2.3741
  174DOPC   H5Y21274   3.292   6.536  13.312  0.0778 -0.2000 -0.9290
  174DOPC   C3621275   3.397   6.549  13.499  0.9093 -0.2067 -0.4942
  174DOPC   H6X21276   3.506   6.565  13.511  1.0019 -1.2049  0.1907
  174DOPC   H6Y21277   3.334   6.639  13.515 -1.0471 -1.8813  2.0418
  174DOPC   C3721278   3.358   6.437  13.600  0.1043 -0.7088  0.3240
  174DOPC   H7X21279   3.252   6.408  13.582 -1.1030  2.5982  1.3017
  174DOPC   H7Y21280   3.419   6.347  13.578  0.9655 -0.1451  0.3592
  174DOPC   C3821281   3.375   6.485  13.747  0.0530  0.3413  0.5828
  174DOPC   H8X21282   3.478   6.518  13.773 -0.3251  0.7106  1.6686
  174DOPC   H8Y21283   3.365   6.390  13.804  0.4435 -0.1849 -0.2048
  174DOPC   C3921284   3.264   6.584  13.789 -0.1073  0.2360 -0.7195
  174DOPC   H9X21285   3.232   6.670  13.727 -0.6408  1.4845  1.1940
  174DOPC  C31021286   3.205   6.585  13.913 -0.2957  0.5519  0.2469
  174DOPC  H10X21287   3.121   6.652  13.936 -1.1564  0.1308 -1.5446
  174DOPC  C31121288   3.232   6.483  14.024 -0.0719  0.6839 -0.8864
  174DOPC  H11X21289   3.309   6.408  13.996  0.9191 -0.0302  3.2382
  174DOPC  H11Y21290   3.143   6.423  14.051  0.0714  0.8462 -0.0493
  174DOPC  C31221291   3.283   6.555  14.149 -0.0063  0.5160 -0.3164
  174DOPC  H12X21292   3.365   6.621  14.116  1.3786 -0.0654  1.7462
  174DOPC  H12Y21293   3.318   6.468  14.209 -0.1432  1.5029  1.2632
  174DOPC  C31321294   3.174   6.626  14.230 -0.4947 -0.4003  0.2851
  174DOPC  H13X21295   3.154   6.723  14.182  1.7729  0.0534  0.1932
  174DOPC  H13Y21296   3.088   6.557  14.245  0.5952 -1.9219 -0.2337
  174DOPC  C31421297   3.219   6.675  14.375 -0.2377  0.7826 -0.1100
  174DOPC  H14X21298   3.328   6.696  14.366 -0.0913  0.1721  0.1909
  174DOPC  H14Y21299   3.159   6.767  14.391  0.5990  1.2670  0.3107
  174DOPC  C31521300   3.183   6.584  14.493 -0.7132  0.2067  0.3432
  174DOPC  H15X21301   3.204   6.478  14.469 -0.5119  0.1771  0.6454
  174DOPC  H15Y21302   3.076   6.599  14.517 -0.5627 -0.4814  1.5246
  174DOPC  C31621303   3.272   6.622  14.616  0.1805  0.4774 -0.1558
  174DOPC  H16X21304   3.329   6.716  14.602  1.7486 -0.6015 -1.3887
  174DOPC  H16Y21305   3.201   6.640  14.701 -0.4628 -0.1303 -0.5498
  174DOPC  C31721306   3.361   6.504  14.644 -0.3997  0.1451 -0.9827
  174DOPC  H17X21307   3.292   6.417  14.638 -0.8135  0.4633 -0.9057
  174DOPC  H17Y21308   3.417   6.482  14.551 -0.1565  0.5403 -0.9323
  174DOPC  C31821309   3.452   6.515  14.764 -0.1426  0.1743 -0.2615
  174DOPC  H18X21310   3.533   6.439  14.762  0.3963  0.7441 -1.6777
  174DOPC  H18Y21311   3.490   6.619  14.760  1.9170 -0.5496 -3.5366
  174DOPC  H18Z21312   3.389   6.498  14.853 -0.2954  0.9501 -0.2123
  175DOPC     N21313   1.939   2.398  12.982  0.9993 -0.0053 -0.1579
  175DOPC   C1221314   1.900   2.369  13.124 -0.4396  0.2395 -0.3233
  175DOPC  H12A21315   1.794   2.381  13.141 -0.4838 -0.9929  0.3589
  175DOPC  H12B21316   1.947   2.437  13.195 -1.1746  0.1020  0.3027
  175DOPC   C1321317   1.880   2.534  12.940 -0.1253  0.2734  0.2732
  175DOPC  H13A21318   1.923   2.612  13.000  2.5998 -0.4209 -0.6450
  175DOPC  H13B21319   1.900   2.555  12.836 -2.5646 -1.6208 -0.6796
  175DOPC  H13C21320   1.773   2.538  12.956 -0.2356  3.6996 -0.7278
  175DOPC   C1421321   1.880   2.295  12.897  0.5362 -0.2309  0.1264
  175DOPC  H14A21322   1.854   2.339  12.801  1.5722 -0.3271 -0.2043
  175DOPC  H14B21323   1.935   2.203  12.896 -1.8626 -1.8039  1.6299
  175DOPC  H14C21324   1.785   2.264  12.938 -0.0728  1.1170 -0.1880
  175DOPC   C1521325   2.084   2.396  12.961  0.1491 -0.6578 -0.2691
  175DOPC  H15A21326   2.138   2.319  13.014  0.2298  0.3595  1.1536
  175DOPC  H15B21327   2.132   2.487  12.992  0.3068 -0.6336 -0.5743
  175DOPC  H15C21328   2.096   2.381  12.854  0.0177 -3.8735  0.0465
  175DOPC   C1121329   1.915   2.220  13.173  0.9591  0.0784  0.0303
  175DOPC  H11A21330   2.013   2.182  13.138  1.0723  1.7753 -1.6769
  175DOPC  H11B21331   1.927   2.221  13.283 -0.5015 -0.3312  0.2209
  175DOPC     P21332   1.668   2.160  13.206 -0.2161  0.1348 -0.1032
  175DOPC   O1321333   1.571   2.068  13.140  0.0578  0.4034 -0.3093
  175DOPC   O1421334   1.616   2.301  13.209  0.2161  0.2251 -0.1557
  175DOPC   O1221335   1.806   2.145  13.125  0.2303  0.0354  0.4148
  175DOPC   O1121336   1.704   2.107  13.348  0.2577 -0.1579 -0.2476
  175DOPC    C121337   1.616   2.077  13.457 -0.2911  0.0375 -0.2233
  175DOPC    HA21338   1.681   2.008  13.514  0.7769 -0.8579 -2.4143
  175DOPC    HB21339   1.524   2.025  13.422 -0.2754  1.0776 -1.9510
  175DOPC    C221340   1.582   2.198  13.541  0.8566  0.1056  0.5115
  175DOPC    HS21341   1.531   2.273  13.477  0.7836 -1.2692 -1.1282
  175DOPC   O2121342   1.701   2.258  13.587  0.1308  0.4310  0.2985
  175DOPC   C2121343   1.692   2.360  13.669  0.4927 -0.1090  0.2512
  175DOPC   O2221344   1.587   2.423  13.688  1.0891  0.2699  0.5304
  175DOPC   C2221345   1.819   2.382  13.747 -0.1129  0.5115  0.6084
  175DOPC   H2R21346   1.850   2.488  13.736 -1.9774  0.8112 -3.2808
  175DOPC   H2S21347   1.904   2.321  13.709  1.1166  2.0765  0.7662
  175DOPC    C321348   1.483   2.150  13.654 -0.1331 -0.2959  0.4785
  175DOPC    HX21349   1.392   2.108  13.606  0.6989  0.0315 -1.4906
  175DOPC    HY21350   1.456   2.242  13.711  0.1584 -0.7851  1.4399
  175DOPC   O3121351   1.545   2.045  13.733  0.2102  0.4258 -0.0659
  175DOPC   C3121352   1.524   2.034  13.861 -0.4875 -0.3861 -0.3535
  175DOPC   O3221353   1.469   2.118  13.931  0.0081  0.3492  0.0650
  175DOPC   C3221354   1.562   1.896  13.904  0.1090 -0.3084 -0.5495
  175DOPC   H2X21355   1.526   1.820  13.830 -0.4786 -0.7193  0.1403
  175DOPC   H2Y21356   1.672   1.888  13.902  0.0084 -2.0134 -0.8178
  175DOPC   C2321357   1.806   2.350  13.899 -0.0709 -0.2964  0.0273
  175DOPC   H3R21358   1.757   2.252  13.917 -0.0321 -0.2740  0.2701
  175DOPC   H3S21359   1.753   2.435  13.948 -1.0821 -0.6491 -0.4407
  175DOPC   C2421360   1.939   2.350  13.981 -0.2550 -0.6507  0.4545
  175DOPC   H4R21361   1.976   2.454  13.986 -0.5011 -0.6335  3.7349
  175DOPC   H4S21362   2.014   2.277  13.944  0.5387 -0.7267  2.1484
  175DOPC   C2521363   1.907   2.316  14.129  0.2359  0.4198  0.0355
  175DOPC   H5R21364   1.856   2.218  14.143  1.1135  0.0269  0.5873
  175DOPC   H5S21365   1.830   2.384  14.172  1.0488  1.1312  0.3869
  175DOPC   C2621366   2.026   2.310  14.223 -0.0937 -0.5438 -0.2567
  175DOPC   H6R21367   2.062   2.415  14.223 -2.2182  0.2830  1.8754
  175DOPC   H6S21368   2.095   2.235  14.179 -1.7516 -2.9503  0.9970
  175DOPC   C2721369   1.982   2.281  14.370 -0.6722 -0.5619  0.0994
  175DOPC   H7R21370   1.903   2.202  14.367 -1.4490  0.2103 -1.0033
  175DOPC   H7S21371   1.938   2.374  14.412 -0.5722 -0.9279  1.0448
  175DOPC   C2821372   2.095   2.228  14.462 -0.2667  0.1996 -0.5550
  175DOPC   H8R21373   2.178   2.301  14.447 -0.8975  0.6273 -2.2115
  175DOPC   H8S21374   2.133   2.133  14.419 -1.0867 -0.7369  0.7283
  175DOPC   C2921375   2.056   2.219  14.609  0.5254 -0.0610  0.0664
  175DOPC   H9R21376   2.006   2.126  14.641  1.7781 -0.3085  1.3862
  175DOPC  C21021377   2.091   2.297  14.714 -0.2142  0.1011 -0.9993
  175DOPC  H10R21378   2.066   2.272  14.818  2.7200 -0.3728 -0.2939
  175DOPC  C21121379   2.153   2.432  14.711 -0.4361  0.1257  0.4701
  175DOPC  H11R21380   2.150   2.477  14.813 -0.3418 -1.3636  1.1588
  175DOPC  H11S21381   2.120   2.496  14.626  2.6726  0.9076 -0.3029
  175DOPC  C21221382   2.307   2.413  14.700 -0.8029 -1.2040  0.2627
  175DOPC  H12R21383   2.366   2.507  14.695 -1.2471 -0.8598  1.2822
  175DOPC  H12S21384   2.328   2.358  14.606  0.8291  1.2033 -0.8678
  175DOPC  C21321385   2.369   2.317  14.802  0.1576 -0.3052 -1.1694
  175DOPC  H13R21386   2.325   2.215  14.804 -3.2559  0.9907 -2.4426
  175DOPC  H13S21387   2.366   2.363  14.903 -0.6691 -1.2830 -0.7222
  175DOPC  C21421388   2.520   2.289  14.795 -0.6775  0.2055  0.1736
  175DOPC  H14R21389   2.574   2.383  14.770 -0.2319 -0.3982 -1.2786
  175DOPC  H14S21390   2.527   2.229  14.702 -3.2345 -1.2654  0.8209
  175DOPC  C21521391   2.571   2.206  14.914  0.1316  0.1491 -0.4258
  175DOPC  H15R21392   2.532   2.102  14.921  1.6738 -0.4575 -0.3644
  175DOPC  H15S21393   2.547   2.259  15.009  1.8856 -0.2122  0.2600
  175DOPC  C21621394   2.726   2.192  14.911  0.2175 -0.2585  0.4040
  175DOPC  H16R21395   2.772   2.285  14.950 -1.0024 -0.0840  1.5088
  175DOPC  H16S21396   2.754   2.169  14.806  0.3908  0.1225  0.3659
  175DOPC  C21721397   2.791   2.086  15.007  0.1453 -0.1407  0.2919
  175DOPC  H17R21398   2.888   2.056  14.964 -1.0710  0.4654 -3.1549
  175DOPC  H17S21399   2.729   1.995  14.999 -0.1856  0.2603 -2.4915
  175DOPC  C21821400   2.791   2.135  15.147  0.4356 -0.2633  0.4722
  175DOPC  H18R21401   2.693   2.106  15.189 -0.2353 -0.7420 -1.3303
  175DOPC  H18S21402   2.800   2.244  15.166  1.4217  0.2006 -2.1180
  175DOPC  H18T21403   2.867   2.082  15.209 -0.5439 -1.4093  0.7313
  175DOPC   C3321404   1.506   1.859  14.042 -0.5628 -0.0889 -0.1421
  175DOPC   H3X21405   1.398   1.883  14.039 -0.1321  1.9119 -1.2068
  175DOPC   H3Y21406   1.562   1.919  14.117  2.5107  0.6609 -2.8178
  175DOPC   C3421407   1.522   1.711  14.072 -0.0954 -0.1289 -0.9008
  175DOPC   H4X21408   1.631   1.705  14.092 -0.1996  1.4924  0.3669
  175DOPC   H4Y21409   1.495   1.640  13.991 -0.0713 -2.8055  1.2829
  175DOPC   C3521410   1.458   1.660  14.204  0.1791 -0.0907 -0.5157
  175DOPC   H5X21411   1.359   1.710  14.211  0.1826 -0.1674  0.0778
  175DOPC   H5Y21412   1.519   1.700  14.288  1.0115 -0.0527 -1.1219
  175DOPC   C3621413   1.455   1.505  14.210 -0.0782 -1.1060  0.3788
  175DOPC   H6X21414   1.419   1.458  14.116  0.2071  1.3083 -1.0321
  175DOPC   H6Y21415   1.555   1.467  14.242  1.1531  1.3161 -0.2802
  175DOPC   C3721416   1.368   1.451  14.316 -0.0954 -0.8799 -0.3981
  175DOPC   H7X21417   1.286   1.521  14.345  0.7133  0.3029 -0.9064
  175DOPC   H7Y21418   1.313   1.362  14.277 -1.8306  0.1878 -0.4742
  175DOPC   C3821419   1.443   1.433  14.448 -0.2241  0.1175  0.3310
  175DOPC   H8X21420   1.479   1.529  14.491 -2.2080  1.0723  0.0169
  175DOPC   H8Y21421   1.532   1.368  14.438  0.3602  0.8729  0.5607
  175DOPC   C3921422   1.359   1.364  14.553 -0.3398 -0.5632  0.0170
  175DOPC   H9X21423   1.265   1.318  14.518 -0.8976 -0.4717  1.3436
  175DOPC  C31021424   1.391   1.368  14.687 -0.2600  0.1643 -0.3179
  175DOPC  H10X21425   1.326   1.323  14.763 -0.5103  2.3076  0.8073
  175DOPC  C31121426   1.509   1.436  14.752 -0.4695 -0.7190  0.6982
  175DOPC  H11X21427   1.480   1.528  14.806  0.0827 -0.2056  0.1367
  175DOPC  H11Y21428   1.581   1.487  14.685  1.0280 -1.7295  1.4783
  175DOPC  C31221429   1.600   1.336  14.830  0.1468  0.2870 -0.1120
  175DOPC  H12X21430   1.689   1.395  14.859 -1.1859  3.1818 -1.5143
  175DOPC  H12Y21431   1.630   1.257  14.757 -0.3906 -1.7194  1.7348
  175DOPC  C31321432   1.531   1.266  14.956 -0.1659  0.3309  0.2144
  175DOPC  H13X21433   1.446   1.203  14.923  1.6375 -1.3713 -1.4144
  175DOPC  H13Y21434   1.601   1.193  15.002  1.0518  0.3185 -1.5845
  175DOPC  C31421435   1.499   1.355  15.079 -0.2903  0.1903  0.0076
  175DOPC  H14X21436   1.567   1.442  15.083 -1.4784  1.3128 -2.4011
  175DOPC  H14Y21437   1.402   1.405  15.058  0.5842  1.7537 -0.4566
  175DOPC  C31521438   1.474   1.271  15.208 -0.9245  0.5954  0.0717
  175DOPC  H15X21439   1.567   1.215  15.229 -2.2468 -1.6676  0.2117
  175DOPC  H15Y21440   1.394   1.195  15.196  0.3782 -1.1342  1.7527
  175DOPC  C31621441   1.453   1.354  15.332 -0.0499 -0.1078  0.1734
  175DOPC  H16X21442   1.381   1.435  15.308 -0.6914 -1.1676 -1.6700
  175DOPC  H16Y21443   1.429   1.285  15.417 -0.0949 -1.3366 -0.8095
  175DOPC  C31721444   1.571   1.437  15.386 -0.1624 -0.3356 -0.5064
  175DOPC  H17X21445   1.646   1.357  15.405  1.0283  1.0489  0.9543
  175DOPC  H17Y21446   1.625   1.510  15.321  0.8331  0.6448  1.3365
  175DOPC  C31821447   1.546   1.509  15.519  0.8127  0.3586  0.0666
  175DOPC  H18X21448   1.507   1.434  15.590  1.7159 -0.6270 -0.4454
  175DOPC  H18Y21449   1.639   1.555  15.557  0.2276 -0.0012  2.0498
  175DOPC  H18Z21450   1.472   1.590  15.502 -0.7282 -0.9176  0.3971
  176DOPC     N21451   3.395   5.084  12.314  0.0911 -0.0681  0.1565
  176DOPC   C1221452   3.358   5.226  12.365  0.3983  0.3657 -0.0022
  176DOPC  H12A21453   3.255   5.247  12.341 -0.0571  0.4230  1.8484
  176DOPC  H12B21454   3.423   5.301  12.323  2.6731 -1.3334  0.2499
  176DOPC   C1321455   3.388   5.093  12.165  0.2007  0.0323  0.7047
  176DOPC  H13A21456   3.464   5.154  12.120  0.0393 -0.6016 -0.4624
  176DOPC  H13B21457   3.398   4.992  12.127 -0.5720  0.1025  0.2953
  176DOPC  H13C21458   3.288   5.121  12.136 -0.7309 -2.0777  1.5984
  176DOPC   C1421459   3.294   4.988  12.368 -0.3224 -0.2320  0.1870
  176DOPC  H14A21460   3.194   5.011  12.334 -0.4163 -1.2874 -0.2941
  176DOPC  H14B21461   3.321   4.890  12.332  2.1157 -0.0266  1.2398
  176DOPC  H14C21462   3.283   4.987  12.476 -0.2629  0.9802  0.2207
  176DOPC   C1521463   3.534   5.055  12.358  0.5428  0.7166  0.6303
  176DOPC  H15A21464   3.540   5.030  12.463 -2.4668 -2.7519  0.1771
  176DOPC  H15B21465   3.600   5.132  12.320  2.2647 -0.0104  1.9892
  176DOPC  H15C21466   3.573   4.966  12.311 -1.1425  0.3564 -0.1431
  176DOPC   C1121467   3.369   5.242  12.525 -0.0735  0.4340  0.8609
  176DOPC  H11A21468   3.471   5.217  12.560  0.2624  1.3410  0.5541
  176DOPC  H11B21469   3.365   5.351  12.548 -0.4711  0.7305 -0.4952
  176DOPC     P21470   3.122   5.240  12.616  0.2243  0.3401  0.0923
  176DOPC   O1321471   3.006   5.153  12.602 -0.4375  0.6225 -0.5278
  176DOPC   O1421472   3.121   5.362  12.533  0.0417  0.4229 -0.1644
  176DOPC   O1221473   3.263   5.170  12.594 -0.5867 -0.4058 -0.3793
  176DOPC   O1121474   3.132   5.293  12.765 -0.2461 -0.2050  0.0820
  176DOPC    C121475   3.240   5.383  12.797 -0.2245 -0.1391  0.1871
  176DOPC    HA21476   3.195   5.445  12.877 -0.2691  0.9691 -0.6827
  176DOPC    HB21477   3.260   5.450  12.711 -1.8135 -0.6707 -0.6314
  176DOPC    C221478   3.364   5.318  12.858  0.0384  0.5284  0.3808
  176DOPC    HS21479   3.408   5.248  12.784 -1.4717 -1.8649  1.6329
  176DOPC   O2121480   3.320   5.247  12.974 -0.4897  0.6460  0.4423
  176DOPC   C2121481   3.408   5.157  13.025  0.4803 -0.2170  0.4638
  176DOPC   O2221482   3.505   5.120  12.958 -0.0416  0.2577 -0.0709
  176DOPC   C2221483   3.356   5.099  13.154  0.4338  0.2021  0.2994
  176DOPC   H2R21484   3.368   4.989  13.146 -0.9617  0.1648 -2.8591
  176DOPC   H2S21485   3.248   5.119  13.164  0.4051 -0.6084  1.9842
  176DOPC    C321486   3.462   5.437  12.896 -0.7267  0.1732 -0.3992
  176DOPC    HX21487   3.413   5.505  12.968  1.7117  0.7503  0.8530
  176DOPC    HY21488   3.470   5.493  12.800 -1.6695 -0.1890 -0.6945
  176DOPC   O3121489   3.592   5.396  12.952 -0.5266  0.5456 -0.1759
  176DOPC   C3121490   3.683   5.353  12.859 -0.0026  0.2821 -0.1549
  176DOPC   O3221491   3.668   5.373  12.738  0.3853 -0.1357 -0.0660
  176DOPC   C3221492   3.796   5.273  12.917 -0.1039 -0.2687 -0.4099
  176DOPC   H2X21493   3.757   5.170  12.932  1.0200 -0.4669  1.5266
  176DOPC   H2Y21494   3.875   5.276  12.839  0.9943 -0.0177  0.6745
  176DOPC   C2321495   3.427   5.156  13.284  0.0049  0.3596  1.0500
  176DOPC   H3R21496   3.424   5.267  13.293 -0.2865  0.3244  1.4140
  176DOPC   H3S21497   3.535   5.137  13.269  0.1625  0.6819  1.7525
  176DOPC   C2421498   3.380   5.088  13.414  0.0635 -0.6256  1.0876
  176DOPC   H4R21499   3.402   4.979  13.402  1.7819 -0.4529  2.3276
  176DOPC   H4S21500   3.271   5.106  13.425  0.2301  2.1046 -0.8043
  176DOPC   C2521501   3.464   5.124  13.531  0.0407  0.7385 -0.1076
  176DOPC   H5R21502   3.454   5.231  13.556 -0.1107  0.6250  0.3137
  176DOPC   H5S21503   3.569   5.098  13.501 -1.1745 -0.6501 -3.8314
  176DOPC   C2621504   3.413   5.046  13.651  0.4207  0.2845 -0.1128
  176DOPC   H6R21505   3.411   4.936  13.632 -0.3146  0.1145  0.8330
  176DOPC   H6S21506   3.312   5.089  13.669  1.1659  2.3883 -0.7226
  176DOPC   C2721507   3.506   5.082  13.768 -0.6675  0.0689  0.1485
  176DOPC   H7R21508   3.505   5.192  13.789 -1.6310  0.8149 -3.1696
  176DOPC   H7S21509   3.603   5.039  13.738 -1.2032 -0.4812 -0.8407
  176DOPC   C2821510   3.462   5.013  13.910 -0.8480  0.2910  0.2474
  176DOPC   H8R21511   3.547   5.033  13.979  0.0502 -0.9754 -0.4521
  176DOPC   H8S21512   3.456   4.906  13.882 -0.2571  0.7048 -1.6199
  176DOPC   C2921513   3.334   5.072  13.966  0.1480  0.0005 -0.9990
  176DOPC   H9R21514   3.254   5.079  13.890 -0.1122 -1.3209 -0.8718
  176DOPC  C21021515   3.304   5.121  14.089  0.3899  0.3441  0.3294
  176DOPC  H10R21516   3.203   5.160  14.105  0.7018  1.2917  0.0726
  176DOPC  C21121517   3.405   5.135  14.198 -0.5496  0.2607 -0.0517
  176DOPC  H11R21518   3.406   5.240  14.237 -2.1484  0.2321  0.1205
  176DOPC  H11S21519   3.505   5.108  14.157 -0.9937  0.4786 -1.2960
  176DOPC  C21221520   3.378   5.049  14.318  0.0453  0.1798 -0.1037
  176DOPC  H12R21521   3.402   4.945  14.288  0.3699  0.4916 -0.9500
  176DOPC  H12S21522   3.275   5.054  14.359 -0.4239 -0.3742 -1.1867
  176DOPC  C21321523   3.466   5.077  14.445  0.0906  0.0704  0.2901
  176DOPC  H13R21524   3.422   5.167  14.494 -2.3724 -0.8570 -0.0504
  176DOPC  H13S21525   3.573   5.093  14.419  0.3675 -0.9035  0.7801
  176DOPC  C21421526   3.454   4.955  14.545 -0.4181 -0.8321 -0.2816
  176DOPC  H14R21527   3.482   4.875  14.473 -0.9824  0.4447 -2.0041
  176DOPC  H14S21528   3.350   4.928  14.575  0.1682 -0.7537  1.9334
  176DOPC  C21521529   3.552   4.981  14.657 -0.6129 -0.2537  0.5621
  176DOPC  H15R21530   3.651   5.012  14.617 -1.1361 -1.0406 -1.4462
  176DOPC  H15S21531   3.553   4.886  14.714  1.3781 -0.4952  0.2107
  176DOPC  C21621532   3.515   5.102  14.750  0.4661  0.2124 -0.0541
  176DOPC  H16R21533   3.408   5.096  14.780  0.6459  1.4499  0.9231
  176DOPC  H16S21534   3.516   5.190  14.682  0.6282  0.8159  0.7199
  176DOPC  C21721535   3.603   5.120  14.869  0.0121  0.0894 -0.7574
  176DOPC  H17R21536   3.569   5.214  14.917  1.9714 -0.0961  1.1623
  176DOPC  H17S21537   3.706   5.140  14.830  0.7165  1.0941  1.4725
  176DOPC  C21821538   3.606   4.996  14.965 -0.0012 -0.1714 -0.5165
  176DOPC  H18R21539   3.657   5.019  15.061  0.1756  1.0455 -0.8815
  176DOPC  H18S21540   3.653   4.915  14.905  1.8975 -0.4555  1.2485
  176DOPC  H18T21541   3.506   4.958  14.996 -0.0087  0.2487 -0.0218
  176DOPC   C3321542   3.859   5.331  13.045  0.2488 -0.6113 -0.1879
  176DOPC   H3X21543   3.872   5.442  13.042 -0.3436 -0.5351 -0.1507
  176DOPC   H3Y21544   3.966   5.302  13.052  0.9274  1.6646 -0.0381
  176DOPC   C3421545   3.799   5.287  13.175 -0.6226 -0.0208 -0.4959
  176DOPC   H4X21546   3.825   5.180  13.190  3.1279  0.4529 -2.3767
  176DOPC   H4Y21547   3.688   5.289  13.167 -0.8596 -3.8948 -0.2919
  176DOPC   C3521548   3.849   5.377  13.295 -0.0211 -0.5001 -0.3064
  176DOPC   H5X21549   3.833   5.481  13.259 -0.3413 -0.5967 -0.4465
  176DOPC   H5Y21550   3.955   5.362  13.323 -0.5681 -1.6357  1.3299
  176DOPC   C3621551   3.757   5.346  13.417  0.6119  0.2274  0.2373
  176DOPC   H6X21552   3.652   5.376  13.396  0.8447  0.9831  0.1381
  176DOPC   H6Y21553   3.779   5.238  13.432 -0.7652 -0.3973 -1.7734
  176DOPC   C3721554   3.797   5.430  13.536  0.4867 -0.2774 -0.4893
  176DOPC   H7X21555   3.893   5.394  13.578  0.6173  1.7584  1.1115
  176DOPC   H7Y21556   3.808   5.534  13.499  0.6745 -0.6100 -1.3917
  176DOPC   C3821557   3.692   5.433  13.649 -0.0375 -0.0909  0.2459
  176DOPC   H8X21558   3.665   5.329  13.677  2.5463 -1.0083 -0.4285
  176DOPC   H8Y21559   3.600   5.481  13.609  0.2748 -0.1709 -0.6025
  176DOPC   C3921560   3.738   5.505  13.775 -0.1314  0.1460  0.3558
  176DOPC   H9X21561   3.720   5.613  13.768  2.4135  0.5952 -0.2056
  176DOPC  C31021562   3.780   5.459  13.887 -0.4873  0.4437 -0.6699
  176DOPC  H10X21563   3.821   5.540  13.950  2.1891  0.2354 -2.0196
  176DOPC  C31121564   3.790   5.312  13.924  0.2933 -0.3334  0.2603
  176DOPC  H11X21565   3.901   5.307  13.927  0.4888  2.6387  1.9579
  176DOPC  H11Y21566   3.745   5.245  13.848  0.7865 -1.2973  0.8042
  176DOPC  C31221567   3.717   5.282  14.058  0.4269 -0.1967 -0.7752
  176DOPC  H12X21568   3.709   5.171  14.056 -2.6144 -0.0445 -0.8793
  176DOPC  H12Y21569   3.618   5.332  14.065  1.1857  1.3037 -0.3463
  176DOPC  C31321570   3.807   5.322  14.184  0.1670 -0.2014  0.4237
  176DOPC  H13X21571   3.899   5.265  14.159 -0.1408 -0.7960  0.6215
  176DOPC  H13Y21572   3.845   5.426  14.168  1.4405 -0.4214  1.7353
  176DOPC  C31421573   3.757   5.300  14.327 -0.2510 -0.2737 -0.8460
  176DOPC  H14X21574   3.671   5.370  14.335  0.5324  0.5369  0.9807
  176DOPC  H14Y21575   3.712   5.198  14.328 -1.7156  0.3489 -0.8922
  176DOPC  C31521576   3.858   5.344  14.428  0.2541  0.3079 -0.3653
  176DOPC  H15X21577   3.903   5.436  14.384 -0.7881  0.3594 -1.3752
  176DOPC  H15Y21578   3.948   5.279  14.424  0.6677  0.8726 -0.4265
  176DOPC  C31621579   3.790   5.379  14.570  0.0690  0.1350  0.2265
  176DOPC  H16X21580   3.722   5.466  14.565 -2.4131 -1.7016 -0.0384
  176DOPC  H16Y21581   3.720   5.302  14.610  0.7841 -0.9696 -0.6068
  176DOPC  C31721582   3.892   5.403  14.684 -0.1897 -0.1168 -0.7447
  176DOPC  H17X21583   3.946   5.307  14.693  1.8522  0.9671 -0.8763
  176DOPC  H17Y21584   3.975   5.471  14.654  0.6120  0.2760  2.0390
  176DOPC  C31821585   3.837   5.452  14.819 -0.4207 -0.1370 -0.2217
  176DOPC  H18X21586   3.824   5.562  14.812  0.5028  0.0746  1.0211
  176DOPC  H18Y21587   3.745   5.394  14.838  0.9325 -2.1216  0.6875
  176DOPC  H18Z21588   3.907   5.426  14.902 -2.4826 -1.3446  1.2071
  177DOPC     N21589   3.666   4.165  12.413 -0.5181 -0.3909 -0.0367
  177DOPC   C1221590   3.730   4.055  12.321  0.7819 -0.0396 -0.2789
  177DOPC  H12A21591   3.828   4.089  12.291  0.7558  0.0024 -0.3158
  177DOPC  H12B21592   3.670   4.058  12.231 -0.0497  1.5282  0.3044
  177DOPC   C1321593   3.660   4.289  12.324  0.5219 -0.1840 -0.1030
  177DOPC  H13A21594   3.624   4.375  12.378 -0.3603 -2.0918  2.5227
  177DOPC  H13B21595   3.763   4.309  12.299  0.1880 -0.6633 -2.0103
  177DOPC  H13C21596   3.601   4.267  12.236 -0.0127 -1.2183  0.4864
  177DOPC   C1421597   3.755   4.197  12.526 -0.1564  0.8656  0.5339
  177DOPC  H14A21598   3.774   4.117  12.596  1.6884 -0.2494 -1.1356
  177DOPC  H14B21599   3.849   4.239  12.494  0.6436  0.6585  2.4651
  177DOPC  H14C21600   3.711   4.275  12.588  0.0920 -0.4106  2.3896
  177DOPC   C1521601   3.533   4.128  12.460 -0.1393 -0.1719  0.2542
  177DOPC  H15A21602   3.484   4.205  12.517  1.5563  0.0286  1.5385
  177DOPC  H15B21603   3.532   4.039  12.521 -1.5754 -1.0108 -0.9392
  177DOPC  H15C21604   3.465   4.101  12.381  0.8276 -0.0805 -0.6368
  177DOPC   C1121605   3.741   3.921  12.379  0.2641 -0.1516 -0.0832
  177DOPC  H11A21606   3.659   3.882  12.443 -0.1948 -0.4848 -0.8575
  177DOPC  H11B21607   3.744   3.842  12.301 -1.2019 -1.1638  0.8289
  177DOPC     P21608   3.985   3.849  12.452 -0.2371  0.1005  0.5131
  177DOPC   O1321609   4.090   3.929  12.520  0.5120 -0.1575  0.6406
  177DOPC   O1421610   4.002   3.826  12.304  0.1497 -0.2533 -0.3939
  177DOPC   O1221611   3.849   3.925  12.465 -0.2484  0.1769 -0.3028
  177DOPC   O1121612   3.977   3.700  12.516 -0.0391 -0.1014 -0.0012
  177DOPC    C121613   3.996   3.680  12.657 -0.2614  0.1141 -0.1897
  177DOPC    HA21614   4.052   3.755  12.718  0.1689 -2.2333  2.5003
  177DOPC    HB21615   4.046   3.581  12.660  0.7255  0.6019  2.2505
  177DOPC    C221616   3.859   3.680  12.729  0.4465 -0.6447 -0.2428
  177DOPC    HS21617   3.817   3.783  12.721 -1.0616 -1.2284 -0.1980
  177DOPC   O2121618   3.874   3.627  12.860 -0.7754  0.1260  0.2025
  177DOPC   C2121619   3.924   3.715  12.945  0.5224  0.3711 -0.4550
  177DOPC   O2221620   3.951   3.829  12.921 -0.2799 -0.5174  0.1099
  177DOPC   C2221621   3.938   3.649  13.078  0.9802  0.0441 -0.5003
  177DOPC   H2R21622   4.042   3.608  13.076  1.2318  0.7196 -1.4791
  177DOPC   H2S21623   3.869   3.562  13.080 -1.5389  1.9273 -0.6777
  177DOPC    C321624   3.756   3.587  12.651 -0.7557 -0.0583  0.1396
  177DOPC    HX21625   3.816   3.504  12.607 -0.2631  0.0428  0.6171
  177DOPC    HY21626   3.717   3.644  12.564 -0.0873 -1.6677 -1.2699
  177DOPC   O3121627   3.646   3.534  12.722 -0.1279 -0.0025  0.3749
  177DOPC   C3121628   3.659   3.426  12.794 -0.9599 -0.5122 -0.1733
  177DOPC   O3221629   3.762   3.364  12.801  0.4214  0.8893  0.6265
  177DOPC   C3221630   3.523   3.406  12.872  0.0250  0.0956  0.5390
  177DOPC   H2X21631   3.507   3.505  12.918  0.0107  0.1076  0.5084
  177DOPC   H2Y21632   3.447   3.384  12.794  0.2757 -2.3969  0.9050
  177DOPC   C2321633   3.907   3.741  13.196  0.3270 -0.0384 -0.4411
  177DOPC   H3R21634   3.824   3.814  13.185 -0.3778 -0.7838 -0.1759
  177DOPC   H3S21635   4.001   3.800  13.210 -0.3993  1.4498 -1.5509
  177DOPC   C2421636   3.900   3.671  13.340  0.4196 -0.1626  0.4490
  177DOPC   H4R21637   3.984   3.599  13.353  1.5505  1.3868  2.3186
  177DOPC   H4S21638   3.811   3.605  13.343  0.2738 -0.1378 -1.8175
  177DOPC   C2521639   3.881   3.774  13.454  0.9403  0.5308  0.1529
  177DOPC   H5R21640   3.784   3.829  13.457  0.8123  0.2849  1.5000
  177DOPC   H5S21641   3.967   3.841  13.438 -0.2197  1.7067 -1.3777
  177DOPC   C2621642   3.905   3.713  13.596  0.2282 -0.0379  0.4801
  177DOPC   H6R21643   3.996   3.649  13.601 -1.0107 -1.7632  2.4596
  177DOPC   H6S21644   3.820   3.645  13.620  0.3037  0.1920  1.4143
  177DOPC   C2721645   3.912   3.811  13.715 -0.1980 -0.0896  0.2208
  177DOPC   H7R21646   3.832   3.888  13.701 -2.7186 -2.5783 -0.0404
  177DOPC   H7S21647   4.003   3.874  13.718 -1.0855  1.4272 -1.9806
  177DOPC   C2821648   3.888   3.754  13.857 -0.0297  0.2850  0.3244
  177DOPC   H8R21649   3.959   3.669  13.865 -1.9482 -1.5376 -0.9813
  177DOPC   H8S21650   3.786   3.710  13.854  0.5227 -1.0393 -2.8400
  177DOPC   C2921651   3.908   3.842  13.981  0.4121  0.5503 -0.6000
  177DOPC   H9R21652   3.826   3.915  13.985 -1.2461 -1.1998 -1.1302
  177DOPC  C21021653   3.985   3.841  14.091  0.7844  0.3712  0.5952
  177DOPC  H10R21654   3.962   3.912  14.171 -2.2907 -0.9077  0.9686
  177DOPC  C21121655   4.099   3.750  14.136  0.3688  0.6099  0.3307
  177DOPC  H11R21656   4.193   3.809  14.130  1.6742 -1.5066 -3.0542
  177DOPC  H11S21657   4.115   3.666  14.064 -0.8273  2.4479 -2.2529
  177DOPC  C21221658   4.082   3.688  14.279  0.6635 -0.6461 -0.0065
  177DOPC  H12R21659   4.169   3.620  14.294 -0.1074 -1.7202 -0.3022
  177DOPC  H12S21660   3.991   3.629  14.302 -1.5514  1.7754 -1.9116
  177DOPC  C21321661   4.102   3.790  14.392 -0.3759 -0.1832  0.2600
  177DOPC  H13R21662   4.018   3.862  14.401  0.4477  0.9352 -0.6735
  177DOPC  H13S21663   4.187   3.846  14.349  0.7118 -0.6854  1.7128
  177DOPC  C21421664   4.149   3.733  14.526 -0.8450  0.9721  0.3189
  177DOPC  H14R21665   4.237   3.670  14.502 -2.9114 -2.8395  1.9355
  177DOPC  H14S21666   4.084   3.657  14.572  2.4028 -1.7611  0.7976
  177DOPC  C21521667   4.175   3.850  14.626 -0.6423 -0.2086 -0.0534
  177DOPC  H15R21668   4.074   3.891  14.651 -0.0671  1.4401 -0.3061
  177DOPC  H15S21669   4.231   3.939  14.591 -0.4788 -0.1731  0.2889
  177DOPC  C21621670   4.232   3.793  14.757  0.5006  0.3457  0.2021
  177DOPC  H16R21671   4.329   3.742  14.740  0.9520  0.7231  1.5857
  177DOPC  H16S21672   4.165   3.718  14.804  2.2163 -0.9267  0.6758
  177DOPC  C21721673   4.251   3.918  14.854  0.4686 -0.2522 -1.0118
  177DOPC  H17R21674   4.165   3.988  14.862  2.4977  2.3478 -0.8351
  177DOPC  H17S21675   4.332   3.972  14.801 -0.7393  1.1531 -1.4839
  177DOPC  C21821676   4.292   3.889  14.994  0.3346 -0.2839  0.5300
  177DOPC  H18R21677   4.348   3.971  15.044  1.9036 -1.3403  0.5704
  177DOPC  H18S21678   4.354   3.797  14.981  1.6817  0.8871 -1.9912
  177DOPC  H18T21679   4.204   3.868  15.060 -2.1908 -1.1767 -2.8591
  177DOPC   C3321680   3.525   3.289  12.975  0.0812  0.8620 -0.3238
  177DOPC   H3X21681   3.611   3.291  13.046 -0.5607  0.4677  0.4955
  177DOPC   H3Y21682   3.542   3.195  12.919  2.2334  1.3021 -0.5203
  177DOPC   C3421683   3.397   3.272  13.060 -0.0555  0.9717 -0.0089
  177DOPC   H4X21684   3.393   3.169  13.101  0.0496  0.7640 -0.5146
  177DOPC   H4Y21685   3.315   3.269  12.985  1.1136  0.9384 -1.3140
  177DOPC   C3521686   3.375   3.371  13.182 -0.1667 -0.0680  0.0477
  177DOPC   H5X21687   3.278   3.335  13.224  0.1807  1.0781  1.8882
  177DOPC   H5Y21688   3.373   3.473  13.139 -0.8289 -0.7207 -1.6047
  177DOPC   C3621689   3.491   3.367  13.286 -0.1671  0.0363  0.8422
  177DOPC   H6X21690   3.518   3.263  13.315 -1.4893  0.0869  2.3984
  177DOPC   H6Y21691   3.582   3.415  13.245 -0.4185 -1.2304 -1.4004
  177DOPC   C3721692   3.442   3.428  13.415  0.6294 -0.4603 -0.0480
  177DOPC   H7X21693   3.403   3.527  13.384 -0.7395 -1.2336 -0.8932
  177DOPC   H7Y21694   3.349   3.381  13.455 -0.3886 -0.7867 -2.6213
  177DOPC   C3821695   3.558   3.437  13.511  0.3642 -0.4852 -0.8439
  177DOPC   H8X21696   3.637   3.497  13.463  1.5685 -1.5859 -0.2867
  177DOPC   H8Y21697   3.602   3.335  13.520  1.2677  0.0224  0.7245
  177DOPC   C3921698   3.504   3.508  13.639 -0.1781  0.0323  0.8134
  177DOPC   H9X21699   3.447   3.598  13.610  2.5820  1.1799 -1.5994
  177DOPC  C31021700   3.525   3.495  13.769 -0.2860 -0.1396  0.0811
  177DOPC  H10X21701   3.472   3.559  13.841  2.3876 -0.2595  2.2942
  177DOPC  C31121702   3.613   3.390  13.827 -0.1065  0.2261 -0.5689
  177DOPC  H11X21703   3.683   3.365  13.744  0.0291  3.4950 -1.5751
  177DOPC  H11Y21704   3.548   3.303  13.853  0.2059  0.6380  1.8924
  177DOPC  C31221705   3.696   3.433  13.951 -0.6375  0.0974 -0.4979
  177DOPC  H12X21706   3.770   3.508  13.916 -0.0445 -0.4202 -0.3792
  177DOPC  H12Y21707   3.762   3.346  13.974  0.8903  1.3709  0.0876
  177DOPC  C31321708   3.612   3.463  14.070  0.3873  0.1207 -0.2044
  177DOPC  H13X21709   3.532   3.539  14.058 -0.1483 -0.4313 -0.1912
  177DOPC  H13Y21710   3.558   3.368  14.093 -2.2544  1.0432 -2.0520
  177DOPC  C31421711   3.702   3.509  14.187 -0.2841 -0.4426 -0.0651
  177DOPC  H14X21712   3.758   3.420  14.221 -0.1714 -0.4792 -0.3468
  177DOPC  H14Y21713   3.771   3.580  14.137 -1.2542  0.4235 -0.2058
  177DOPC  C31521714   3.633   3.591  14.295  0.1402 -0.3460  0.0304
  177DOPC  H15X21715   3.554   3.517  14.319  0.9506 -2.0075 -2.1225
  177DOPC  H15Y21716   3.583   3.678  14.248  0.7408  1.2742  2.2469
  177DOPC  C31621717   3.718   3.628  14.411 -0.2849 -0.3560  0.0785
  177DOPC  H16X21718   3.796   3.551  14.429  1.5021  1.0991 -1.0073
  177DOPC  H16Y21719   3.768   3.724  14.384 -1.6949  0.8652  1.6269
  177DOPC  C31721720   3.644   3.664  14.541 -0.1985  0.3735 -0.0629
  177DOPC  H17X21721   3.585   3.755  14.518  0.6619  0.7162 -1.0205
  177DOPC  H17Y21722   3.580   3.576  14.562  0.7623 -0.7111 -1.5312
  177DOPC  C31821723   3.744   3.698  14.651  0.8227 -0.1889 -0.4921
  177DOPC  H18X21724   3.694   3.731  14.745  0.3032 -1.2331 -0.3838
  177DOPC  H18Y21725   3.805   3.608  14.675  1.4909 -0.2368 -2.2276
  177DOPC  H18Z21726   3.816   3.773  14.612 -0.9234  1.7311 -0.1456
  178DOPC     N21727   1.408   3.525  13.063  0.2435 -0.0073 -0.1222
  178DOPC   C1221728   1.510   3.616  13.136 -0.3738 -0.1912 -0.0085
  178DOPC  H12A21729   1.593   3.633  13.069  0.1828  0.1761  0.7607
  178DOPC  H12B21730   1.563   3.562  13.213  2.0290  0.2543 -1.2719
  178DOPC   C1321731   1.301   3.495  13.156 -0.4225  0.4942 -0.4057
  178DOPC  H13A21732   1.315   3.432  13.243 -1.6418  1.4805  0.5487
  178DOPC  H13B21733   1.275   3.588  13.204 -0.0842  0.5959 -0.4143
  178DOPC  H13C21734   1.214   3.452  13.108  0.6830 -2.2216 -0.1811
  178DOPC   C1421735   1.473   3.399  13.020  0.1401  0.0744 -0.1056
  178DOPC  H14A21736   1.540   3.425  12.939 -1.5279  0.6027 -1.3581
  178DOPC  H14B21737   1.531   3.354  13.100  1.3106 -0.1095 -1.0328
  178DOPC  H14C21738   1.409   3.325  12.975 -0.1380  1.5193 -2.2104
  178DOPC   C1521739   1.355   3.594  12.940 -0.3294 -0.2000 -0.2690
  178DOPC  H15A21740   1.405   3.550  12.855  0.2814 -0.0851  0.0195
  178DOPC  H15B21741   1.370   3.700  12.934 -1.2319 -0.0685 -0.2559
  178DOPC  H15C21742   1.249   3.576  12.934 -0.2526 -0.0961 -3.0518
  178DOPC   C1121743   1.464   3.756  13.201  0.4473 -0.9368  0.3113
  178DOPC  H11A21744   1.405   3.731  13.292 -0.2233 -0.9010 -0.0991
  178DOPC  H11B21745   1.562   3.795  13.234  0.0335 -0.0938  0.5732
  178DOPC     P21746   1.469   3.964  13.026  0.0361 -0.0575 -0.2022
  178DOPC   O1321747   1.359   4.059  13.001  0.0648  0.0231 -0.1419
  178DOPC   O1421748   1.538   3.893  12.913  1.0399  0.3516  0.4450
  178DOPC   O1221749   1.400   3.851  13.115  0.0284 -0.2998  0.4494
  178DOPC   O1121750   1.581   4.011  13.133 -0.1228 -0.1341  0.5791
  178DOPC    C121751   1.535   4.090  13.242 -0.6415  0.4476 -0.1732
  178DOPC    HA21752   1.453   4.029  13.286 -0.8418  0.1146 -0.9770
  178DOPC    HB21753   1.494   4.186  13.205  1.0709  1.1030 -0.4717
  178DOPC    C221754   1.649   4.095  13.358 -0.1800  0.1667 -0.4472
  178DOPC    HS21755   1.744   4.110  13.303  1.2746 -3.1677  0.8635
  178DOPC   O2121756   1.647   3.972  13.427  0.2079 -0.1336  0.1027
  178DOPC   C2121757   1.760   3.940  13.477 -0.3547 -0.2746 -0.2350
  178DOPC   O2221758   1.870   3.991  13.455 -0.1947 -0.1676  0.2116
  178DOPC   C2221759   1.735   3.811  13.559 -0.3466  0.3308 -0.0799
  178DOPC   H2R21760   1.829   3.788  13.614  0.5251 -0.6759 -1.9155
  178DOPC   H2S21761   1.721   3.728  13.486 -1.2624 -1.1207  1.6613
  178DOPC    C321762   1.610   4.209  13.449  0.1926 -0.0343  0.3485
  178DOPC    HX21763   1.510   4.177  13.488  0.1528 -0.9068 -0.4404
  178DOPC    HY21764   1.615   4.308  13.400  0.7389 -0.6102 -0.7984
  178DOPC   O3121765   1.709   4.219  13.549  0.3176 -0.1810 -0.2473
  178DOPC   C3121766   1.660   4.221  13.673 -0.0556  0.5099 -0.8081
  178DOPC   O3221767   1.545   4.200  13.712 -0.1669  0.4319  0.6247
  178DOPC   C3221768   1.774   4.271  13.762  0.2997  0.2077  0.1561
  178DOPC   H2X21769   1.849   4.191  13.784  2.4763  1.8925 -0.7384
  178DOPC   H2Y21770   1.829   4.355  13.714 -0.1474  0.1245 -0.5062
  178DOPC   C2321771   1.608   3.805  13.648 -0.5614  0.1357 -1.2554
  178DOPC   H3R21772   1.551   3.710  13.649  0.1382 -0.2990 -1.3531
  178DOPC   H3S21773   1.529   3.879  13.623 -1.3809 -0.0541  0.6240
  178DOPC   C2421774   1.642   3.826  13.795  0.4104 -0.3666 -0.0562
  178DOPC   H4R21775   1.714   3.911  13.800 -0.7533  0.5799  1.5919
  178DOPC   H4S21776   1.692   3.733  13.830  1.6635 -0.4412 -1.8999
  178DOPC   C2521777   1.515   3.852  13.886 -0.1003 -1.1347 -0.8153
  178DOPC   H5R21778   1.447   3.769  13.859 -0.4011 -1.5289  1.0085
  178DOPC   H5S21779   1.474   3.948  13.848 -0.0332 -0.7619  0.0232
  178DOPC   C2621780   1.528   3.836  14.047  0.9205  0.0925 -0.2479
  178DOPC   H6R21781   1.617   3.774  14.075  0.5973 -0.1541  0.2574
  178DOPC   H6S21782   1.432   3.791  14.080 -0.3692  1.7685 -1.5329
  178DOPC   C2721783   1.558   3.971  14.116 -0.1374  0.4824 -0.7082
  178DOPC   H7R21784   1.656   4.006  14.076  0.0736  1.3498  0.5173
  178DOPC   H7S21785   1.563   3.941  14.222  0.6634 -0.9639 -1.1219
  178DOPC   C2821786   1.445   4.075  14.104 -0.3035 -0.2460  0.3954
  178DOPC   H8R21787   1.456   4.125  14.005  0.6210 -3.2986 -1.1778
  178DOPC   H8S21788   1.473   4.154  14.177 -0.6583  2.2834 -2.0270
  178DOPC   C2921789   1.306   4.011  14.132  0.6041  0.0423 -0.3427
  178DOPC   H9R21790   1.266   3.958  14.045  0.8659  0.4788 -0.7359
  178DOPC  C21021791   1.233   4.030  14.251 -1.2316  0.2534 -0.1372
  178DOPC  H10R21792   1.145   3.964  14.260  0.9060 -3.1225 -1.7769
  178DOPC  C21121793   1.274   4.104  14.375  0.1245  0.1051  0.0404
  178DOPC  H11R21794   1.192   4.178  14.393  0.5916  0.7849 -0.5588
  178DOPC  H11S21795   1.373   4.154  14.369  0.3692 -0.4776 -0.9064
  178DOPC  C21221796   1.303   4.025  14.502 -0.1978 -0.1013  0.5886
  178DOPC  H12R21797   1.397   3.968  14.487  0.3366  0.7216  0.7637
  178DOPC  H12S21798   1.223   3.949  14.517 -0.6189 -0.2500 -1.8981
  178DOPC  C21321799   1.319   4.116  14.623 -0.4444  0.0675  0.4596
  178DOPC  H13R21800   1.222   4.156  14.658 -1.3668 -1.3763 -0.3351
  178DOPC  H13S21801   1.397   4.192  14.602  0.1532 -1.0042 -1.4287
  178DOPC  C21421802   1.372   4.027  14.737 -0.3798 -0.0410  0.3447
  178DOPC  H14R21803   1.466   3.977  14.705 -1.3899 -0.2643 -2.5960
  178DOPC  H14S21804   1.313   3.933  14.738 -0.3118 -0.0922 -0.0693
  178DOPC  C21521805   1.385   4.088  14.872  0.8081 -0.3543 -0.3899
  178DOPC  H15R21806   1.280   4.103  14.904  1.2614  1.5323  0.3746
  178DOPC  H15S21807   1.432   4.189  14.864  0.3682 -0.1628 -0.5950
  178DOPC  C21621808   1.469   4.004  14.976 -0.0966 -0.0656 -0.0010
  178DOPC  H16R21809   1.449   4.055  15.073 -2.3042 -1.6446  0.4615
  178DOPC  H16S21810   1.577   4.015  14.953 -0.2012 -0.6331 -0.8262
  178DOPC  C21721811   1.423   3.860  14.992  0.0938 -0.0305 -0.0761
  178DOPC  H17R21812   1.435   3.808  14.895 -0.3138  3.0161 -1.8734
  178DOPC  H17S21813   1.317   3.857  15.024  1.0366 -1.3483  3.3305
  178DOPC  C21821814   1.498   3.779  15.099  0.1215  0.0315 -0.4140
  178DOPC  H18R21815   1.485   3.818  15.202  0.2067  0.6207 -0.6223
  178DOPC  H18S21816   1.607   3.777  15.080  0.6734  0.5711  2.2131
  178DOPC  H18T21817   1.461   3.674  15.091 -2.1618  0.7582 -0.1515
  178DOPC   C3321818   1.717   4.324  13.898 -0.4659 -0.3369 -0.4459
  178DOPC   H3X21819   1.657   4.248  13.953 -0.8232  1.0079  1.1041
  178DOPC   H3Y21820   1.651   4.410  13.872  0.5036  0.0500 -1.7468
  178DOPC   C3421821   1.843   4.361  13.983  0.6383  0.2882  0.5491
  178DOPC   H4X21822   1.910   4.438  13.938  0.9113 -0.2534  0.0112
  178DOPC   H4Y21823   1.913   4.276  13.999  0.4106  0.5458  3.5149
  178DOPC   C3521824   1.798   4.411  14.118  0.0734  0.3407 -0.5194
  178DOPC   H5X21825   1.718   4.485  14.100  0.4309  0.7232 -0.5528
  178DOPC   H5Y21826   1.878   4.469  14.168 -0.3106  0.3985  0.0410
  178DOPC   C3621827   1.757   4.294  14.216  0.4097 -0.5393 -0.0718
  178DOPC   H6X21828   1.669   4.239  14.174 -0.7623  2.2655 -1.5308
  178DOPC   H6Y21829   1.836   4.216  14.216 -1.3046 -2.3761  0.7687
  178DOPC   C3721830   1.721   4.345  14.353  0.1427  0.0759  0.2897
  178DOPC   H7X21831   1.821   4.359  14.399  0.7431 -1.7756 -0.3527
  178DOPC   H7Y21832   1.658   4.437  14.355 -1.9020 -1.2509  0.2947
  178DOPC   C3821833   1.648   4.247  14.445  1.1511 -0.0012  0.5556
  178DOPC   H8X21834   1.673   4.141  14.420 -0.6883 -0.0532 -1.3401
  178DOPC   H8Y21835   1.542   4.262  14.416  0.5466 -0.1495  2.5509
  178DOPC   C3921836   1.653   4.275  14.591 -0.5890 -0.4564 -0.1873
  178DOPC   H9X21837   1.573   4.342  14.627 -1.1561 -1.3324  0.2114
  178DOPC  C31021838   1.744   4.233  14.684 -0.1982 -0.7230  0.4204
  178DOPC  H10X21839   1.739   4.273  14.786  1.5497  0.3500  0.1316
  178DOPC  C31121840   1.857   4.130  14.666  0.2729  0.3790 -0.3594
  178DOPC  H11X21841   1.938   4.146  14.740 -0.1933 -0.7901  0.4270
  178DOPC  H11Y21842   1.888   4.144  14.560 -2.3046 -1.1380 -1.4270
  178DOPC  C31221843   1.790   3.985  14.663 -0.1413 -0.1473 -0.0426
  178DOPC  H12X21844   1.722   3.985  14.575 -2.3668 -0.3051  1.6047
  178DOPC  H12Y21845   1.729   3.966  14.754  0.6632  0.2796  0.6061
  178DOPC  C31321846   1.897   3.878  14.640 -0.4606  0.5531 -0.0087
  178DOPC  H13X21847   1.998   3.921  14.623  0.7087 -2.3943 -1.1915
  178DOPC  H13Y21848   1.905   3.824  14.736  1.1057  1.0276  0.1582
  178DOPC  C31421849   1.870   3.784  14.522 -0.1378  0.1189 -0.0898
  178DOPC  H14X21850   1.932   3.694  14.544 -2.4008 -1.4650  0.1190
  178DOPC  H14Y21851   1.761   3.763  14.516  0.1399 -1.0177 -2.5516
  178DOPC  C31521852   1.899   3.856  14.388  0.3507  0.4736 -0.0383
  178DOPC  H15X21853   1.998   3.907  14.398  0.0966  1.1283 -0.7375
  178DOPC  H15Y21854   1.824   3.937  14.385  0.2215  0.4116  1.2642
  178DOPC  C31621855   1.901   3.761  14.261  0.1649  0.4111 -0.6390
  178DOPC  H16X21856   1.942   3.660  14.281  0.2220  0.1430 -2.0602
  178DOPC  H16Y21857   1.799   3.743  14.222 -0.2232  0.3104  0.3705
  178DOPC  C31721858   1.992   3.828  14.158  0.0005 -0.1202  0.3589
  178DOPC  H17X21859   1.976   3.938  14.155 -2.6797 -0.4490 -2.0219
  178DOPC  H17Y21860   2.093   3.817  14.204 -0.7147  0.2822  2.1095
  178DOPC  C31821861   1.993   3.779  14.011 -0.1633 -0.3970  0.1727
  178DOPC  H18X21862   2.050   3.841  13.939  1.2079  0.3518  1.8372
  178DOPC  H18Y21863   2.023   3.673  13.997 -2.8982 -1.1754 -0.3686
  178DOPC  H18Z21864   1.889   3.783  13.972  0.0372 -2.2808 -0.6956
  179DOPC     N21865   5.180   3.065  11.933  0.5776  0.4733 -0.1993
  179DOPC   C1221866   5.273   3.025  12.047  0.1469 -0.2356 -1.4119
  179DOPC  H12A21867   5.313   3.117  12.085 -1.8179  0.6959 -1.4763
  179DOPC  H12B21868   5.360   2.974  12.006  1.3437  0.9979 -0.4864
  179DOPC   C1321869   5.249   3.133  11.825  0.2808 -0.2525  0.3079
  179DOPC  H13A21870   5.297   3.225  11.854 -1.0439  0.2035  1.1346
  179DOPC  H13B21871   5.337   3.081  11.790  0.8114  0.1321  1.0263
  179DOPC  H13C21872   5.183   3.154  11.742 -1.5000 -0.3729  1.6341
  179DOPC   C1421873   5.067   3.160  11.988 -0.1605 -0.2166 -0.1218
  179DOPC  H14A21874   5.014   3.124  12.075  1.8294  0.1666  1.3330
  179DOPC  H14B21875   5.116   3.248  12.028 -0.9946 -0.1099  0.6871
  179DOPC  H14C21876   5.007   3.213  11.916 -0.4543 -0.8006 -0.3115
  179DOPC   C1521877   5.106   2.947  11.881  0.6757 -0.0194  0.3911
  179DOPC  H15A21878   5.077   2.878  11.960  2.8164 -1.0538  0.3354
  179DOPC  H15B21879   5.162   2.892  11.808  2.4698  0.9107  1.0104
  179DOPC  H15C21880   5.011   2.975  11.837 -1.5903 -2.5619  3.2017
  179DOPC   C1121881   5.228   2.937  12.166 -0.3043 -0.1433 -0.4523
  179DOPC  H11A21882   5.319   2.926  12.229 -1.0756 -1.4140  0.4886
  179DOPC  H11B21883   5.167   3.005  12.228  1.6852  0.0982  1.3356
  179DOPC     P21884   5.036   2.761  12.183 -0.1920  0.5419  0.1101
  179DOPC   O1321885   5.045   2.618  12.162  0.5098 -0.1711 -0.7538
  179DOPC   O1421886   4.923   2.832  12.114  0.0984  0.4496 -0.2113
  179DOPC   O1221887   5.170   2.815  12.131  0.0741 -0.0858 -0.0961
  179DOPC   O1121888   5.038   2.795  12.341  0.1498  0.0356  0.3794
  179DOPC    C121889   5.158   2.761  12.416  0.6454 -0.6970 -0.3757
  179DOPC    HA21890   5.199   2.844  12.477  1.1667  0.8853 -2.7405
  179DOPC    HB21891   5.245   2.726  12.355  0.6111  0.5968 -1.2005
  179DOPC    C221892   5.132   2.654  12.520 -0.5955  0.8020 -0.4085
  179DOPC    HS21893   5.097   2.565  12.464 -0.2364  1.4361 -1.6684
  179DOPC   O2121894   5.035   2.702  12.621 -0.6032 -0.0065 -0.6257
  179DOPC   C2121895   4.960   2.609  12.681 -0.4908 -0.1064 -1.0276
  179DOPC   O2221896   4.981   2.490  12.682  0.4953 -0.0473 -0.5653
  179DOPC   C2221897   4.869   2.679  12.781 -0.1973 -0.1540 -0.6726
  179DOPC   H2R21898   4.803   2.603  12.829  3.1390 -1.6061  2.0063
  179DOPC   H2S21899   4.814   2.757  12.725  3.7991  2.0699 -1.8670
  179DOPC    C321900   5.260   2.605  12.584  0.7837 -0.3191  0.3794
  179DOPC    HX21901   5.325   2.590  12.496  0.4506  1.9209 -0.3121
  179DOPC    HY21902   5.243   2.506  12.633  0.6463  0.0083  1.0072
  179DOPC   O3121903   5.315   2.700  12.675 -0.4578  0.2067  0.3722
  179DOPC   C3121904   5.441   2.672  12.716  0.1191  0.3026 -0.8114
  179DOPC   O3221905   5.510   2.582  12.674  0.2560 -0.3421  0.0029
  179DOPC   C3221906   5.480   2.783  12.819  0.6974  0.0625 -0.1543
  179DOPC   H2X21907   5.589   2.791  12.798  0.7199  0.1435 -0.0053
  179DOPC   H2Y21908   5.436   2.884  12.801  0.4970 -0.2686 -1.7561
  179DOPC   C2321909   4.943   2.742  12.908 -0.5597 -0.3393  0.0314
  179DOPC   H3R21910   5.015   2.818  12.870 -0.1387 -1.5526 -1.7343
  179DOPC   H3S21911   4.990   2.653  12.954 -0.2203  0.4330  1.2283
  179DOPC   C2421912   4.846   2.798  13.001 -0.4101 -0.7341 -0.6191
  179DOPC   H4R21913   4.800   2.709  13.048 -1.3278  0.0837  0.0540
  179DOPC   H4S21914   4.775   2.866  12.949 -1.0189 -2.1697 -1.7467
  179DOPC   C2521915   4.920   2.886  13.104  0.3820  0.1936 -0.0495
  179DOPC   H5R21916   4.925   2.992  13.073  0.6491  0.0911 -0.3649
  179DOPC   H5S21917   5.019   2.839  13.120 -0.5502 -2.4588 -1.2921
  179DOPC   C2621918   4.842   2.892  13.238 -0.4177 -0.6787 -0.4545
  179DOPC   H6R21919   4.822   2.786  13.265  0.0833 -0.3087  1.5161
  179DOPC   H6S21920   4.752   2.956  13.221  0.7362  1.4480  1.0435
  179DOPC   C2721921   4.928   2.941  13.360 -0.3098 -0.4439  0.3649
  179DOPC   H7R21922   4.977   3.039  13.340  0.8231 -0.9608  0.5428
  179DOPC   H7S21923   5.005   2.864  13.380 -0.2164 -1.1539 -2.3073
  179DOPC   C2821924   4.843   2.947  13.490 -0.0452  0.1378 -0.7341
  179DOPC   H8R21925   4.805   2.846  13.519  0.4548  0.2909  0.5065
  179DOPC   H8S21926   4.751   3.007  13.469 -2.4203 -2.2230  1.9284
  179DOPC   C2921927   4.921   3.016  13.602 -0.3215 -0.0307  0.4697
  179DOPC   H9R21928   4.900   3.124  13.614  1.1328  0.7586 -2.8380
  179DOPC  C21021929   4.973   2.958  13.711 -0.1851  0.4489 -0.1107
  179DOPC  H10R21930   5.029   3.011  13.789 -1.4406 -0.0448  1.1631
  179DOPC  C21121931   4.970   2.805  13.729  0.0205 -0.6881  0.2478
  179DOPC  H11R21932   5.073   2.762  13.734 -0.4935 -1.8383  1.4090
  179DOPC  H11S21933   4.913   2.755  13.648 -1.9965  0.4305  0.9195
  179DOPC  C21221934   4.907   2.760  13.863 -0.2911  0.0600 -0.1130
  179DOPC  H12R21935   4.905   2.649  13.868 -0.3749 -0.1559 -3.2035
  179DOPC  H12S21936   4.799   2.781  13.847 -0.4552 -0.9733 -0.3965
  179DOPC  C21321937   4.970   2.830  13.985 -0.9429 -0.0324  0.0299
  179DOPC  H13R21938   4.919   2.927  14.004  1.8382  1.5229  0.0139
  179DOPC  H13S21939   5.081   2.835  13.977 -0.9752  3.9961  0.1787
  179DOPC  C21421940   4.936   2.751  14.119 -0.0123 -0.4447  0.5151
  179DOPC  H14R21941   5.001   2.662  14.135  0.8607  0.0282 -0.3090
  179DOPC  H14S21942   4.831   2.715  14.112 -0.0746 -0.1315 -0.2482
  179DOPC  C21521943   4.942   2.833  14.248  0.2807 -0.4934  0.4028
  179DOPC  H15R21944   4.845   2.887  14.255  1.4053  1.6911 -0.0270
  179DOPC  H15S21945   5.022   2.910  14.243  1.0567 -1.3837 -1.9373
  179DOPC  C21621946   4.967   2.741  14.369 -0.8731  0.2877 -0.5308
  179DOPC  H16R21947   5.069   2.701  14.351  0.1648  1.5442  2.0106
  179DOPC  H16S21948   4.890   2.661  14.372 -3.1620  2.3841  0.7762
  179DOPC  C21721949   4.968   2.819  14.506  0.1496 -0.1600  0.0813
  179DOPC  H17R21950   4.870   2.867  14.525  0.7750  2.2383 -2.0984
  179DOPC  H17S21951   5.037   2.906  14.496 -3.1904  2.7529  0.6467
  179DOPC  C21821952   5.005   2.726  14.624 -0.2620  0.3436  0.6132
  179DOPC  H18R21953   5.038   2.781  14.714  1.7868  1.7179 -0.8659
  179DOPC  H18S21954   5.098   2.674  14.593 -0.4515  1.6976 -2.6981
  179DOPC  H18T21955   4.923   2.652  14.634  1.1368 -1.7686 -1.9780
  179DOPC   C3321956   5.474   2.726  12.960 -0.5650 -0.7371  0.4298
  179DOPC   H3X21957   5.541   2.774  13.035 -1.6873  0.6845  0.5765
  179DOPC   H3Y21958   5.506   2.620  12.963  0.8721 -0.3818 -1.1021
  179DOPC   C3421959   5.337   2.746  13.025 -0.6311 -0.1540  0.9932
  179DOPC   H4X21960   5.271   2.670  12.979 -2.8741  1.4377  1.3943
  179DOPC   H4Y21961   5.289   2.843  12.998 -3.0062 -1.4197  0.4509
  179DOPC   C3521962   5.320   2.722  13.174 -0.8053 -0.3274 -0.0646
  179DOPC   H5X21963   5.364   2.628  13.214 -1.1240 -0.6319 -0.4241
  179DOPC   H5Y21964   5.210   2.709  13.186 -1.0227  0.7772 -0.7269
  179DOPC   C3621965   5.362   2.838  13.260  0.2224 -0.3490  0.0291
  179DOPC   H6X21966   5.359   2.935  13.206 -1.3575 -0.2369  0.2613
  179DOPC   H6Y21967   5.284   2.861  13.336  1.0791 -0.2847  0.8987
  179DOPC   C3721968   5.503   2.824  13.318  0.2767  0.5067  0.5347
  179DOPC   H7X21969   5.568   2.764  13.251 -0.3977 -0.7530  0.9522
  179DOPC   H7Y21970   5.558   2.920  13.317  2.0790 -0.4303 -2.4488
  179DOPC   C3821971   5.510   2.759  13.455  0.1765  0.1872  0.0564
  179DOPC   H8X21972   5.432   2.804  13.520  0.7136  3.4887 -1.4068
  179DOPC   H8Y21973   5.609   2.780  13.502  0.1326 -1.6215  1.0625
  179DOPC   C3921974   5.505   2.608  13.467  0.4308  0.1141 -0.4832
  179DOPC   H9X21975   5.555   2.555  13.385  1.6182 -0.4511  0.5773
  179DOPC  C31021976   5.443   2.534  13.560 -0.3051 -0.8213 -0.2478
  179DOPC  H10X21977   5.436   2.426  13.541 -1.8177 -0.9191  0.6858
  179DOPC  C31121978   5.387   2.601  13.690  1.0014 -0.2238  0.1387
  179DOPC  H11X21979   5.298   2.547  13.730  0.5664  0.5149  0.1947
  179DOPC  H11Y21980   5.361   2.709  13.687 -0.5778 -0.5727  0.2827
  179DOPC  C31221981   5.482   2.578  13.815 -0.2019 -0.3194 -0.1971
  179DOPC  H12X21982   5.576   2.635  13.798 -0.0768 -0.4552  0.0318
  179DOPC  H12Y21983   5.510   2.472  13.835 -2.8581 -0.6530  2.4613
  179DOPC  C31321984   5.427   2.638  13.946  0.9550  0.3649 -0.1619
  179DOPC  H13X21985   5.405   2.747  13.947 -3.6030 -0.3236 -1.3882
  179DOPC  H13Y21986   5.332   2.588  13.977  0.9966 -0.6408 -1.5882
  179DOPC  C31421987   5.526   2.617  14.062  0.2336 -0.5841 -0.9970
  179DOPC  H14X21988   5.529   2.507  14.079  0.8999 -0.2525  1.4568
  179DOPC  H14Y21989   5.629   2.651  14.038  0.4045 -0.8937 -0.7091
  179DOPC  C31521990   5.478   2.679  14.200  0.0034  0.0658  0.7285
  179DOPC  H15X21991   5.370   2.654  14.200 -0.5647  1.7346 -3.3079
  179DOPC  H15Y21992   5.480   2.789  14.185  0.2264 -0.0416 -0.1036
  179DOPC  C31621993   5.571   2.651  14.315  0.2969  0.2925  0.2082
  179DOPC  H16X21994   5.551   2.548  14.353  0.3758  0.0712 -0.3418
  179DOPC  H16Y21995   5.674   2.652  14.273  2.4295 -0.8115  4.7484
  179DOPC  C31721996   5.546   2.741  14.429 -0.1440  0.3411 -0.1586
  179DOPC  H17X21997   5.613   2.828  14.411 -0.2538  0.5770  0.5471
  179DOPC  H17Y21998   5.445   2.786  14.426  1.1760  3.5795  0.2674
  179DOPC  C31821999   5.579   2.701  14.574  0.0527  0.4845 -0.9210
  179DOPC  H18X22000   5.689   2.706  14.589  0.0393  2.0639 -1.1063
  179DOPC  H18Y22001   5.537   2.781  14.640 -1.1558 -0.5786 -0.3650
  179DOPC  H18Z22002   5.541   2.599  14.592  0.3529  0.3779 -0.8897
  180DOPC     N22003   5.210   0.218  12.396  0.0751  0.7375  0.1621
  180DOPC   C1222004   5.075   0.188  12.465 -0.1104 -0.0317 -0.6376
  180DOPC  H12A22005   5.058   0.082  12.472  0.7804 -0.2551 -1.5661
  180DOPC  H12B22006   4.986   0.230  12.420  0.2463  0.3861 -0.9660
  180DOPC   C1322007   5.334   0.179  12.483  0.1683  0.1103  0.7372
  180DOPC  H13A22008   5.342   0.250  12.564  2.5704  2.0894 -1.0879
  180DOPC  H13B22009   5.331   0.079  12.524 -0.2339 -0.9241 -1.6646
  180DOPC  H13C22010   5.426   0.198  12.430  1.4692  1.0479  3.1447
  180DOPC   C1422011   5.228   0.364  12.366 -0.2922  0.2045 -0.1667
  180DOPC  H14A22012   5.319   0.372  12.309  1.6362  0.0480  2.6965
  180DOPC  H14B22013   5.148   0.405  12.306  0.5551  1.7683 -0.2874
  180DOPC  H14C22014   5.232   0.430  12.452 -0.7039 -2.2205  1.8075
  180DOPC   C1522015   5.217   0.127  12.275 -0.9401 -0.0792  0.0620
  180DOPC  H15A22016   5.212   0.020  12.292 -2.3899  0.0241  0.4804
  180DOPC  H15B22017   5.306   0.145  12.218  0.4322 -0.1709  2.0652
  180DOPC  H15C22018   5.133   0.146  12.209 -0.3643 -1.4958 -1.1302
  180DOPC   C1122019   5.067   0.227  12.615  0.1522 -0.2433 -0.4051
  180DOPC  H11A22020   4.974   0.191  12.666 -0.0507 -0.1829 -0.7317
  180DOPC  H11B22021   5.161   0.206  12.670 -1.0413  0.0779  1.8958
  180DOPC     P22022   4.937   0.460  12.586 -0.2781  0.1267 -0.2280
  180DOPC   O1322023   4.875   0.413  12.461 -0.7802 -1.0381  0.2959
  180DOPC   O1422024   4.970   0.602  12.600 -0.0190  0.9438 -0.8642
  180DOPC   O1222025   5.063   0.375  12.617  0.2317 -0.0347  0.3213
  180DOPC   O1122026   4.848   0.422  12.702 -0.1370  0.2001  0.1255
  180DOPC    C122027   4.824   0.507  12.813  0.2298 -0.5361  0.1298
  180DOPC    HA22028   4.716   0.495  12.838  0.4791 -1.2994  0.8714
  180DOPC    HB22029   4.830   0.615  12.790 -0.6257 -0.2468  1.2030
  180DOPC    C222030   4.918   0.470  12.933 -0.6433  0.4094  0.4209
  180DOPC    HS22031   5.022   0.504  12.910  0.4158 -2.8751 -0.2780
  180DOPC   O2122032   4.909   0.327  12.953 -0.8449 -0.1077 -0.3119
  180DOPC   C2122033   5.010   0.257  13.007  0.5945 -0.5635 -1.0032
  180DOPC   O2222034   5.119   0.309  13.032 -0.3817 -0.5711  0.0604
  180DOPC   C2222035   4.977   0.108  13.029 -0.2190  0.3952 -0.3803
  180DOPC   H2R22036   5.068   0.062  13.074  0.3507  1.4890 -0.3882
  180DOPC   H2S22037   4.964   0.055  12.932  1.2117 -0.8489  0.0622
  180DOPC    C322038   4.875   0.544  13.058 -0.0120 -0.1939  0.7553
  180DOPC    HX22039   4.767   0.518  13.065 -0.0662 -0.8263 -1.6365
  180DOPC    HY22040   4.874   0.653  13.037  0.3775 -0.6164 -1.6650
  180DOPC   O3122041   4.940   0.510  13.182  0.1999 -0.0568 -0.2888
  180DOPC   C3122042   5.038   0.591  13.224  0.2945  0.5511  0.2057
  180DOPC   O3222043   5.068   0.694  13.175 -0.1369 -0.3275 -0.2154
  180DOPC   C3222044   5.094   0.525  13.351 -0.3161  0.0327 -0.0767
  180DOPC   H2X22045   5.141   0.429  13.322 -0.3492 -1.2071  3.5142
  180DOPC   H2Y22046   5.166   0.594  13.399  2.1152 -0.6069 -2.5101
  180DOPC   C2322047   4.845   0.084  13.116 -0.3059 -0.0573  0.6996
  180DOPC   H3R22048   4.799  -0.012  13.086  1.1209 -0.7955  0.7694
  180DOPC   H3S22049   4.777   0.169  13.093 -0.1881 -0.4124 -1.0845
  180DOPC   C2422050   4.868   0.081  13.266  0.0764  0.0151 -1.0107
  180DOPC   H4R22051   4.928   0.165  13.308 -0.7095 -0.2792  0.7681
  180DOPC   H4S22052   4.907  -0.017  13.301  1.1365  0.7064 -0.1685
  180DOPC   C2522053   4.737   0.100  13.348  0.5132 -0.1356 -0.0881
  180DOPC   H5R22054   4.694  -0.001  13.335  2.7283 -1.0975 -0.2647
  180DOPC   H5S22055   4.672   0.170  13.290 -1.1833 -0.5331  1.2485
  180DOPC   C2622056   4.743   0.150  13.495 -0.2596 -0.4066 -0.7725
  180DOPC   H6R22057   4.757   0.260  13.498 -1.3114 -0.2751 -0.1897
  180DOPC   H6S22058   4.831   0.101  13.542  0.5970  0.3486 -1.5451
  180DOPC   C2722059   4.617   0.116  13.565  0.1156 -0.0372  0.1436
  180DOPC   H7R22060   4.601   0.008  13.549  0.6042 -0.3880  1.8518
  180DOPC   H7S22061   4.532   0.167  13.514 -0.3013  0.5482  1.3790
  180DOPC   C2822062   4.612   0.166  13.713  0.4629 -0.1440 -0.3517
  180DOPC   H8R22063   4.507   0.193  13.738  1.0222 -1.5505  4.6865
  180DOPC   H8S22064   4.671   0.260  13.721  2.9596 -1.6494  0.0543
  180DOPC   C2922065   4.665   0.042  13.795 -0.2040  0.0889  0.2222
  180DOPC   H9R22066   4.696  -0.046  13.737 -0.1580  0.8059 -0.8734
  180DOPC  C21022067   4.689   0.034  13.926 -0.1599  0.4265  0.8061
  180DOPC  H10R22068   4.748  -0.050  13.965  0.1088  0.9524  1.5706
  180DOPC  C21122069   4.646   0.122  14.031 -0.4296  0.0956 -0.0831
  180DOPC  H11R22070   4.566   0.192  14.001 -0.0437  1.0761  1.0972
  180DOPC  H11S22071   4.732   0.185  14.063  0.9389 -2.6100  1.9586
  180DOPC  C21222072   4.610   0.044  14.160  0.2227  0.8620 -0.8811
  180DOPC  H12R22073   4.700  -0.017  14.183  0.2827  0.1393 -2.8116
  180DOPC  H12S22074   4.518  -0.018  14.152  0.4736  0.0490  1.5882
  180DOPC  C21322075   4.584   0.144  14.277 -0.4117  0.0123  0.0739
  180DOPC  H13R22076   4.490   0.198  14.255 -0.9821 -1.3608 -0.9827
  180DOPC  H13S22077   4.672   0.212  14.280 -1.4553  1.4518 -1.1337
  180DOPC  C21422078   4.579   0.075  14.415 -0.2472  0.5052  0.4632
  180DOPC  H14R22079   4.672   0.015  14.425  0.3713  1.6747  2.2531
  180DOPC  H14S22080   4.495   0.003  14.410  0.9670 -1.0303  1.5188
  180DOPC  C21522081   4.554   0.171  14.534 -0.0005  0.6767  0.1972
  180DOPC  H15R22082   4.465   0.239  14.529 -0.2445  0.2768 -2.4456
  180DOPC  H15S22083   4.642   0.237  14.548  0.2711  0.5159 -0.6881
  180DOPC  C21622084   4.553   0.081  14.663 -0.0029  0.8304 -0.0086
  180DOPC  H16R22085   4.639   0.010  14.662 -3.1388 -3.4258  1.4817
  180DOPC  H16S22086   4.466   0.013  14.654  1.5626 -1.2204 -0.3706
  180DOPC  C21722087   4.542   0.175  14.787  0.4791  0.8460  0.3902
  180DOPC  H17R22088   4.453   0.241  14.781  0.9714  1.4940  0.0753
  180DOPC  H17S22089   4.625   0.249  14.784  2.0333 -0.7944  1.0873
  180DOPC  C21822090   4.543   0.101  14.920  0.2883  0.4288 -0.4985
  180DOPC  H18R22091   4.638   0.056  14.957  0.3474  2.5449  2.2598
  180DOPC  H18S22092   4.474   0.014  14.911  1.0910 -0.4980  1.4842
  180DOPC  H18T22093   4.521   0.170  15.005  1.0594 -0.4403  0.4421
  180DOPC   C3322094   4.981   0.479  13.451 -0.3348 -0.0015  0.5990
  180DOPC   H3X22095   4.957   0.371  13.441 -1.4605  0.2654  0.2374
  180DOPC   H3Y22096   4.887   0.531  13.422 -0.7053 -0.2519  1.3336
  180DOPC   C3422097   5.024   0.508  13.594 -0.0349 -0.0012 -0.0575
  180DOPC   H4X22098   5.041   0.617  13.607 -1.2889 -0.1072  3.6921
  180DOPC   H4Y22099   5.104   0.442  13.633 -0.7253 -0.1004  1.2486
  180DOPC   C3522100   4.906   0.490  13.688  0.0419  0.1677  0.9079
  180DOPC   H5X22101   4.873   0.386  13.670  2.0993 -0.5421  1.0475
  180DOPC   H5Y22102   4.818   0.555  13.669 -0.8219 -1.6187 -1.7274
  180DOPC   C3622103   4.949   0.501  13.837 -0.1909 -0.2247 -0.3097
  180DOPC   H6X22104   5.040   0.438  13.849  0.5382  1.1514  2.2495
  180DOPC   H6Y22105   4.967   0.608  13.862 -0.8204  0.0675 -1.0547
  180DOPC   C3722106   4.844   0.461  13.948 -0.1191  0.1477 -0.8209
  180DOPC   H7X22107   4.765   0.539  13.939 -1.6653 -1.2144  0.1968
  180DOPC   H7Y22108   4.815   0.354  13.938  1.5505 -0.2637 -1.5630
  180DOPC   C3822109   4.898   0.481  14.092 -0.5252 -0.3232 -0.4069
  180DOPC   H8X22110   5.000   0.437  14.087 -0.5755 -0.4459 -0.3702
  180DOPC   H8Y22111   4.826   0.426  14.156 -0.6719  1.0941  0.7021
  180DOPC   C3922112   4.915   0.620  14.139  0.1983 -0.2342  0.2711
  180DOPC   H9X22113   4.910   0.693  14.056  2.4705 -1.7381 -1.3090
  180DOPC  C31022114   4.935   0.663  14.261  0.3140  0.1986 -0.2490
  180DOPC  H10X22115   4.939   0.771  14.282  1.6431  0.5131 -1.9445
  180DOPC  C31122116   4.949   0.571  14.384 -0.5906  0.1253  0.1778
  180DOPC  H11X22117   5.059   0.566  14.404 -0.5840  0.3742  0.2165
  180DOPC  H11Y22118   4.922   0.465  14.366 -3.1752  0.4281  1.8969
  180DOPC  C31222119   4.878   0.619  14.516  0.0017  0.7378  0.1064
  180DOPC  H12X22120   4.768   0.608  14.512 -0.0767  0.1377  2.3656
  180DOPC  H12Y22121   4.911   0.724  14.532  0.5160  0.5460  0.3356
  180DOPC  C31322122   4.909   0.517  14.634  0.2383  0.4043  0.4731
  180DOPC  H13X22123   4.901   0.416  14.587 -0.4195  1.5422 -2.0297
  180DOPC  H13Y22124   5.012   0.533  14.672 -0.1898  0.6470  1.5610
  180DOPC  C31422125   4.808   0.529  14.747 -0.2118 -0.0514  0.0065
  180DOPC  H14X22126   4.778   0.634  14.766 -2.7411 -0.6981  0.0326
  180DOPC  H14Y22127   4.714   0.484  14.707 -0.0962 -2.2716  1.9982
  180DOPC  C31522128   4.854   0.447  14.867  0.5273  0.1715 -0.0150
  180DOPC  H15X22129   4.955   0.478  14.900  0.8151 -0.1527 -0.5810
  180DOPC  H15Y22130   4.865   0.338  14.845  2.7970  0.4939 -0.7230
  180DOPC  C31622131   4.754   0.465  14.987  0.0067 -0.1137  0.3121
  180DOPC  H16X22132   4.778   0.561  15.036 -2.6602  0.9057 -0.2095
  180DOPC  H16Y22133   4.649   0.471  14.951 -0.2945 -0.9771  1.0145
  180DOPC  C31722134   4.768   0.354  15.082 -0.4040  0.0925  0.0036
  180DOPC  H17X22135   4.748   0.255  15.034 -0.8587  0.1029  0.1637
  180DOPC  H17Y22136   4.870   0.352  15.127 -0.9964  1.8161  1.5107
  180DOPC  C31822137   4.672   0.364  15.202 -0.7335 -0.3740 -0.1788
  180DOPC  H18X22138   4.702   0.294  15.283  2.9960  1.2249  0.0415
  180DOPC  H18Y22139   4.679   0.463  15.252  2.4699 -1.4192  1.7722
  180DOPC  H18Z22140   4.571   0.349  15.159 -0.3100  2.2655 -2.3991
  181DOPC     N22141   6.353   5.981  13.129 -0.0435 -0.2272  0.3979
  181DOPC   C1222142   6.359   6.132  13.110  0.4894  0.3653 -0.5756
  181DOPC  H12A22143   6.374   6.178  13.207 -1.5416  0.3932 -0.2310
  181DOPC  H12B22144   6.259   6.169  13.091  0.4890  0.9095  0.4598
  181DOPC   C1322145   6.493   5.920  13.128  0.5715  0.1923  0.0457
  181DOPC  H13A22146   6.550   6.004  13.090  0.2076  2.3865  3.7865
  181DOPC  H13B22147   6.532   5.893  13.225  2.2840 -0.6605 -0.8498
  181DOPC  H13C22148   6.502   5.826  13.077 -0.4127 -1.6149  2.9681
  181DOPC   C1422149   6.278   5.910  13.016 -0.3162  0.6026 -0.4533
  181DOPC  H14A22150   6.179   5.952  13.007  1.4910  5.1728 -2.3174
  181DOPC  H14B22151   6.328   5.914  12.920  1.2662 -2.2370  0.1407
  181DOPC  H14C22152   6.273   5.805  13.039  0.2627  0.0440 -2.6035
  181DOPC   C1522153   6.278   5.944  13.253 -0.1457 -0.2971 -0.2322
  181DOPC  H15A22154   6.190   6.006  13.252  0.3113  0.5149  2.5879
  181DOPC  H15B22155   6.342   5.948  13.340 -1.8349 -1.5563  1.1371
  181DOPC  H15C22156   6.249   5.840  13.248  1.6966 -0.8204 -1.1783
  181DOPC   C1122157   6.449   6.197  13.005 -0.0179  0.8118  0.4889
  181DOPC  H11A22158   6.431   6.146  12.909  1.7192  1.2889 -0.1331
  181DOPC  H11B22159   6.419   6.302  12.984 -0.0987  0.8214  0.6492
  181DOPC     P22160   6.673   6.296  13.099 -0.1957  0.3864 -0.2415
  181DOPC   O1322161   6.651   6.423  13.030  0.4956 -0.3249  0.5126
  181DOPC   O1422162   6.811   6.250  13.106 -0.0222 -0.0460 -0.0707
  181DOPC   O1222163   6.587   6.181  13.032 -0.5962 -0.1580  0.4538
  181DOPC   O1122164   6.608   6.312  13.244 -0.2439  0.0751 -0.1661
  181DOPC    C122165   6.613   6.213  13.346 -0.4766  0.2058 -0.7745
  181DOPC    HA22166   6.702   6.236  13.408 -0.2932 -2.1456 -0.0742
  181DOPC    HB22167   6.630   6.110  13.309 -2.5781 -0.0775 -1.0922
  181DOPC    C222168   6.492   6.217  13.440  0.2493 -0.0627  0.0633
  181DOPC    HS22169   6.402   6.191  13.380  0.0676  1.1184 -0.1932
  181DOPC   O2122170   6.476   6.342  13.507  0.7083 -1.1827  0.3526
  181DOPC   C2122171   6.417   6.442  13.435 -0.1492 -0.0345 -0.2934
  181DOPC   O2222172   6.382   6.443  13.321  0.0624  0.0153  0.4116
  181DOPC   C2222173   6.395   6.558  13.531  0.2547 -0.7319  0.2181
  181DOPC   H2R22174   6.484   6.624  13.522 -0.8855  0.7152 -0.9571
  181DOPC   H2S22175   6.401   6.519  13.635 -0.2075 -0.2988  0.4092
  181DOPC    C322176   6.490   6.100  13.545 -0.5388 -0.2670 -0.1989
  181DOPC    HX22177   6.596   6.100  13.576 -0.6285 -0.6456  0.1058
  181DOPC    HY22178   6.469   6.002  13.497 -1.6174  0.1963 -0.7188
  181DOPC   O3122179   6.402   6.127  13.662 -0.1384 -0.1806  0.1029
  181DOPC   C3122180   6.463   6.132  13.781  0.0057 -1.0252  0.2344
  181DOPC   O3222181   6.588   6.129  13.807  0.7229 -0.1211  0.2070
  181DOPC   C3222182   6.355   6.189  13.876 -0.3786 -0.5836  0.1664
  181DOPC   H2X22183   6.322   6.286  13.832  1.7030 -0.8960 -2.2882
  181DOPC   H2Y22184   6.269   6.121  13.893 -1.6047  1.4101  2.6314
  181DOPC   C2322185   6.273   6.643  13.495  0.1826 -0.1066 -0.1089
  181DOPC   H3R22186   6.288   6.681  13.392  2.8448 -1.1685 -0.2119
  181DOPC   H3S22187   6.281   6.733  13.560  0.8090  0.3146 -0.7463
  181DOPC   C2422188   6.138   6.564  13.507 -0.5926 -0.5855  0.0939
  181DOPC   H4R22189   6.135   6.493  13.422  0.1954  0.0167 -0.4467
  181DOPC   H4S22190   6.055   6.633  13.481 -0.5260 -0.9215 -1.0401
  181DOPC   C2522191   6.112   6.513  13.653 -0.1571 -0.5045  0.3216
  181DOPC   H5R22192   6.191   6.439  13.679  0.7325  0.0997 -0.6156
  181DOPC   H5S22193   6.020   6.450  13.651  1.1298 -2.4770 -2.3162
  181DOPC   C2622194   6.107   6.627  13.757 -0.5619  0.6767  0.4566
  181DOPC   H6R22195   6.016   6.689  13.749  0.0728  1.8666  2.0021
  181DOPC   H6S22196   6.192   6.696  13.772  0.9826 -0.8783 -0.7478
  181DOPC   C2722197   6.099   6.563  13.895  0.4872  0.0452  0.0347
  181DOPC   H7R22198   6.192   6.504  13.906 -0.2579 -0.9992  0.9705
  181DOPC   H7S22199   6.024   6.480  13.891  0.2098  0.1272  2.1283
  181DOPC   C2822200   6.076   6.650  14.016  0.5726 -0.2334  0.7019
  181DOPC   H8R22201   5.980   6.705  14.009  0.5849 -0.0343  1.8325
  181DOPC   H8S22202   6.149   6.732  13.999 -0.5292  0.8936  1.2736
  181DOPC   C2922203   6.086   6.585  14.153 -0.1320 -0.1157  0.8964
  181DOPC   H9R22204   6.187   6.577  14.197  0.0292 -1.2736  0.3579
  181DOPC  C21022205   5.985   6.523  14.218 -0.1895 -0.4640  0.4395
  181DOPC  H10R22206   6.014   6.495  14.320  0.3656 -0.4309  0.2955
  181DOPC  C21122207   5.841   6.520  14.184 -0.1419  0.1061  0.2905
  181DOPC  H11R22208   5.811   6.417  14.154  0.1726  0.5388 -1.6304
  181DOPC  H11S22209   5.817   6.585  14.097 -0.8773  0.5295  0.8001
  181DOPC  C21222210   5.754   6.577  14.297  0.0650 -0.0928 -0.7844
  181DOPC  H12R22211   5.754   6.524  14.395 -2.0780  2.0968  0.5128
  181DOPC  H12S22212   5.646   6.572  14.270  0.9019 -2.6855 -4.3019
  181DOPC  C21322213   5.787   6.726  14.338  0.4284  0.1615  0.9197
  181DOPC  H13R22214   5.773   6.788  14.247  2.4095 -0.7299 -0.0439
  181DOPC  H13S22215   5.896   6.732  14.359  0.6107 -0.9654  0.3768
  181DOPC  C21422216   5.703   6.788  14.452  0.3282 -0.6956  0.3055
  181DOPC  H14R22217   5.595   6.762  14.440 -0.2377  0.4314  2.3981
  181DOPC  H14S22218   5.718   6.897  14.436 -1.4263 -0.6277 -1.1612
  181DOPC  C21522219   5.732   6.740  14.590  0.9830 -0.2360 -0.4172
  181DOPC  H15R22220   5.839   6.758  14.613  0.6525  1.2148  0.0532
  181DOPC  H15S22221   5.706   6.633  14.603 -1.9509  0.4354 -0.0591
  181DOPC  C21622222   5.657   6.824  14.696  0.0144  0.0727  0.2036
  181DOPC  H16R22223   5.556   6.847  14.655 -0.0884  0.2920  0.5722
  181DOPC  H16S22224   5.708   6.922  14.701 -0.4212  0.3891 -1.2150
  181DOPC  C21722225   5.660   6.763  14.831  0.2524 -0.2679 -0.8177
  181DOPC  H17R22226   5.612   6.833  14.903 -2.7738 -1.4364 -1.5104
  181DOPC  H17S22227   5.762   6.735  14.864  0.7705  0.0082 -2.1272
  181DOPC  C21822228   5.579   6.636  14.843  0.2412  0.1591 -0.0490
  181DOPC  H18R22229   5.480   6.652  14.795 -1.3813 -2.0614  2.2609
  181DOPC  H18S22230   5.562   6.598  14.946  0.7348  1.5527  0.5733
  181DOPC  H18T22231   5.629   6.554  14.787  1.0651  0.8393 -0.3306
  181DOPC   C3322232   6.428   6.246  14.005  0.2347  0.1399 -0.1192
  181DOPC   H3X22233   6.502   6.324  13.977  0.4570 -0.1743 -0.4198
  181DOPC   H3Y22234   6.493   6.170  14.053 -2.6239 -2.0594  0.5246
  181DOPC   C3422235   6.331   6.295  14.111 -0.3391  0.4159 -0.1864
  181DOPC   H4X22236   6.259   6.213  14.126  2.0838 -1.7490  0.2752
  181DOPC   H4Y22237   6.283   6.388  14.071  1.4541 -0.1259 -4.1383
  181DOPC   C3522238   6.401   6.316  14.250 -0.1690 -0.4426 -0.0968
  181DOPC   H5X22239   6.453   6.413  14.234 -0.2875 -0.6691 -1.9918
  181DOPC   H5Y22240   6.473   6.237  14.279 -1.5454 -1.5201  0.5258
  181DOPC   C3622241   6.309   6.347  14.373 -0.5923  0.5444 -0.4405
  181DOPC   H6X22242   6.235   6.420  14.335 -1.2240  0.8293  1.2486
  181DOPC   H6Y22243   6.261   6.251  14.399  2.8424 -1.5076 -1.0423
  181DOPC   C3722244   6.383   6.412  14.498  0.4991  0.3522 -0.7531
  181DOPC   H7X22245   6.456   6.341  14.542 -0.3838  1.3807  2.6688
  181DOPC   H7Y22246   6.441   6.499  14.461  0.0539  1.3902  0.8828
  181DOPC   C3822247   6.287   6.454  14.611  0.7071  0.0152 -0.3456
  181DOPC   H8X22248   6.360   6.486  14.688  0.1393 -0.1718  0.2909
  181DOPC   H8Y22249   6.242   6.359  14.648 -0.2354  0.2751 -0.8059
  181DOPC   C3922250   6.172   6.547  14.584 -0.9551  0.3370  0.0105
  181DOPC   H9X22251   6.114   6.519  14.495 -0.2758 -0.5439 -0.1658
  181DOPC  C31022252   6.143   6.662  14.645 -0.1538 -0.2186  0.3429
  181DOPC  H10X22253   6.050   6.710  14.612 -0.5285 -2.3131 -1.9437
  181DOPC  C31122254   6.215   6.720  14.760 -1.0935 -0.0300  0.1105
  181DOPC  H11X22255   6.223   6.830  14.747  0.5873 -0.3051 -1.5494
  181DOPC  H11Y22256   6.321   6.688  14.770 -0.7363  0.8216 -0.7901
  181DOPC  C31222257   6.132   6.682  14.888 -0.0026 -0.1725 -0.3085
  181DOPC  H12X22258   6.148   6.573  14.895  0.5592 -0.0133  1.2306
  181DOPC  H12Y22259   6.027   6.714  14.873 -0.5309 -1.3548  0.7479
  181DOPC  C31322260   6.170   6.749  15.021 -0.3856 -0.2815  1.0214
  181DOPC  H13X22261   6.272   6.708  15.036 -0.3337 -0.3621  0.4408
  181DOPC  H13Y22262   6.179   6.860  15.018  0.5149 -0.3378 -3.0210
  181DOPC  C31422263   6.074   6.704  15.127  0.7279 -0.1768 -0.0980
  181DOPC  H14X22264   5.972   6.746  15.116  0.4386 -0.5596  1.0176
  181DOPC  H14Y22265   6.064   6.593  15.134  0.8614 -0.1202  1.1698
  181DOPC  C31522266   6.122   6.738  15.267  0.0119  0.4493  0.3720
  181DOPC  H15X22267   6.138   6.848  15.277 -1.6482  0.6014  1.6623
  181DOPC  H15Y22268   6.218   6.683  15.276 -0.6984 -1.0440 -0.8908
  181DOPC  C31622269   6.032   6.711  15.385  0.3852  0.0456 -0.2614
  181DOPC  H16X22270   5.950   6.787  15.394 -1.2527 -1.4914 -1.5406
  181DOPC  H16Y22271   5.993   6.607  15.380  0.5801  0.0401 -2.9306
  181DOPC  C31722272   6.103   6.737  15.519 -0.1983 -0.1760 -0.3591
  181DOPC  H17X22273   6.178   6.660  15.548 -1.2042 -0.5424  1.4370
  181DOPC  H17Y22274   6.160   6.831  15.500 -0.6744  0.2239  0.1518
  181DOPC  C31822275   6.008   6.752  15.639 -0.1021 -0.1579  0.0393
  181DOPC  H18X22276   6.056   6.759  15.739 -1.1293 -0.6414  0.5744
  181DOPC  H18Y22277   5.952   6.847  15.628 -0.9814 -0.7463 -0.7291
  181DOPC  H18Z22278   5.946   6.661  15.651  0.0234 -0.5991 -2.2181
  182DOPC     N22279   1.050   5.687  12.999 -0.7326 -0.1169 -0.2835
  182DOPC   C1222280   1.122   5.690  13.135  0.2108  0.2022  0.8362
  182DOPC  H12A22281   1.085   5.776  13.190 -1.4309  0.3059 -0.3610
  182DOPC  H12B22282   1.226   5.711  13.112 -0.6694  0.5285 -3.7616
  182DOPC   C1322283   0.901   5.665  13.021 -0.2876  0.2320 -0.0949
  182DOPC  H13A22284   0.883   5.569  13.066 -0.0941  0.1974 -0.0904
  182DOPC  H13B22285   0.868   5.742  13.090 -0.2836 -0.7530  1.0251
  182DOPC  H13C22286   0.845   5.674  12.929 -0.9869 -0.6299  0.2298
  182DOPC   C1422287   1.093   5.574  12.910 -0.0778 -0.1830 -0.3060
  182DOPC  H14A22288   1.181   5.607  12.858  0.8809 -0.9883  0.7563
  182DOPC  H14B22289   1.108   5.483  12.966  0.9298  1.3652  2.1410
  182DOPC  H14C22290   1.020   5.544  12.836 -0.1009 -2.7946  0.6606
  182DOPC   C1522291   1.072   5.814  12.923  0.0740 -0.2515  0.0827
  182DOPC  H15A22292   1.031   5.791  12.826  0.8285 -0.1229 -0.2756
  182DOPC  H15B22293   1.173   5.847  12.905  0.5442 -2.0722 -0.7561
  182DOPC  H15C22294   1.007   5.894  12.955  0.4994  0.4390 -0.7424
  182DOPC   C1122295   1.122   5.558  13.214  0.0189 -0.5458 -0.1585
  182DOPC  H11A22296   1.149   5.594  13.315 -1.4704  1.5502 -0.4485
  182DOPC  H11B22297   1.018   5.521  13.220 -0.3203  0.2896 -0.6398
  182DOPC     P22298   1.369   5.478  13.161  0.1531  0.0102  0.0277
  182DOPC   O1322299   1.415   5.615  13.138  0.1337 -0.3694 -0.1142
  182DOPC   O1422300   1.429   5.377  13.071  0.4491 -0.3062  0.4046
  182DOPC   O1222301   1.211   5.463  13.151 -0.1122  0.1867  0.0150
  182DOPC   O1122302   1.386   5.444  13.314 -0.2878  0.2140  0.3777
  182DOPC    C122303   1.354   5.312  13.366 -0.1618  0.3680  0.6008
  182DOPC    HA22304   1.412   5.229  13.319  1.2900  1.0707  1.0881
  182DOPC    HB22305   1.251   5.281  13.340  0.2232 -0.6177  0.1926
  182DOPC    C222306   1.383   5.312  13.520  0.6903  0.4739 -0.1656
  182DOPC    HS22307   1.337   5.220  13.564  0.2964  0.3071 -0.8999
  182DOPC   O2122308   1.327   5.429  13.581 -0.9076 -0.0307  0.5486
  182DOPC   C2122309   1.199   5.448  13.570 -0.1106 -0.5062  0.1960
  182DOPC   O2222310   1.108   5.374  13.533  0.1621 -0.4718 -0.5813
  182DOPC   C2222311   1.166   5.587  13.620  0.1193  0.3748 -0.0437
  182DOPC   H2R22312   1.056   5.606  13.614  0.1885  1.5671  1.6232
  182DOPC   H2S22313   1.219   5.657  13.552  0.6987  0.0800  0.1012
  182DOPC    C322314   1.532   5.304  13.546 -0.1802 -0.1976  0.4719
  182DOPC    HX22315   1.583   5.387  13.494  0.0065 -2.6708 -3.8327
  182DOPC    HY22316   1.565   5.212  13.492  0.6510 -0.5776  1.5988
  182DOPC   O3122317   1.556   5.301  13.685 -0.2938 -0.3719 -0.6361
  182DOPC   C3122318   1.573   5.407  13.761 -0.2345 -0.5593  0.2605
  182DOPC   O3222319   1.588   5.521  13.715  0.4257  0.2649  0.2335
  182DOPC   C3222320   1.573   5.368  13.917  0.5433 -0.6889  0.8739
  182DOPC   H2X22321   1.465   5.370  13.942 -0.2886 -1.2684 -2.2584
  182DOPC   H2Y22322   1.607   5.263  13.929 -2.0721 -1.7238  0.0305
  182DOPC   C2322323   1.200   5.608  13.767 -0.9146  1.0243 -0.0657
  182DOPC   H3R22324   1.191   5.716  13.793 -2.6503  1.4138 -2.0680
  182DOPC   H3S22325   1.304   5.583  13.797 -1.8856 -1.4899  1.5603
  182DOPC   C2422326   1.105   5.532  13.865 -0.1104 -1.2424 -0.5249
  182DOPC   H4R22327   1.088   5.434  13.816 -0.0788 -1.1765 -0.6670
  182DOPC   H4S22328   1.010   5.586  13.878  1.3345  1.0992  0.9268
  182DOPC   C2522329   1.154   5.502  14.006  0.0754  0.1407 -0.3350
  182DOPC   H5R22330   1.265   5.503  13.998 -0.0173  1.3722 -1.7014
  182DOPC   H5S22331   1.117   5.406  14.048  1.5287 -0.3280 -0.0818
  182DOPC   C2622332   1.106   5.608  14.108 -0.4506 -0.0445  0.1092
  182DOPC   H6R22333   0.997   5.587  14.113 -0.4008 -0.0455  1.7011
  182DOPC   H6S22334   1.128   5.710  14.070  0.9906  0.6048  2.4125
  182DOPC   C2722335   1.169   5.597  14.252  0.3478 -0.1581 -0.8805
  182DOPC   H7R22336   1.277   5.602  14.227  0.1249  0.2844 -1.8108
  182DOPC   H7S22337   1.151   5.494  14.291  0.5169  0.3204  0.5011
  182DOPC   C2822338   1.144   5.703  14.352  0.7542 -0.1968 -0.0355
  182DOPC   H8R22339   1.182   5.791  14.294  1.6191 -0.3047  0.3605
  182DOPC   H8S22340   1.207   5.690  14.442 -1.6629 -1.3755  1.5779
  182DOPC   C2922341   0.999   5.728  14.391  0.2248 -0.4148 -0.2481
  182DOPC   H9R22342   0.928   5.701  14.311 -0.3751 -0.9741  0.4678
  182DOPC  C21022343   0.948   5.780  14.504 -0.2460  0.3360 -0.3779
  182DOPC  H10R22344   0.840   5.762  14.515 -0.1019 -1.0054 -0.9953
  182DOPC  C21122345   1.020   5.823  14.629  0.6602 -0.5515 -0.2224
  182DOPC  H11R22346   0.996   5.924  14.669 -3.8285 -1.9233  1.1627
  182DOPC  H11S22347   1.131   5.814  14.620  0.8205  0.7252  0.2993
  182DOPC  C21222348   0.979   5.728  14.742  0.2253  0.6329  0.1232
  182DOPC  H12R22349   1.010   5.623  14.720  0.3257  0.3485  1.5516
  182DOPC  H12S22350   0.868   5.721  14.753  0.4690 -3.3348  1.5183
  182DOPC  C21322351   1.057   5.756  14.871 -0.2442 -0.1746 -0.0652
  182DOPC  H13R22352   1.068   5.866  14.881 -1.5320 -0.0225 -0.1516
  182DOPC  H13S22353   1.161   5.724  14.849 -0.1311 -0.9060  1.3635
  182DOPC  C21422354   1.007   5.684  14.994 -0.6293  0.4007 -0.5853
  182DOPC  H14R22355   1.061   5.587  14.991  0.0110  0.7685 -1.3507
  182DOPC  H14S22356   0.897   5.670  14.987 -0.8017  0.9522  0.8447
  182DOPC  C21522357   1.030   5.748  15.130 -0.0228 -0.4532  0.3068
  182DOPC  H15R22358   0.951   5.823  15.150  0.8340 -0.0605  2.4776
  182DOPC  H15S22359   1.125   5.805  15.121  1.0336 -2.1073  0.4967
  182DOPC  C21622360   1.047   5.648  15.246 -0.5811  0.4457  0.1515
  182DOPC  H16R22361   1.119   5.567  15.221 -1.3354 -0.1511 -0.1445
  182DOPC  H16S22362   0.948   5.600  15.263 -0.0157 -0.8073  0.0494
  182DOPC  C21722363   1.090   5.721  15.374  0.0525  0.0048  0.3276
  182DOPC  H17R22364   1.050   5.824  15.376  0.6337  0.2307  1.8759
  182DOPC  H17S22365   1.199   5.740  15.370 -0.4184  2.8885 -1.0161
  182DOPC  C21822366   1.044   5.644  15.495 -0.7919 -0.1745 -0.0708
  182DOPC  H18R22367   0.936   5.620  15.489 -0.6658 -1.1928  1.2551
  182DOPC  H18S22368   1.069   5.694  15.591  0.8105 -0.6205 -0.2284
  182DOPC  H18T22369   1.092   5.545  15.508  0.1317  0.2220 -0.4147
  182DOPC   C3322370   1.654   5.455  14.012 -0.0830  0.1885 -0.5342
  182DOPC   H3X22371   1.606   5.555  14.010 -1.2896 -0.3602  0.2209
  182DOPC   H3Y22372   1.754   5.471  13.965  0.1765  0.7384  0.1854
  182DOPC   C3422373   1.663   5.384  14.150 -0.2969  0.5525 -0.3898
  182DOPC   H4X22374   1.759   5.414  14.197  0.5144 -0.5289 -1.3116
  182DOPC   H4Y22375   1.663   5.274  14.134 -2.6053  0.5450 -0.7419
  182DOPC   C3522376   1.546   5.413  14.241  1.0107 -0.1590 -0.3563
  182DOPC   H5X22377   1.458   5.378  14.182  1.2155 -1.5689  0.1555
  182DOPC   H5Y22378   1.527   5.522  14.250 -0.6337 -0.5842  2.9768
  182DOPC   C3622379   1.561   5.359  14.381  0.8108 -0.4643 -0.5589
  182DOPC   H6X22380   1.567   5.248  14.381 -1.9861 -0.6703 -0.1265
  182DOPC   H6Y22381   1.660   5.390  14.420 -0.0631 -0.2504  1.5999
  182DOPC   C3722382   1.447   5.399  14.477  0.1828 -0.4550  0.5481
  182DOPC   H7X22383   1.436   5.510  14.469  0.1197 -0.5278 -0.4856
  182DOPC   H7Y22384   1.357   5.354  14.430  1.7688 -1.4241 -1.7085
  182DOPC   C3822385   1.458   5.366  14.624 -0.3120  0.0419 -0.2617
  182DOPC   H8X22386   1.474   5.256  14.616 -0.8813  0.0203 -1.2684
  182DOPC   H8Y22387   1.361   5.386  14.675  1.0540 -2.9543  4.1416
  182DOPC   C3922388   1.571   5.433  14.699 -0.0733  0.5266  0.9967
  182DOPC   H9X22389   1.580   5.542  14.688  2.0487  0.2137 -1.1546
  182DOPC  C31022390   1.667   5.376  14.768  0.2851  0.3639 -0.3092
  182DOPC  H10X22391   1.733   5.445  14.822 -2.1010  1.6007  1.2226
  182DOPC  C31122392   1.681   5.229  14.810  0.1366 -0.4031  0.6531
  182DOPC  H11X22393   1.755   5.169  14.752  0.6161 -0.3148  1.1717
  182DOPC  H11Y22394   1.590   5.169  14.790 -0.4500  1.2201 -2.0267
  182DOPC  C31222395   1.729   5.221  14.956 -0.7470  0.0314 -0.0040
  182DOPC  H12X22396   1.659   5.282  15.018  0.0603 -0.5220  1.4993
  182DOPC  H12Y22397   1.830   5.266  14.947  0.0802 -1.9907 -1.5731
  182DOPC  C31322398   1.736   5.078  15.015 -1.0936  0.3148  0.1121
  182DOPC  H13X22399   1.637   5.029  15.000 -1.8850  1.9375 -0.1923
  182DOPC  H13Y22400   1.798   5.008  14.955 -0.8671  0.0613  0.6386
  182DOPC  C31422401   1.785   5.078  15.158 -0.0657 -0.4700 -0.4805
  182DOPC  H14X22402   1.885   5.126  15.148  0.7222 -2.3072 -2.0185
  182DOPC  H14Y22403   1.724   5.141  15.227  1.3057  0.0838  0.2609
  182DOPC  C31522404   1.806   4.937  15.220 -0.1612 -0.2256  0.6365
  182DOPC  H15X22405   1.872   4.873  15.157 -0.8545 -0.9156  0.5977
  182DOPC  H15Y22406   1.703   4.895  15.221 -0.8553  1.2773 -1.1721
  182DOPC  C31622407   1.873   4.945  15.352  0.0079 -0.1395  0.0191
  182DOPC  H16X22408   1.963   5.008  15.346  0.2263 -0.0170  2.9601
  182DOPC  H16Y22409   1.798   4.999  15.414 -0.0179  1.3585 -1.2703
  182DOPC  C31722410   1.899   4.810  15.417 -0.1014 -0.0351 -0.0597
  182DOPC  H17X22411   1.974   4.753  15.358  0.5777 -0.2761  0.9924
  182DOPC  H17Y22412   1.938   4.831  15.519 -2.4538 -0.7164  1.0654
  182DOPC  C31822413   1.769   4.723  15.433 -0.5728  0.6337 -0.7746
  182DOPC  H18X22414   1.698   4.721  15.348 -2.3921  1.1642  0.6653
  182DOPC  H18Y22415   1.806   4.625  15.469  1.0659  2.5319  3.4780
  182DOPC  H18Z22416   1.712   4.762  15.520  1.1376  2.0034 -0.1883
  183DOPC     N22417   0.604   2.881  13.048 -0.3919  0.0691 -0.0958
  183DOPC   C1222418   0.624   2.737  13.018 -0.1692 -0.0613  0.4853
  183DOPC  H12A22419   0.721   2.722  12.974  0.2930 -0.0931  1.4871
  183DOPC  H12B22420   0.549   2.715  12.944  1.2560 -0.7562 -0.8010
  183DOPC   C1322421   0.639   2.964  12.935 -0.0453  0.3799  0.2501
  183DOPC  H13A22422   0.744   2.961  12.912  0.1793  1.0288  1.1523
  183DOPC  H13B22423   0.580   2.938  12.847  0.1228  0.0226  0.2425
  183DOPC  H13C22424   0.621   3.069  12.950  0.5725  0.6344 -0.6693
  183DOPC   C1422425   0.698   2.922  13.149 -0.2588  0.8420 -0.2407
  183DOPC  H14A22426   0.683   2.867  13.241 -1.5159  1.3580 -0.1029
  183DOPC  H14B22427   0.802   2.909  13.123 -0.1898  0.5532  0.1709
  183DOPC  H14C22428   0.671   3.020  13.187 -3.1796 -0.1933  0.6368
  183DOPC   C1522429   0.468   2.909  13.090 -0.5365  0.3285  0.6027
  183DOPC  H15A22430   0.434   2.822  13.144 -2.0814  1.4465  1.4953
  183DOPC  H15B22431   0.397   2.921  13.009  0.0815  1.9286  0.2605
  183DOPC  H15C22432   0.459   2.997  13.152 -3.5423 -0.4055  1.3880
  183DOPC   C1122433   0.602   2.637  13.128 -0.5766 -0.8879 -0.5686
  183DOPC  H11A22434   0.658   2.546  13.096  1.3550  0.8069 -2.2935
  183DOPC  H11B22435   0.649   2.683  13.217  2.7073 -2.1195 -1.5259
  183DOPC     P22436   0.390   2.520  13.066  0.1264 -0.1421  0.0415
  183DOPC   O1322437   0.466   2.400  13.032 -0.6855  0.0324  0.4495
  183DOPC   O1422438   0.346   2.596  12.945  0.2128 -0.5221 -0.2351
  183DOPC   O1222439   0.471   2.612  13.157  0.7305  0.5526 -0.4169
  183DOPC   O1122440   0.262   2.483  13.145  0.0158 -0.4272  0.1043
  183DOPC    C122441   0.143   2.562  13.148 -0.3011  0.3368  0.4547
  183DOPC    HA22442   0.070   2.490  13.193 -0.3084 -1.1360 -1.7321
  183DOPC    HB22443   0.100   2.590  13.050 -0.1097 -0.7700  0.0334
  183DOPC    C222444   0.153   2.687  13.251 -0.0113 -0.0818 -0.0084
  183DOPC    HS22445   0.239   2.746  13.212 -0.4916 -0.5200 -1.8069
  183DOPC   O2122446   0.172   2.628  13.379 -0.2611 -0.0556 -1.2754
  183DOPC   C2122447   0.257   2.695  13.462  0.4092  0.0845 -0.3356
  183DOPC   O2222448   0.306   2.804  13.436  0.0056  0.1786 -0.1610
  183DOPC   C2222449   0.277   2.619  13.587 -0.2501 -0.2342 -0.9568
  183DOPC   H2R22450   0.320   2.521  13.557 -1.8137 -0.9104 -1.0682
  183DOPC   H2S22451   0.181   2.593  13.634  0.0298 -0.6239 -0.5937
  183DOPC    C322452   0.026   2.777  13.233  0.1892  0.8977  0.5113
  183DOPC    HX22453  -0.064   2.713  13.242 -1.8932  3.7918  1.7483
  183DOPC    HY22454   0.040   2.820  13.132  0.6299 -4.5768 -2.1413
  183DOPC   O3122455   0.006   2.870  13.339 -0.7767  0.1702  0.6356
  183DOPC   C3122456   0.082   2.983  13.333 -0.3798  0.4035  0.4853
  183DOPC   O3222457   0.153   3.009  13.235  0.1382 -0.0824  0.8823
  183DOPC   C3222458   0.081   3.066  13.457  0.0356 -0.9571  1.1845
  183DOPC   H2X22459   0.159   3.144  13.444 -1.2660  0.2302  0.3357
  183DOPC   H2Y22460  -0.013   3.125  13.462 -0.3116 -0.9093 -2.7448
  183DOPC   C2322461   0.373   2.691  13.694  0.3618 -0.8871 -0.0962
  183DOPC   H3R22462   0.329   2.793  13.705 -0.1662 -1.1219  0.0235
  183DOPC   H3S22463   0.477   2.693  13.656 -0.5422  0.8608 -2.7814
  183DOPC   C2422464   0.354   2.616  13.826  0.3179 -0.3786 -0.1098
  183DOPC   H4R22465   0.382   2.509  13.824  0.4871 -0.4402  2.3294
  183DOPC   H4S22466   0.246   2.622  13.855 -0.0726  1.0769 -1.7357
  183DOPC   C2522467   0.436   2.687  13.935  1.0256  0.6710 -0.1795
  183DOPC   H5R22468   0.401   2.792  13.938  1.1115  0.7499 -1.4047
  183DOPC   H5S22469   0.544   2.680  13.910  0.6299 -2.0269 -1.4751
  183DOPC   C2622470   0.407   2.611  14.064  0.3621  0.2344 -1.0415
  183DOPC   H6R22471   0.460   2.513  14.056 -1.0298 -1.2017  3.7667
  183DOPC   H6S22472   0.299   2.592  14.079  0.6575  0.3746  1.7224
  183DOPC   C2722473   0.450   2.686  14.193 -0.1897  0.4975 -0.0742
  183DOPC   H7R22474   0.433   2.795  14.176  0.9314  0.3364 -2.6915
  183DOPC   H7S22475   0.559   2.677  14.208 -0.3409  1.5381  2.0644
  183DOPC   C2822476   0.387   2.650  14.324  0.2263  0.5738  0.0895
  183DOPC   H8R22477   0.409   2.544  14.348 -0.9972  0.0633 -0.9279
  183DOPC   H8S22478   0.276   2.649  14.316  0.2015 -0.5289  0.3235
  183DOPC   C2922479   0.435   2.743  14.434 -0.3227  0.3557  0.4018
  183DOPC   H9R22480   0.487   2.831  14.393 -1.2238  1.7679  2.1191
  183DOPC  C21022481   0.452   2.717  14.568  0.1533  0.0812 -0.4381
  183DOPC  H10R22482   0.486   2.805  14.625 -1.2753 -0.1094  0.7453
  183DOPC  C21122483   0.406   2.598  14.651 -0.3709 -0.5053 -0.1956
  183DOPC  H11R22484   0.440   2.494  14.630  0.5759 -0.6103  1.7025
  183DOPC  H11S22485   0.295   2.596  14.643 -0.2680 -0.1382 -2.6969
  183DOPC  C21222486   0.469   2.618  14.789 -0.3153 -0.2803  0.0898
  183DOPC  H12R22487   0.438   2.713  14.838  0.1010 -1.2731  2.4521
  183DOPC  H12S22488   0.577   2.632  14.768 -0.3318  0.4212  0.4399
  183DOPC  C21322489   0.439   2.515  14.894  0.0771  0.3953 -0.6157
  183DOPC  H13R22490   0.477   2.420  14.851 -1.6225 -1.5686  1.8987
  183DOPC  H13S22491   0.330   2.501  14.914 -0.3815  0.9377 -2.4750
  183DOPC  C21422492   0.509   2.538  15.028 -0.4451  0.1263 -0.0552
  183DOPC  H14R22493   0.453   2.617  15.082  0.9865  0.9155  0.3558
  183DOPC  H14S22494   0.611   2.575  15.001  0.4445 -1.2822  1.1811
  183DOPC  C21522495   0.504   2.420  15.116 -0.1734  0.1408 -0.6293
  183DOPC  H15R22496   0.557   2.337  15.065  2.0516  2.5678 -2.5220
  183DOPC  H15S22497   0.398   2.398  15.142 -0.5347  1.6720 -0.6857
  183DOPC  C21622498   0.574   2.448  15.249 -0.6221  0.1885 -0.8003
  183DOPC  H16R22499   0.526   2.538  15.292  0.4990  0.2497  0.4026
  183DOPC  H16S22500   0.680   2.467  15.222 -0.4198 -1.4463 -1.2670
  183DOPC  C21722501   0.571   2.327  15.344  0.3662 -0.4304 -0.8091
  183DOPC  H17R22502   0.641   2.250  15.304  2.0744  1.3253 -1.3692
  183DOPC  H17S22503   0.472   2.276  15.353 -0.6343  1.3719 -1.1914
  183DOPC  C21822504   0.621   2.351  15.483  0.4727 -0.1829 -0.2969
  183DOPC  H18R22505   0.549   2.422  15.529  1.0655  0.7812 -0.8156
  183DOPC  H18S22506   0.723   2.396  15.478 -0.2492  1.5634 -0.1745
  183DOPC  H18T22507   0.609   2.258  15.542 -2.9711 -0.9522 -1.9642
  183DOPC   C3322508   0.112   2.994  13.591 -0.3809  0.2585 -0.0596
  183DOPC   H3X22509   0.213   2.948  13.587 -0.9362 -1.3326  1.9558
  183DOPC   H3Y22510   0.046   2.904  13.594 -0.5978  0.1484 -3.6711
  183DOPC   C3422511   0.112   3.086  13.713  0.5039 -0.5368 -0.2693
  183DOPC   H4X22512   0.016   3.138  13.732  1.2903  1.3516 -1.2823
  183DOPC   H4Y22513   0.185   3.163  13.681 -1.6307  2.4513  1.5226
  183DOPC   C3522514   0.158   3.019  13.843 -0.0588 -0.9508 -0.1807
  183DOPC   H5X22515   0.233   2.938  13.826 -0.8626 -1.8406  0.3820
  183DOPC   H5Y22516   0.068   2.977  13.894 -1.8990  1.8143 -0.9399
  183DOPC   C3622517   0.230   3.126  13.933  0.6871 -0.1924  0.2329
  183DOPC   H6X22518   0.332   3.149  13.894  1.9567 -1.5687  2.4934
  183DOPC   H6Y22519   0.165   3.213  13.955  0.7487  0.6008 -2.3995
  183DOPC   C3722520   0.262   3.074  14.078  0.8055  0.2289 -0.1447
  183DOPC   H7X22521   0.349   3.004  14.073  3.5186  2.6809  4.7575
  183DOPC   H7Y22522   0.296   3.167  14.128  3.1243 -0.5338 -0.1742
  183DOPC   C3822523   0.170   2.995  14.172 -0.0269  0.3806  0.0275
  183DOPC   H8X22524   0.221   2.940  14.253 -0.5575  0.1189  0.1909
  183DOPC   H8Y22525   0.122   2.916  14.110 -3.0345  2.3207 -0.3095
  183DOPC   C3922526   0.064   3.087  14.222  0.2386  0.0720 -0.6106
  183DOPC   H9X22527   0.023   3.145  14.139  0.4078  0.4301 -0.4440
  183DOPC  C31022528   0.014   3.117  14.346 -0.6494 -0.7747 -0.5361
  183DOPC  H10X22529  -0.066   3.193  14.352  1.3782  1.3230  1.5985
  183DOPC  C31122530   0.040   3.040  14.474 -0.5167 -0.3439  0.2165
  183DOPC  H11X22531   0.068   2.932  14.469 -0.1508 -0.2879  0.9381
  183DOPC  H11Y22532  -0.051   3.041  14.538 -1.2657 -1.8893 -0.7693
  183DOPC  C31222533   0.156   3.118  14.547  0.7154 -0.1622  0.1287
  183DOPC  H12X22534   0.123   3.220  14.578  0.6060 -0.1200 -0.1252
  183DOPC  H12Y22535   0.241   3.129  14.476 -0.4624  0.6409 -1.2314
  183DOPC  C31322536   0.187   3.048  14.683 -0.3530 -0.1052 -0.5800
  183DOPC  H13X22537   0.102   3.065  14.753 -0.2758  3.4602 -1.1574
  183DOPC  H13Y22538   0.184   2.940  14.658  0.6741 -0.1963 -0.3547
  183DOPC  C31422539   0.332   3.084  14.738 -0.1384  0.5248 -0.4505
  183DOPC  H14X22540   0.409   3.054  14.663  1.6879  1.3272  1.0035
  183DOPC  H14Y22541   0.327   3.193  14.759 -1.8142  0.0901  1.7822
  183DOPC  C31522542   0.373   3.016  14.878 -0.0657  0.1917  0.1267
  183DOPC  H15X22543   0.336   2.913  14.861 -1.1696  0.9268 -2.5354
  183DOPC  H15Y22544   0.328   3.070  14.964  0.9024  0.9537  0.1828
  183DOPC  C31622545   0.523   3.011  14.890 -0.6730 -0.1360 -0.0403
  183DOPC  H16X22546   0.561   2.965  14.796 -1.3148 -1.7387  0.4401
  183DOPC  H16Y22547   0.548   3.119  14.883 -1.5365 -0.0236 -1.9031
  183DOPC  C31722548   0.580   2.936  15.013  0.5092 -0.2438 -0.1297
  183DOPC  H17X22549   0.555   2.996  15.103 -2.2699  1.5678 -1.9367
  183DOPC  H17Y22550   0.537   2.834  15.019 -0.1422 -0.1943 -2.8149
  183DOPC  C31822551   0.731   2.923  15.007  0.8230 -0.3183 -0.2556
  183DOPC  H18X22552   0.775   3.024  15.017  1.1445 -0.5106  0.3245
  183DOPC  H18Y22553   0.758   2.878  15.105 -1.1502  3.5223  2.2714
  183DOPC  H18Z22554   0.767   2.858  14.924  0.6700  0.7844 -1.2057
  184DOPC     N22555   2.525   4.861  12.769  0.0034  0.1753  0.3949
  184DOPC   C1222556   2.635   4.835  12.874  0.5111 -0.2439 -0.5268
  184DOPC  H12A22557   2.594   4.879  12.963 -2.5445  1.6233 -2.6457
  184DOPC  H12B22558   2.721   4.892  12.842  0.2611 -0.4427 -1.6161
  184DOPC   C1322559   2.390   4.807  12.809 -0.0303 -0.2156 -0.6061
  184DOPC  H13A22560   2.398   4.703  12.839 -0.1683 -0.0814 -0.0939
  184DOPC  H13B22561   2.357   4.846  12.904 -0.3528 -0.5093 -0.5991
  184DOPC  H13C22562   2.307   4.816  12.740 -1.6645  3.2452  1.5595
  184DOPC   C1422563   2.556   4.802  12.633 -0.1650  0.4646 -0.2180
  184DOPC  H14A22564   2.648   4.843  12.596  0.2113 -1.0526 -1.0281
  184DOPC  H14B22565   2.576   4.697  12.641 -1.2473  0.2883  0.4331
  184DOPC  H14C22566   2.477   4.812  12.560  0.3214 -4.3356 -1.6955
  184DOPC   C1522567   2.509   5.008  12.756 -0.1869 -0.4733  0.7114
  184DOPC  H15A22568   2.441   5.023  12.674  0.3240  1.5890  0.5952
  184DOPC  H15B22569   2.603   5.055  12.732 -0.9237 -0.0809 -1.5835
  184DOPC  H15C22570   2.473   5.060  12.844 -1.4311 -0.6811  0.3445
  184DOPC   C1122571   2.665   4.691  12.893 -0.1434  0.2789  0.0191
  184DOPC  H11A22572   2.728   4.667  12.981  0.2998 -1.7356 -0.7923
  184DOPC  H11B22573   2.574   4.628  12.900  1.8822 -2.9819 -0.5168
  184DOPC     P22574   2.896   4.690  12.759 -0.3303  0.8017  0.3672
  184DOPC   O1322575   2.900   4.826  12.702 -0.1141 -0.3362 -0.2107
  184DOPC   O1422576   2.960   4.581  12.679  0.2835 -0.7149 -0.3763
  184DOPC   O1222577   2.743   4.648  12.777 -0.1326  0.1027 -0.4755
  184DOPC   O1122578   2.957   4.687  12.902 -0.0604  0.0354  0.0912
  184DOPC    C122579   2.965   4.563  12.969  0.8090  0.6273 -0.5229
  184DOPC    HA22580   3.032   4.494  12.914 -0.0635  0.3664 -1.2790
  184DOPC    HB22581   2.867   4.514  12.984  0.4593 -0.3624 -4.8238
  184DOPC    C222582   3.023   4.564  13.117 -0.1251 -0.7327 -0.3290
  184DOPC    HS22583   3.116   4.625  13.109 -1.5591  1.3681 -2.0654
  184DOPC   O2122584   3.045   4.425  13.150 -0.8844 -0.7093 -0.6170
  184DOPC   C2122585   3.145   4.395  13.225  0.3878  0.4577 -0.1336
  184DOPC   O2222586   3.230   4.471  13.266 -0.3253  0.0600  0.3467
  184DOPC   C2222587   3.136   4.241  13.263 -0.7727  0.2965 -0.8705
  184DOPC   H2R22588   3.241   4.207  13.276 -0.8173  0.4839  0.0350
  184DOPC   H2S22589   3.096   4.194  13.171  0.0576 -2.5955  0.1383
  184DOPC    C322590   2.942   4.636  13.227  0.9100  0.4437  0.1842
  184DOPC    HX22591   2.854   4.569  13.226  0.5886  0.8540  0.6037
  184DOPC    HY22592   2.905   4.730  13.181  0.9972  1.0680  1.3661
  184DOPC   O3122593   3.013   4.661  13.355 -0.2711  0.3044  0.2149
  184DOPC   C3122594   3.073   4.782  13.367 -0.2441  1.0966  1.0956
  184DOPC   O3222595   3.088   4.863  13.278  0.6842 -0.5494 -0.3274
  184DOPC   C3222596   3.138   4.799  13.498 -0.5095  0.4999  0.7275
  184DOPC   H2X22597   3.228   4.734  13.496 -0.4603  0.2852 -4.6680
  184DOPC   H2Y22598   3.165   4.906  13.509 -0.0040  0.4580 -0.0678
  184DOPC   C2322599   3.047   4.221  13.393  0.8859 -0.4934 -0.5682
  184DOPC   H3R22600   3.058   4.119  13.437 -0.0248  0.4015  1.9247
  184DOPC   H3S22601   2.939   4.221  13.365  0.8338 -2.1778 -0.5023
  184DOPC   C2422602   3.074   4.321  13.504 -0.1798 -0.0598 -0.6300
  184DOPC   H4R22603   2.993   4.320  13.579  0.8840  0.2032  0.5486
  184DOPC   H4S22604   3.085   4.425  13.469  0.4810  0.4762  1.0825
  184DOPC   C2522605   3.204   4.281  13.579  0.4606 -0.3283 -0.3663
  184DOPC   H5R22606   3.249   4.378  13.607  0.9428 -0.9137  0.9588
  184DOPC   H5S22607   3.266   4.220  13.509  0.6182 -0.6485  0.0458
  184DOPC   C2622608   3.167   4.200  13.707 -0.3373  0.0069 -0.1209
  184DOPC   H6R22609   3.256   4.139  13.734  0.5636  1.1990 -0.3100
  184DOPC   H6S22610   3.086   4.127  13.687 -0.2972 -0.7548  2.2031
  184DOPC   C2722611   3.129   4.280  13.833 -0.0683 -0.3959 -0.0579
  184DOPC   H7R22612   3.023   4.312  13.828  0.0957  0.3103  0.7356
  184DOPC   H7S22613   3.198   4.366  13.840  0.3085 -0.4840 -2.1117
  184DOPC   C2822614   3.138   4.194  13.965  0.6433 -0.1129  0.3555
  184DOPC   H8R22615   3.245   4.170  13.983  0.4412 -0.0316  1.7906
  184DOPC   H8S22616   3.084   4.102  13.934 -2.3849  1.9122 -0.8449
  184DOPC   C2922617   3.078   4.275  14.080  0.4197 -0.0182  0.0386
  184DOPC   H9R22618   2.980   4.318  14.053 -1.2909 -2.2885  2.1325
  184DOPC  C21022619   3.121   4.300  14.207  0.1434 -0.1769  0.5790
  184DOPC  H10R22620   3.070   4.372  14.273 -0.4130 -1.5878  1.7452
  184DOPC  C21122621   3.255   4.264  14.261 -0.2778  0.0658 -0.2018
  184DOPC  H11R22622   3.321   4.211  14.188  0.2920 -1.4772  1.3810
  184DOPC  H11S22623   3.240   4.197  14.348 -0.6768  0.5174  0.0756
  184DOPC  C21222624   3.314   4.386  14.325  0.3799  0.4357 -0.4086
  184DOPC  H12R22625   3.400   4.360  14.392 -0.0350  2.4919  1.0172
  184DOPC  H12S22626   3.249   4.435  14.400  1.3317  1.7113 -0.3757
  184DOPC  C21322627   3.358   4.499  14.232  0.7978  0.0443 -0.4960
  184DOPC  H13R22628   3.423   4.566  14.292  0.5075 -0.7551  0.7505
  184DOPC  H13S22629   3.267   4.555  14.202 -0.8971 -2.1206  0.3223
  184DOPC  C21422630   3.436   4.461  14.105 -0.0842  0.3892  0.5111
  184DOPC  H14R22631   3.378   4.410  14.025  0.5874  0.5473 -0.0949
  184DOPC  H14S22632   3.522   4.393  14.120  0.8438  1.6916  1.2657
  184DOPC  C21522633   3.504   4.583  14.033  0.0853 -0.3990 -1.2772
  184DOPC  H15R22634   3.575   4.610  14.114  1.1005 -0.2833 -2.1864
  184DOPC  H15S22635   3.423   4.660  14.027 -1.4231 -1.7081  0.9858
  184DOPC  C21622636   3.566   4.561  13.900  0.5205 -0.0844 -0.0463
  184DOPC  H16R22637   3.649   4.489  13.914 -2.1440 -3.3409  0.4129
  184DOPC  H16S22638   3.606   4.660  13.871  0.3630 -0.2069 -0.7074
  184DOPC  C21722639   3.463   4.513  13.785 -0.2907  0.5401 -0.2651
  184DOPC  H17R22640   3.364   4.562  13.796 -1.5399 -1.6340 -1.3593
  184DOPC  H17S22641   3.445   4.405  13.799 -0.4143  0.5327 -0.4705
  184DOPC  C21822642   3.510   4.547  13.645 -0.0422  0.0654 -0.0671
  184DOPC  H18R22643   3.508   4.658  13.640  1.1643  0.2100  1.7260
  184DOPC  H18S22644   3.451   4.494  13.567 -1.2509  2.1739 -0.6454
  184DOPC  H18T22645   3.616   4.518  13.627 -0.0887 -1.4630  1.7529
  184DOPC   C3322646   3.035   4.765  13.611 -0.1971 -0.2061 -0.6441
  184DOPC   H3X22647   2.979   4.670  13.596  0.1966 -0.4679 -0.4910
  184DOPC   H3Y22648   2.967   4.850  13.633 -1.9877 -0.7970 -3.4480
  184DOPC   C3422649   3.111   4.746  13.750  0.8322 -0.0303  1.1571
  184DOPC   H4X22650   3.187   4.827  13.757  1.4331 -0.2448 -1.7272
  184DOPC   H4Y22651   3.173   4.654  13.744  0.8643  0.0739 -0.6413
  184DOPC   C3522652   3.006   4.745  13.867  0.2036 -0.4539 -0.4556
  184DOPC   H5X22653   2.932   4.662  13.862 -2.0722  1.4751 -0.7407
  184DOPC   H5Y22654   2.950   4.840  13.856  1.6235  0.8959  2.9678
  184DOPC   C3622655   3.074   4.729  14.003  0.7635  0.2660 -0.4860
  184DOPC   H6X22656   3.117   4.627  14.012  0.1931  0.0772  0.2009
  184DOPC   H6Y22657   3.157   4.803  14.003  1.8140 -0.6780  3.4012
  184DOPC   C3722658   2.965   4.756  14.115 -0.7253 -0.6774 -0.7290
  184DOPC   H7X22659   2.906   4.846  14.087 -0.8726 -0.4180  0.3888
  184DOPC   H7Y22660   2.895   4.670  14.109  0.5606 -1.9543  1.4468
  184DOPC   C3822661   3.017   4.765  14.262 -0.1682 -0.0410  0.0294
  184DOPC   H8X22662   3.059   4.866  14.276 -1.2619  0.3863  0.3199
  184DOPC   H8Y22663   3.100   4.693  14.277 -0.0259 -0.3951 -2.0472
  184DOPC   C3922664   2.915   4.736  14.368  0.4173  0.0114  0.4605
  184DOPC   H9X22665   2.813   4.726  14.329  0.8310 -0.4612 -0.5328
  184DOPC  C31022666   2.939   4.705  14.497 -0.4029  0.0361 -0.1299
  184DOPC  H10X22667   2.852   4.700  14.563 -0.4195  1.3748 -0.0325
  184DOPC  C31122668   3.079   4.692  14.560 -0.0911  0.1208  0.2730
  184DOPC  H11X22669   3.144   4.781  14.547 -1.0002  0.7451 -0.0147
  184DOPC  H11Y22670   3.121   4.593  14.531 -0.7487 -0.4794  1.2781
  184DOPC  C31222671   3.079   4.669  14.706 -1.1094  0.1972  0.0193
  184DOPC  H12X22672   3.185   4.663  14.739 -1.2285  1.4322  0.6759
  184DOPC  H12Y22673   3.023   4.576  14.733  2.5279 -1.6167  2.0613
  184DOPC  C31322674   3.024   4.788  14.783 -0.5160  0.1889  0.8184
  184DOPC  H13X22675   3.102   4.867  14.781  1.6800 -1.8783 -0.4862
  184DOPC  H13Y22676   2.940   4.832  14.725 -1.4627  1.9264  3.3467
  184DOPC  C31422677   2.985   4.746  14.922 -0.2060  0.0946 -0.0101
  184DOPC  H14X22678   2.917   4.823  14.964  0.9945  1.1006  0.1741
  184DOPC  H14Y22679   2.931   4.651  14.901  1.0037 -0.6404  0.1153
  184DOPC  C31522680   3.095   4.691  15.017 -0.4206  0.1936  0.4523
  184DOPC  H15X22681   3.134   4.604  14.960 -0.9413 -0.3185  0.8605
  184DOPC  H15Y22682   3.043   4.645  15.104 -0.1603 -1.2298 -0.1114
  184DOPC  C31622683   3.222   4.774  15.055  0.4257  0.4493 -0.1108
  184DOPC  H16X22684   3.262   4.735  15.152 -0.0383 -0.6397 -0.3394
  184DOPC  H16Y22685   3.297   4.766  14.974 -0.0858  0.2853 -0.5725
  184DOPC  C31722686   3.183   4.913  15.072  0.0861 -0.1120 -0.4613
  184DOPC  H17X22687   3.277   4.967  15.097 -0.7153  1.5475 -0.8694
  184DOPC  H17Y22688   3.136   4.960  14.984 -0.1302  1.3287  0.3879
  184DOPC  C31822689   3.091   4.930  15.196  0.4995  0.1959  0.1846
  184DOPC  H18X22690   3.000   4.867  15.181  0.3075  0.6014 -0.3808
  184DOPC  H18Y22691   3.144   4.898  15.288  0.2410 -0.8038  0.0016
  184DOPC  H18Z22692   3.065   5.037  15.207 -0.4547 -0.1898  2.0175
  185DOPC     N22693   5.356   1.681  12.065 -0.6662  0.0111 -0.3004
  185DOPC   C1222694   5.390   1.587  12.173 -0.3403 -0.1441 -0.2690
  185DOPC  H12A22695   5.482   1.537  12.148  0.8187  0.4115  2.4802
  185DOPC  H12B22696   5.318   1.510  12.197  0.4968 -0.8670 -0.0215
  185DOPC   C1322697   5.303   1.601  11.946  0.1205 -0.1560 -0.1456
  185DOPC  H13A22698   5.257   1.671  11.878  0.3002  0.1618  0.0550
  185DOPC  H13B22699   5.389   1.558  11.896 -0.1352 -0.6578 -0.1581
  185DOPC  H13C22700   5.224   1.534  11.977 -0.9754  0.6188 -1.1518
  185DOPC   C1422701   5.473   1.763  12.021  0.7815 -0.0903 -0.1998
  185DOPC  H14A22702   5.451   1.810  11.926 -1.4079 -0.5372  0.0433
  185DOPC  H14B22703   5.495   1.841  12.092 -1.1277 -0.5093  0.9262
  185DOPC  H14C22704   5.552   1.696  11.989 -0.0798 -0.9068 -0.6825
  185DOPC   C1522705   5.244   1.773  12.118 -0.9404  0.0506  0.5992
  185DOPC  H15A22706   5.207   1.822  12.029 -0.4199  1.4628  1.1183
  185DOPC  H15B22707   5.277   1.841  12.195 -0.3466 -2.0011  2.2131
  185DOPC  H15C22708   5.155   1.721  12.149 -0.0051 -1.7381  0.3735
  185DOPC   C1122709   5.431   1.661  12.300 -0.3057 -0.2413 -0.3100
  185DOPC  H11A22710   5.484   1.758  12.293 -0.3027 -0.1724  0.5953
  185DOPC  H11B22711   5.350   1.684  12.373  1.1364 -0.9923  1.6153
  185DOPC     P22712   5.501   1.535  12.514  0.0422  0.2305 -0.3410
  185DOPC   O1322713   5.616   1.460  12.568  0.2251 -0.6080  0.1285
  185DOPC   O1422714   5.364   1.481  12.542 -0.9677  0.0959  0.0251
  185DOPC   O1222715   5.527   1.565  12.355  0.0414  0.4121 -0.0233
  185DOPC   O1122716   5.509   1.679  12.574 -0.1657  0.2367  0.1572
  185DOPC    C122717   5.474   1.683  12.713 -0.2037  0.4614 -0.6004
  185DOPC    HA22718   5.553   1.646  12.783 -0.0312  0.2723 -0.8923
  185DOPC    HB22719   5.379   1.631  12.735  0.4308  0.0620  1.3769
  185DOPC    C222720   5.465   1.830  12.758  0.0410  0.2445 -0.5059
  185DOPC    HS22721   5.568   1.871  12.764  0.0173  0.1444  1.3004
  185DOPC   O2122722   5.401   1.853  12.882 -0.0808 -0.5408  0.1796
  185DOPC   C2122723   5.463   1.803  12.991 -0.3619  0.0635 -0.4813
  185DOPC   O2222724   5.574   1.752  12.985 -0.5174 -0.2305  0.0469
  185DOPC   C2222725   5.382   1.821  13.120  0.2739 -0.0875 -0.5696
  185DOPC   H2R22726   5.278   1.789  13.100 -0.8071  1.3521  2.2328
  185DOPC   H2S22727   5.378   1.931  13.138 -0.2590 -0.1432 -0.3442
  185DOPC    C322728   5.388   1.920  12.651 -0.3615 -0.1448 -0.7322
  185DOPC    HX22729   5.283   1.886  12.638 -1.5943  2.8454  0.5883
  185DOPC    HY22730   5.452   1.908  12.561  1.1086  3.5751 -0.3496
  185DOPC   O3122731   5.374   2.057  12.698  0.1935 -0.1695  0.2103
  185DOPC   C3122732   5.485   2.134  12.681 -0.2284  0.4803 -0.5172
  185DOPC   O3222733   5.585   2.106  12.615  0.1504  0.0318 -0.0045
  185DOPC   C3222734   5.456   2.262  12.754 -0.4693 -0.5317  0.2366
  185DOPC   H2X22735   5.527   2.340  12.717 -3.7442  3.5544  1.6930
  185DOPC   H2Y22736   5.354   2.297  12.729 -0.4020  1.5494  2.4904
  185DOPC   C2322737   5.445   1.736  13.240 -0.3999  0.5074  0.6549
  185DOPC   H3R22738   5.545   1.781  13.259 -0.9037  0.4989  3.6903
  185DOPC   H3S22739   5.456   1.631  13.205 -1.0284  0.0321  1.8337
  185DOPC   C2422740   5.365   1.750  13.370  0.1672 -0.0061 -0.7988
  185DOPC   H4R22741   5.261   1.716  13.348  0.4931 -0.8382 -1.0621
  185DOPC   H4S22742   5.348   1.858  13.389 -2.7456 -0.3232 -1.0817
  185DOPC   C2522743   5.429   1.698  13.499 -0.4571  0.1997  0.6378
  185DOPC   H5R22744   5.533   1.736  13.497 -0.5323  0.4151 -1.8046
  185DOPC   H5S22745   5.431   1.587  13.505 -3.5848 -0.0115 -0.4010
  185DOPC   C2622746   5.342   1.740  13.627  0.3518 -0.1958  0.1067
  185DOPC   H6R22747   5.240   1.722  13.587  1.3869  0.3797 -3.1299
  185DOPC   H6S22748   5.349   1.850  13.638 -1.3426  0.0216 -0.6388
  185DOPC   C2722749   5.368   1.669  13.762  0.1597  0.1032  0.9645
  185DOPC   H7R22750   5.464   1.712  13.799 -0.7323  2.8197  0.4014
  185DOPC   H7S22751   5.382   1.559  13.755 -1.1626  0.0162 -1.4732
  185DOPC   C2822752   5.260   1.712  13.864  0.2329 -0.0113 -0.6881
  185DOPC   H8R22753   5.277   1.641  13.948 -1.4537  1.0012  0.5691
  185DOPC   H8S22754   5.164   1.675  13.821  0.2237 -1.0747  0.1944
  185DOPC   C2922755   5.248   1.854  13.909  0.2549 -0.0032 -0.0228
  185DOPC   H9R22756   5.246   1.930  13.829  1.1551  0.4022  0.3257
  185DOPC  C21022757   5.256   1.898  14.036  0.2109  0.0530  0.2009
  185DOPC  H10R22758   5.239   2.006  14.046  2.6175  0.9451 -3.2749
  185DOPC  C21122759   5.251   1.820  14.167  0.5474  0.1399 -0.2292
  185DOPC  H11R22760   5.340   1.754  14.178 -0.3453 -1.1730 -0.6841
  185DOPC  H11S22761   5.157   1.761  14.172 -0.0256  1.1163  0.8766
  185DOPC  C21222762   5.260   1.924  14.281  0.4763 -0.0039 -1.2516
  185DOPC  H12R22763   5.177   1.998  14.280  0.5986  0.1627 -0.1413
  185DOPC  H12S22764   5.353   1.985  14.275  1.6106 -1.5149  0.1291
  185DOPC  C21322765   5.262   1.865  14.428 -0.0351 -0.3239 -0.1094
  185DOPC  H13R22766   5.339   1.787  14.445  0.5481  0.8390  3.5249
  185DOPC  H13S22767   5.164   1.818  14.452  0.4045 -0.4825  1.5440
  185DOPC  C21422768   5.278   1.973  14.542 -0.0719  0.2811  0.0258
  185DOPC  H14R22769   5.210   2.060  14.525  0.1035  0.5526  0.6672
  185DOPC  H14S22770   5.383   2.007  14.532  0.4460 -1.6373 -1.4669
  185DOPC  C21522771   5.265   1.925  14.684 -0.3336 -0.7483  0.0607
  185DOPC  H15R22772   5.336   1.841  14.704 -1.8917 -2.4111 -1.0367
  185DOPC  H15S22773   5.163   1.883  14.696 -1.3948  2.1037  2.1738
  185DOPC  C21622774   5.295   2.029  14.793 -0.1539 -0.4447 -0.5218
  185DOPC  H16R22775   5.263   2.127  14.754 -0.4089 -0.4219 -0.2586
  185DOPC  H16S22776   5.406   2.040  14.793  0.2742 -3.4354  1.9108
  185DOPC  C21722777   5.227   2.000  14.929  0.2988  0.3315  0.4015
  185DOPC  H17R22778   5.136   1.942  14.901 -0.2016  0.4526  1.6751
  185DOPC  H17S22779   5.196   2.094  14.980 -0.3449  0.4809 -0.2496
  185DOPC  C21822780   5.320   1.926  15.019 -0.1149  0.1879  0.4708
  185DOPC  H18R22781   5.331   1.824  14.975 -2.9394  0.5718 -1.4211
  185DOPC  H18S22782   5.262   1.911  15.113 -0.6773 -0.7781 -0.0099
  185DOPC  H18T22783   5.414   1.983  15.030  0.3482 -0.6603  1.0951
  185DOPC   C3322784   5.469   2.269  12.906 -0.1979  0.0248  0.2178
  185DOPC   H3X22785   5.495   2.371  12.940  0.1261  0.4398 -1.2107
  185DOPC   H3Y22786   5.557   2.213  12.943  1.6904  2.3028 -0.6113
  185DOPC   C3422787   5.344   2.223  12.975 -0.3122 -0.1905 -0.6319
  185DOPC   H4X22788   5.321   2.117  12.952 -2.0230  0.3802 -1.7221
  185DOPC   H4Y22789   5.259   2.289  12.947  0.9324  3.3356  2.8741
  185DOPC   C3522790   5.359   2.236  13.136 -0.1382  0.2484 -0.3640
  185DOPC   H5X22791   5.402   2.337  13.152  2.2582 -0.7397 -0.1891
  185DOPC   H5Y22792   5.444   2.170  13.166  0.1033  1.3618  1.5671
  185DOPC   C3622793   5.226   2.213  13.209 -0.5099  0.0387 -0.6478
  185DOPC   H6X22794   5.157   2.259  13.135 -0.5629 -0.1954 -0.7452
  185DOPC   H6Y22795   5.207   2.110  13.248  0.3183 -0.1112 -0.6026
  185DOPC   C3722796   5.209   2.309  13.325  0.2252  0.1338 -0.1303
  185DOPC   H7X22797   5.302   2.326  13.383 -0.7782 -0.6409  1.7947
  185DOPC   H7Y22798   5.194   2.412  13.286  2.8732  0.6606  0.0907
  185DOPC   C3822799   5.090   2.279  13.422  0.6289  0.5509  0.1321
  185DOPC   H8X22800   5.006   2.225  13.375 -1.2856 -0.3535  4.1477
  185DOPC   H8Y22801   5.043   2.375  13.452 -0.3307  0.3518 -0.6865
  185DOPC   C3922802   5.132   2.203  13.547 -0.6560  0.3039  0.3414
  185DOPC   H9X22803   5.175   2.106  13.518 -0.1137  0.7403 -0.3391
  185DOPC  C31022804   5.116   2.236  13.679  0.4939  0.8928  0.4765
  185DOPC  H10X22805   5.142   2.160  13.754 -1.7723  0.2671  0.6938
  185DOPC  C31122806   5.050   2.366  13.741 -1.3106  0.0320  0.8304
  185DOPC  H11X22807   4.940   2.372  13.722 -1.2658 -0.1675  0.5100
  185DOPC  H11Y22808   5.087   2.454  13.683  0.1598 -0.5636  0.8302
  185DOPC  C31222809   5.096   2.391  13.882  0.2965 -0.7995 -0.1986
  185DOPC  H12X22810   5.051   2.487  13.915 -0.7188 -0.5049 -2.2938
  185DOPC  H12Y22811   5.206   2.385  13.894  0.2062  1.0584  2.3012
  185DOPC  C31322812   5.030   2.286  13.976 -0.0807 -0.0141 -0.0386
  185DOPC  H13X22813   4.927   2.263  13.940 -0.0059 -0.9343  0.3058
  185DOPC  H13Y22814   5.098   2.198  13.971  0.1865  0.2589 -2.3775
  185DOPC  C31422815   5.018   2.322  14.125  1.1342  0.0260  1.2720
  185DOPC  H14X22816   4.966   2.421  14.119 -0.4098 -0.8153 -0.0735
  185DOPC  H14Y22817   4.955   2.237  14.159  2.7379 -2.3786 -1.4360
  185DOPC  C31522818   5.147   2.326  14.201  0.8046 -0.7395  0.0659
  185DOPC  H15X22819   5.206   2.407  14.153  2.7165 -1.7554  0.5996
  185DOPC  H15Y22820   5.192   2.224  14.196  0.9766 -0.6289 -0.8643
  185DOPC  C31622821   5.112   2.363  14.345 -0.6162  0.6085 -0.5616
  185DOPC  H16X22822   5.058   2.460  14.354 -0.5236  0.6357 -0.3059
  185DOPC  H16Y22823   5.051   2.281  14.389 -0.4167 -0.1107 -1.5928
  185DOPC  C31722824   5.249   2.374  14.407 -0.1009 -0.2423 -0.3005
  185DOPC  H17X22825   5.310   2.285  14.382  1.8325  0.7543  0.6879
  185DOPC  H17Y22826   5.312   2.455  14.364  0.3406  0.1696  1.0621
  185DOPC  C31822827   5.232   2.383  14.558 -0.0874 -0.0644  0.0005
  185DOPC  H18X22828   5.297   2.318  14.621  0.6981  0.3178 -0.3949
  185DOPC  H18Y22829   5.250   2.491  14.579 -1.5813  0.2161 -0.0586
  185DOPC  H18Z22830   5.124   2.366  14.578 -0.0862  0.0645  0.1139
  186DOPC     N22831   6.044   6.618  12.907 -0.5135  0.0986  0.2228
  186DOPC   C1222832   5.925   6.597  12.816 -0.5348  0.2084  0.3240
  186DOPC  H12A22833   5.951   6.636  12.719 -0.6110  1.6006  0.8381
  186DOPC  H12B22834   5.842   6.655  12.855  0.9508  2.5300  0.2490
  186DOPC   C1322835   6.022   6.563  13.043 -0.2868  0.2286 -0.5854
  186DOPC  H13A22836   5.933   6.607  13.086  0.7973 -1.5481  4.1495
  186DOPC  H13B22837   6.018   6.456  13.039  2.2395  0.0009  0.7483
  186DOPC  H13C22838   6.092   6.601  13.117 -0.8384  1.2292 -0.5565
  186DOPC   C1422839   6.056   6.764  12.913  0.3523 -0.4093  0.0321
  186DOPC  H14A22840   6.082   6.800  12.814  1.1635 -2.7141 -0.6471
  186DOPC  H14B22841   5.964   6.814  12.940 -0.0138 -0.0568 -1.7331
  186DOPC  H14C22842   6.136   6.795  12.979  0.9605  0.6373 -1.1511
  186DOPC   C1522843   6.171   6.564  12.849  0.8090  0.1198 -0.5009
  186DOPC  H15A22844   6.248   6.558  12.924  1.2498  0.5320 -0.9114
  186DOPC  H15B22845   6.202   6.624  12.764  4.4082  0.5171  0.9518
  186DOPC  H15C22846   6.154   6.466  12.808  0.0428  1.1653 -2.9032
  186DOPC   C1122847   5.888   6.443  12.791 -0.5010  1.1199 -0.2900
  186DOPC  H11A22848   5.817   6.439  12.706 -0.5024  0.0817 -0.2505
  186DOPC  H11B22849   5.981   6.399  12.751  0.2555  2.0254  0.4155
  186DOPC     P22850   5.689   6.408  12.962 -0.3832  0.5238 -0.2185
  186DOPC   O1322851   5.610   6.305  12.889  1.1022 -0.1431  0.2415
  186DOPC   O1422852   5.648   6.548  12.953 -0.4198 -0.0469  0.0638
  186DOPC   O1222853   5.842   6.380  12.911  0.5918  0.2296  0.4449
  186DOPC   O1122854   5.692   6.387  13.116 -0.1565 -0.5739 -0.7530
  186DOPC    C122855   5.765   6.291  13.191 -0.2603 -0.5330 -0.8969
  186DOPC    HA22856   5.863   6.334  13.223  0.1730 -0.7274 -1.9226
  186DOPC    HB22857   5.781   6.199  13.129  1.3725 -0.1350 -1.1191
  186DOPC    C222858   5.686   6.248  13.313  0.2559  0.3887 -0.3379
  186DOPC    HS22859   5.580   6.248  13.279  0.2528 -0.8824 -0.3756
  186DOPC   O2122860   5.706   6.338  13.421 -0.0396  0.4646 -0.2080
  186DOPC   C2122861   5.609   6.359  13.505  1.1825 -0.5462  0.4324
  186DOPC   O2222862   5.492   6.333  13.483 -0.1868 -0.4761 -0.5401
  186DOPC   C2222863   5.667   6.405  13.637  0.3289 -0.2370  0.7940
  186DOPC   H2R22864   5.741   6.484  13.613 -0.3957  0.2354  0.0607
  186DOPC   H2S22865   5.720   6.315  13.676 -0.5112 -0.8313  0.5958
  186DOPC    C322866   5.718   6.101  13.352  0.1068  0.1937 -0.9673
  186DOPC    HX22867   5.828   6.099  13.368 -0.2792  0.9472  2.4690
  186DOPC    HY22868   5.689   6.034  13.267 -2.1426  2.5286 -2.1731
  186DOPC   O3122869   5.662   6.062  13.480  0.4753 -0.2595 -0.4670
  186DOPC   C3122870   5.561   5.968  13.483  0.0158 -0.1446  0.6186
  186DOPC   O3222871   5.509   5.920  13.380 -0.3242 -0.2938  0.2319
  186DOPC   C3222872   5.521   5.951  13.630  0.3817 -0.5118 -0.1331
  186DOPC   H2X22873   5.612   5.902  13.668  3.0902  3.5918 -0.6576
  186DOPC   H2Y22874   5.524   6.051  13.678  0.6961 -1.0442  0.9863
  186DOPC   C2322875   5.559   6.466  13.735  0.2834  0.0299  0.4885
  186DOPC   H3R22876   5.470   6.401  13.747  0.5789 -0.7949 -1.3459
  186DOPC   H3S22877   5.520   6.559  13.689 -0.0691  0.2253  1.1744
  186DOPC   C2422878   5.634   6.496  13.872 -0.1064  0.1272  0.6009
  186DOPC   H4R22879   5.710   6.576  13.860  2.2857 -1.7715  2.1793
  186DOPC   H4S22880   5.683   6.409  13.920 -1.5132  0.6418  3.1374
  186DOPC   C2522881   5.526   6.543  13.976  0.6055  0.9203  0.7786
  186DOPC   H5R22882   5.471   6.628  13.931 -0.2980 -0.3561 -0.6354
  186DOPC   H5S22883   5.589   6.595  14.051 -0.9244  1.2934  1.8346
  186DOPC   C2622884   5.434   6.440  14.045  0.1547 -0.2616  0.4071
  186DOPC   H6R22885   5.389   6.386  13.960 -1.2926  0.5433  0.6357
  186DOPC   H6S22886   5.361   6.488  14.113  0.9859  0.7012  0.6550
  186DOPC   C2722887   5.515   6.336  14.127  0.1449  0.5617 -0.3784
  186DOPC   H7R22888   5.565   6.388  14.211 -2.5036  0.4597  1.4172
  186DOPC   H7S22889   5.587   6.287  14.058  0.1939 -0.8903  0.6383
  186DOPC   C2822890   5.427   6.219  14.171 -0.1740  0.5451 -0.0283
  186DOPC   H8R22891   5.388   6.172  14.077 -1.6555  2.1557 -0.2766
  186DOPC   H8S22892   5.340   6.262  14.225 -0.2754  0.2051  0.0846
  186DOPC   C2922893   5.506   6.125  14.260 -0.2028 -0.0133  0.6481
  186DOPC   H9R22894   5.591   6.074  14.212 -0.4967 -0.6744  0.8126
  186DOPC  C21022895   5.496   6.124  14.392 -0.9067 -0.5336 -0.3616
  186DOPC  H10R22896   5.564   6.068  14.458  2.0280  2.8100 -0.2775
  186DOPC  C21122897   5.393   6.196  14.474  0.2902 -0.2000  0.4899
  186DOPC  H11R22898   5.314   6.120  14.491  0.0233 -1.2473 -3.9896
  186DOPC  H11S22899   5.352   6.289  14.428  1.1785 -0.3811 -0.7192
  186DOPC  C21222900   5.467   6.244  14.601 -0.2443  0.1142  0.3389
  186DOPC  H12R22901   5.541   6.319  14.565 -1.0000  1.2775  1.1197
  186DOPC  H12S22902   5.510   6.160  14.659 -0.7101 -0.4703 -0.1439
  186DOPC  C21322903   5.372   6.299  14.707 -0.0981 -0.3668  0.1531
  186DOPC  H13R22904   5.280   6.238  14.713  0.0622 -0.5401  1.0486
  186DOPC  H13S22905   5.352   6.403  14.674 -0.1208 -1.0841 -2.2344
  186DOPC  C21422906   5.423   6.305  14.852  0.4597 -0.1252 -0.7640
  186DOPC  H14R22907   5.518   6.363  14.856  1.2429 -1.1613  5.4056
  186DOPC  H14S22908   5.444   6.203  14.890  0.1474 -0.7034 -2.1126
  186DOPC  C21522909   5.326   6.375  14.941  0.0157 -0.2252 -0.1191
  186DOPC  H15R22910   5.221   6.346  14.921  0.2119 -0.0128 -1.5796
  186DOPC  H15S22911   5.337   6.484  14.927  0.6661 -0.2193  0.3841
  186DOPC  C21622912   5.356   6.353  15.092 -0.3494  0.1909  0.8619
  186DOPC  H16R22913   5.463   6.362  15.121 -0.7776 -0.5516  2.9005
  186DOPC  H16S22914   5.325   6.249  15.117  1.5806 -0.6864 -0.1718
  186DOPC  C21722915   5.282   6.454  15.182  0.8107 -0.3544 -0.6892
  186DOPC  H17R22916   5.177   6.420  15.189  0.6191  0.0899 -1.2337
  186DOPC  H17S22917   5.280   6.561  15.150  1.6356 -0.0091  0.3716
  186DOPC  C21822918   5.327   6.444  15.324  0.1131  0.6687  0.2979
  186DOPC  H18R22919   5.295   6.343  15.358 -3.4297  0.5598 -2.7157
  186DOPC  H18S22920   5.273   6.515  15.390 -1.2050 -0.8664  0.9409
  186DOPC  H18T22921   5.437   6.454  15.333  0.2049 -0.7115  0.9334
  186DOPC   C3322922   5.387   5.874  13.655  0.0368  0.1367  0.1772
  186DOPC   H3X22923   5.388   5.776  13.604 -1.3863  0.6282 -0.8542
  186DOPC   H3Y22924   5.318   5.943  13.602 -0.5086 -0.1077  0.5657
  186DOPC   C3422925   5.342   5.867  13.797  0.0811  0.0336 -0.0772
  186DOPC   H4X22926   5.237   5.834  13.809 -0.1236  1.4559  2.6816
  186DOPC   H4Y22927   5.340   5.972  13.833 -0.4723  0.6755 -1.8734
  186DOPC   C3522928   5.439   5.778  13.875  0.7301  0.2424  0.7910
  186DOPC   H5X22929   5.547   5.802  13.869  1.2683 -2.0955  0.3400
  186DOPC   H5Y22930   5.430   5.678  13.827  0.4527 -0.1123  1.5745
  186DOPC   C3622931   5.405   5.759  14.020  0.0295  0.3620 -0.1881
  186DOPC   H6X22932   5.475   5.683  14.063  0.6415 -0.4159 -2.4242
  186DOPC   H6Y22933   5.430   5.849  14.079 -2.4553 -1.0414  3.3983
  186DOPC   C3722934   5.269   5.697  14.046 -0.3471  0.0267 -0.4123
  186DOPC   H7X22935   5.227   5.630  13.968 -0.4135  0.0902 -0.4317
  186DOPC   H7Y22936   5.285   5.639  14.140  1.4313  0.0616 -0.6660
  186DOPC   C3822937   5.157   5.806  14.084 -0.5154 -0.1830 -0.9140
  186DOPC   H8X22938   5.105   5.835  13.990 -1.1032  0.3629 -0.4273
  186DOPC   H8Y22939   5.204   5.899  14.123  0.0644 -0.8224 -0.0339
  186DOPC   C3922940   5.049   5.764  14.178  0.1467 -0.0490 -0.2663
  186DOPC   H9X22941   4.960   5.723  14.127  0.4222 -2.4107  1.0075
  186DOPC  C31022942   5.045   5.782  14.314 -0.6118 -0.3365  0.4565
  186DOPC  H10X22943   4.960   5.746  14.374  0.1111  1.4460  2.7012
  186DOPC  C31122944   5.150   5.829  14.400  0.0012 -0.3374 -0.2352
  186DOPC  H11X22945   5.125   5.936  14.412 -0.2491 -0.0582 -2.6961
  186DOPC  H11Y22946   5.252   5.836  14.356 -0.8255 -0.8274 -2.3202
  186DOPC  C31222947   5.156   5.754  14.534 -0.4551  0.0743 -0.1460
  186DOPC  H12X22948   5.180   5.646  14.523  1.3183  0.2009  1.8249
  186DOPC  H12Y22949   5.058   5.758  14.586  0.3333  0.4087  1.3870
  186DOPC  C31322950   5.250   5.833  14.624  0.3617 -0.0540  0.2074
  186DOPC  H13X22951   5.356   5.828  14.590 -0.2359  0.8532 -1.9470
  186DOPC  H13Y22952   5.231   5.943  14.618  1.3982  0.0743 -1.3480
  186DOPC  C31422953   5.244   5.780  14.772 -0.4397 -0.0649 -0.1900
  186DOPC  H14X22954   5.152   5.809  14.826  0.0223  1.7958 -0.3294
  186DOPC  H14Y22955   5.247   5.669  14.774  0.4134 -0.0378  0.5530
  186DOPC  C31522956   5.369   5.829  14.851  0.4964 -0.8656  0.1167
  186DOPC  H15X22957   5.383   5.938  14.834 -1.5608  0.3606  4.7277
  186DOPC  H15Y22958   5.459   5.776  14.812  1.8869  1.8556 -0.7104
  186DOPC  C31622959   5.369   5.811  15.000 -0.0664 -0.2866 -0.0133
  186DOPC  H16X22960   5.266   5.821  15.039 -0.1709  0.6736 -0.5116
  186DOPC  H16Y22961   5.411   5.710  15.023 -1.6818 -1.5335 -2.0980
  186DOPC  C31722962   5.452   5.920  15.080 -0.7970  0.2975  0.6669
  186DOPC  H17X22963   5.553   5.921  15.035 -1.3797 -0.7510 -0.6909
  186DOPC  H17Y22964   5.410   6.018  15.049 -0.3364 -0.0149 -0.9994
  186DOPC  C31822965   5.446   5.883  15.225  0.1508  0.0712 -0.1586
  186DOPC  H18X22966   5.503   5.951  15.293 -1.0254 -1.0244  2.0427
  186DOPC  H18Y22967   5.345   5.872  15.270  0.2947 -1.6019 -0.1826
  186DOPC  H18Z22968   5.499   5.786  15.240 -0.5867 -0.3038  0.0635
  187DOPC     N22969   4.377   3.933  12.298 -0.1275  0.2000  0.3682
  187DOPC   C1222970   4.367   3.983  12.447 -0.4646 -0.2862 -0.1494
  187DOPC  H12A22971   4.262   3.981  12.472 -0.9710 -2.3274 -2.0659
  187DOPC  H12B22972   4.391   4.088  12.446 -0.1554 -0.3516  0.1390
  187DOPC   C1322973   4.520   3.944  12.256  0.3909  0.5911  0.5223
  187DOPC  H13A22974   4.529   3.898  12.159  0.6437  0.6096  0.5375
  187DOPC  H13B22975   4.578   4.034  12.264 -1.6557  1.8564  2.3311
  187DOPC  H13C22976   4.582   3.876  12.313  1.4481 -0.0468 -1.2932
  187DOPC   C1422977   4.282   4.006  12.205 -0.1345  0.1837 -0.4670
  187DOPC  H14A22978   4.296   3.969  12.105 -0.9134 -1.7156  0.0839
  187DOPC  H14B22979   4.186   3.981  12.247  0.2919 -1.5266 -0.4639
  187DOPC  H14C22980   4.296   4.113  12.199  4.0966 -0.2435 -1.8647
  187DOPC   C1522981   4.333   3.795  12.287 -0.8891 -0.3248  0.2434
  187DOPC  H15A22982   4.232   3.782  12.325 -0.3767 -0.9795  1.4581
  187DOPC  H15B22983   4.399   3.731  12.344  0.9535 -1.8470 -3.2828
  187DOPC  H15C22984   4.331   3.762  12.185 -0.1912 -0.8010  0.3744
  187DOPC   C1122985   4.454   3.911  12.557 -0.0115 -0.9465 -0.8141
  187DOPC  H11A22986   4.411   3.925  12.658  0.2374 -0.1826 -0.8046
  187DOPC  H11B22987   4.454   3.800  12.551  1.5609 -0.9482 -1.2564
  187DOPC     P22988   4.623   4.109  12.585  0.1197  0.0752 -0.4060
  187DOPC   O1322989   4.498   4.186  12.602 -0.7310  0.1263 -0.1170
  187DOPC   O1422990   4.724   4.163  12.493  0.1096 -0.5752 -0.0345
  187DOPC   O1222991   4.586   3.960  12.541  0.6008  0.0041 -0.3325
  187DOPC   O1122992   4.680   4.095  12.732 -0.5392 -0.1828  0.0834
  187DOPC    C122993   4.604   4.043  12.841 -0.7683 -0.2753  0.4143
  187DOPC    HA22994   4.652   3.945  12.861  3.7467  1.5280 -0.3650
  187DOPC    HB22995   4.496   4.038  12.816 -0.2832  0.6366 -2.0940
  187DOPC    C222996   4.624   4.136  12.960 -0.0214  0.0260  0.2633
  187DOPC    HS22997   4.732   4.163  12.961  0.1139 -0.5037  0.7543
  187DOPC   O2122998   4.612   4.063  13.086 -0.1296 -0.4452 -0.6700
  187DOPC   C2122999   4.701   3.974  13.122  0.6201 -0.4648 -0.0613
  187DOPC   O2223000   4.795   3.934  13.055  0.0480 -0.0088 -0.1517
  187DOPC   C2223001   4.675   3.914  13.263 -0.4404 -0.2024  0.0995
  187DOPC   H2R23002   4.733   3.820  13.276  0.0059  0.0199 -0.2307
  187DOPC   H2S23003   4.565   3.899  13.258 -0.3680 -1.0130  0.8097
  187DOPC    C323004   4.528   4.251  12.966 -0.2841  0.3291 -0.4072
  187DOPC    HX23005   4.425   4.210  12.976 -0.3650  0.0516 -1.9964
  187DOPC    HY23006   4.536   4.315  12.875  0.2581  1.4459  0.3893
  187DOPC   O3123007   4.551   4.346  13.076 -0.5648 -0.8894 -0.0728
  187DOPC   C3123008   4.663   4.414  13.057  1.1514  0.0610 -0.2375
  187DOPC   O3223009   4.728   4.424  12.953  0.7334  0.4553 -0.2102
  187DOPC   C3223010   4.695   4.493  13.181 -0.4015 -0.0114  0.5194
  187DOPC   H2X23011   4.734   4.591  13.148  0.4289 -0.6612 -0.4963
  187DOPC   H2Y23012   4.603   4.508  13.242  0.4600  2.9635  1.2225
  187DOPC   C2323013   4.703   4.022  13.373  0.0868  0.2495 -0.0862
  187DOPC   H3R23014   4.639   4.114  13.370 -1.9779 -1.0970  0.2567
  187DOPC   H3S23015   4.812   4.038  13.387  0.4760 -3.3261  2.4585
  187DOPC   C2423016   4.663   3.947  13.509  0.6136 -0.6150  0.0640
  187DOPC   H4R23017   4.705   3.844  13.508  1.6817 -0.1907 -0.6775
  187DOPC   H4S23018   4.552   3.939  13.511  0.6382 -0.9248  0.3007
  187DOPC   C2523019   4.720   4.005  13.635  0.7080  0.1611 -1.1544
  187DOPC   H5R23020   4.693   4.113  13.636 -0.0022 -0.0078 -1.4648
  187DOPC   H5S23021   4.830   3.993  13.642  0.5843 -0.6548 -0.4553
  187DOPC   C2623022   4.670   3.933  13.761  0.7748 -0.0119 -0.8819
  187DOPC   H6R23023   4.685   3.825  13.739  0.2220 -0.3457  0.2582
  187DOPC   H6S23024   4.564   3.959  13.784  1.3965  2.2432 -0.3181
  187DOPC   C2723025   4.741   3.981  13.880  0.4305 -0.4081 -0.4516
  187DOPC   H7R23026   4.721   4.088  13.902  1.2778 -0.4527  0.6112
  187DOPC   H7S23027   4.850   3.983  13.861  0.7408  0.2846  1.2366
  187DOPC   C2823028   4.716   3.907  14.018  0.8201  0.1171  0.5441
  187DOPC   H8R23029   4.728   3.802  13.983 -0.1661  0.5747 -1.3136
  187DOPC   H8S23030   4.611   3.923  14.050  0.1209  0.3004 -1.6391
  187DOPC   C2923031   4.812   3.958  14.118 -0.4297  0.1337  0.0857
  187DOPC   H9R23032   4.861   4.054  14.096  1.2341 -0.6244  0.3075
  187DOPC  C21023033   4.826   3.925  14.246  0.4046  0.4923 -0.3460
  187DOPC  H10R23034   4.903   3.966  14.312  0.1278 -0.0887  0.3566
  187DOPC  C21123035   4.742   3.813  14.312  0.2273 -0.6186 -0.0598
  187DOPC  H11R23036   4.819   3.765  14.376 -0.2374 -0.8661  0.3199
  187DOPC  H11S23037   4.688   3.738  14.250 -2.7272  1.4556 -0.1817
  187DOPC  C21223038   4.654   3.871  14.427  0.2216 -0.1521 -0.5937
  187DOPC  H12R23039   4.579   3.796  14.460  1.7249 -1.0747  0.8673
  187DOPC  H12S23040   4.601   3.959  14.384  1.4705  0.7441 -0.3699
  187DOPC  C21323041   4.735   3.907  14.553  0.6308 -0.6543 -0.0441
  187DOPC  H13R23042   4.796   3.994  14.519 -2.1111  1.3145 -0.2997
  187DOPC  H13S23043   4.801   3.835  14.606  0.7358 -0.1310  0.5531
  187DOPC  C21423044   4.643   3.949  14.662  0.0347 -0.2947  0.3008
  187DOPC  H14R23045   4.585   3.863  14.701  1.0835 -1.0577  0.2170
  187DOPC  H14S23046   4.569   4.027  14.633 -1.3363 -0.7244  2.4248
  187DOPC  C21523047   4.715   4.000  14.791 -0.4670  0.0750 -0.0884
  187DOPC  H15R23048   4.768   4.098  14.788 -0.8120  0.2399 -1.2430
  187DOPC  H15S23049   4.801   3.932  14.811  0.3680  1.4392  1.2608
  187DOPC  C21623050   4.620   4.010  14.910 -0.0685  0.2706 -0.2295
  187DOPC  H16R23051   4.570   3.912  14.928  1.3805 -0.4439  0.0376
  187DOPC  H16S23052   4.552   4.097  14.900  2.4503  2.1761 -1.7173
  187DOPC  C21723053   4.699   4.059  15.027  0.5364  0.4417  0.1312
  187DOPC  H17R23054   4.697   4.169  15.016 -2.2690  0.5367  0.8559
  187DOPC  H17S23055   4.805   4.024  15.032  0.1898 -0.5079  1.7710
  187DOPC  C21823056   4.642   4.018  15.163 -0.2482 -0.5444  0.4050
  187DOPC  H18R23057   4.713   4.047  15.243  0.1865 -1.6554  0.4458
  187DOPC  H18S23058   4.645   3.908  15.179  0.4845 -0.3562  1.6773
  187DOPC  H18T23059   4.540   4.061  15.174 -0.0372  0.2180 -0.4723
  187DOPC   C3323060   4.804   4.415  13.261  0.6427 -0.0662  1.0546
  187DOPC   H3X23061   4.891   4.417  13.192 -2.7493 -0.2935 -3.7810
  187DOPC   H3Y23062   4.767   4.311  13.273  0.3304 -0.1621 -0.5321
  187DOPC   C3423063   4.832   4.478  13.398 -0.8267 -0.4545 -0.2075
  187DOPC   H4X23064   4.832   4.589  13.393 -2.0701 -0.4443 -0.2600
  187DOPC   H4Y23065   4.938   4.458  13.424 -0.8813 -0.7737 -0.2231
  187DOPC   C3523066   4.742   4.441  13.516 -0.1656 -0.7776 -0.5160
  187DOPC   H5X23067   4.741   4.330  13.521 -1.3063 -0.8396 -1.5950
  187DOPC   H5Y23068   4.639   4.478  13.492  0.6607  0.6268 -2.1277
  187DOPC   C3623069   4.794   4.500  13.648  0.2885 -0.0652 -0.3533
  187DOPC   H6X23070   4.900   4.468  13.650  0.0309 -0.9113  0.9731
  187DOPC   H6Y23071   4.786   4.611  13.639 -1.5015 -0.0778  0.6268
  187DOPC   C3723072   4.732   4.441  13.774  0.0191 -0.6313 -0.5983
  187DOPC   H7X23073   4.624   4.463  13.777 -0.0314 -0.9955  1.1901
  187DOPC   H7Y23074   4.739   4.332  13.754 -0.2766 -1.0787  1.5337
  187DOPC   C3823075   4.785   4.495  13.908 -0.3780 -0.2370 -0.4099
  187DOPC   H8X23076   4.735   4.588  13.942 -1.9011 -1.2828  0.3221
  187DOPC   H8Y23077   4.891   4.525  13.902 -0.6834  1.1873  0.7457
  187DOPC   C3923078   4.774   4.387  14.004  0.2086 -0.9204  0.1134
  187DOPC   H9X23079   4.800   4.292  13.957 -0.1981  0.2365 -2.6367
  187DOPC  C31023080   4.728   4.388  14.132 -0.7854  0.4715 -0.3685
  187DOPC  H10X23081   4.706   4.288  14.172  1.3138 -0.4144 -1.2844
  187DOPC  C31123082   4.675   4.501  14.214  0.2648 -0.0831 -0.5695
  187DOPC  H11X23083   4.569   4.484  14.243  0.7189 -1.7806  0.2253
  187DOPC  H11Y23084   4.678   4.597  14.157 -1.8639  1.0371  1.0734
  187DOPC  C31223085   4.752   4.519  14.347 -0.0904 -0.1681 -0.9391
  187DOPC  H12X23086   4.695   4.592  14.408  2.1883  0.3503  0.7089
  187DOPC  H12Y23087   4.853   4.562  14.335  0.2264 -0.7276 -0.3893
  187DOPC  C31323088   4.792   4.394  14.426  0.9261  0.1974 -0.3927
  187DOPC  H13X23089   4.700   4.332  14.437  1.1430  0.1255  1.2478
  187DOPC  H13Y23090   4.860   4.324  14.373  0.1164 -2.6732  2.0074
  187DOPC  C31423091   4.853   4.415  14.565 -0.1962  0.0964 -0.4555
  187DOPC  H14X23092   4.879   4.312  14.598 -0.6748  0.3251  0.6772
  187DOPC  H14Y23093   4.954   4.460  14.573  1.8423 -4.2523  1.8478
  187DOPC  C31523094   4.770   4.474  14.681 -0.3858  0.3002 -0.0050
  187DOPC  H15X23095   4.677   4.412  14.682 -0.7672  0.8329  2.1080
  187DOPC  H15Y23096   4.721   4.566  14.644  1.2935  2.1258  2.1016
  187DOPC  C31623097   4.841   4.481  14.815  0.5264 -0.3099  0.4564
  187DOPC  H16X23098   4.905   4.390  14.824 -0.3884 -1.3462 -2.5588
  187DOPC  H16Y23099   4.911   4.566  14.822  0.5228 -0.1564 -1.0635
  187DOPC  C31723100   4.744   4.486  14.930 -0.4847 -0.1840 -0.2453
  187DOPC  H17X23101   4.682   4.577  14.917 -0.1662  0.1412  0.4957
  187DOPC  H17Y23102   4.687   4.391  14.936  0.0028 -0.4161  1.1027
  187DOPC  C31823103   4.810   4.503  15.061 -0.3205  0.0487 -0.3090
  187DOPC  H18X23104   4.846   4.409  15.107  0.2649  0.2278 -0.3883
  187DOPC  H18Y23105   4.891   4.580  15.056  1.5939 -1.8567  0.0744
  187DOPC  H18Z23106   4.734   4.545  15.130 -2.2984 -1.7900 -1.2733
  188DOPC     N23107   0.532   6.324  13.332  0.3778  0.1520  0.6622
  188DOPC   C1223108   0.533   6.170  13.319  0.0030 -0.4132 -0.5098
  188DOPC  H12A23109   0.633   6.142  13.290  0.6141  1.5810 -0.4807
  188DOPC  H12B23110   0.462   6.144  13.242  0.1454 -0.3673 -0.6547
  188DOPC   C1323111   0.618   6.375  13.440 -0.3942 -0.0395  0.7605
  188DOPC  H13A23112   0.584   6.327  13.531 -1.4504 -1.4546 -0.3386
  188DOPC  H13B23113   0.723   6.362  13.417 -0.9626 -1.1108 -1.4848
  188DOPC  H13C23114   0.604   6.482  13.442  0.7335  0.1175  1.1496
  188DOPC   C1423115   0.394   6.365  13.368 -0.1156 -0.1563 -0.5208
  188DOPC  H14A23116   0.377   6.470  13.388 -0.7687 -0.2735 -0.4217
  188DOPC  H14B23117   0.325   6.337  13.290 -0.7057 -1.2410  0.3700
  188DOPC  H14C23118   0.367   6.312  13.458  2.1311 -4.2175 -1.9878
  188DOPC   C1523119   0.566   6.403  13.203  0.5916 -0.4158 -0.9256
  188DOPC  H15A23120   0.588   6.507  13.222 -2.7397  0.5264 -1.5797
  188DOPC  H15B23121   0.481   6.407  13.137  1.3075  0.1161 -1.8473
  188DOPC  H15C23122   0.639   6.356  13.139  0.3394 -1.1245 -0.7043
  188DOPC   C1123123   0.490   6.091  13.446 -0.1423 -0.3717  0.0652
  188DOPC  H11A23124   0.397   6.127  13.494  0.5922  2.8637 -0.6985
  188DOPC  H11B23125   0.481   5.984  13.415 -3.0025  0.8570 -4.2911
  188DOPC     P23126   0.695   6.030  13.608 -0.1606  0.0867 -0.0201
  188DOPC   O1323127   0.762   6.104  13.715 -0.3390  0.6796  0.4296
  188DOPC   O1423128   0.785   5.995  13.495  0.3173  0.5672  0.7573
  188DOPC   O1223129   0.582   6.116  13.555 -0.1893 -0.3188 -0.0827
  188DOPC   O1123130   0.615   5.903  13.657  0.3069 -0.6481  0.5196
  188DOPC    C123131   0.567   5.893  13.791  0.4018 -0.0949 -0.7035
  188DOPC    HA23132   0.465   5.849  13.787 -0.2601  1.2967 -0.0181
  188DOPC    HB23133   0.539   5.992  13.834  1.8635  0.3891 -0.8392
  188DOPC    C223134   0.658   5.814  13.889 -0.2894 -0.1472 -0.3657
  188DOPC    HS23135   0.736   5.882  13.929  1.5700 -2.0572 -0.6015
  188DOPC   O2123136   0.733   5.702  13.828  0.2627  0.0936  0.0907
  188DOPC   C2123137   0.660   5.607  13.777  0.5114  0.4790 -0.1565
  188DOPC   O2223138   0.541   5.599  13.776  0.5674  0.1447  0.1645
  188DOPC   C2223139   0.751   5.507  13.704  0.2854  0.4031  0.3765
  188DOPC   H2R23140   0.857   5.524  13.735  0.9595 -1.9136 -0.4785
  188DOPC   H2S23141   0.746   5.543  13.599  1.3303 -2.8288 -0.8928
  188DOPC    C323142   0.594   5.787  14.026 -0.4819  0.5444  0.3115
  188DOPC    HX23143   0.668   5.721  14.076  0.0760 -0.0810 -1.2910
  188DOPC    HY23144   0.501   5.726  14.031 -1.6403  2.2010  0.0708
  188DOPC   O3123145   0.564   5.899  14.109  0.1580  0.3748  0.2347
  188DOPC   C3123146   0.642   5.921  14.209 -0.1518  0.2503  0.2350
  188DOPC   O3223147   0.742   5.864  14.234 -0.2564 -0.0653 -0.2023
  188DOPC   C3223148   0.593   6.043  14.278  0.6856  0.5319 -0.5311
  188DOPC   H2X23149   0.638   6.123  14.215  1.8328  1.0421  0.8776
  188DOPC   H2Y23150   0.484   6.064  14.267  0.2015 -0.6148  1.5313
  188DOPC   C2323151   0.720   5.355  13.717  0.0273  0.4544 -0.2785
  188DOPC   H3R23152   0.762   5.301  13.629  1.2250  0.5097  0.2383
  188DOPC   H3S23153   0.611   5.338  13.726  0.2468 -1.3603 -0.7217
  188DOPC   C2423154   0.792   5.302  13.833  0.2236  0.3731 -0.3599
  188DOPC   H4R23155   0.898   5.337  13.824  0.7616 -1.0114  0.3414
  188DOPC   H4S23156   0.793   5.192  13.825  2.1119  0.3331 -0.1803
  188DOPC   C2523157   0.737   5.346  13.969 -0.6972 -0.1643 -0.1090
  188DOPC   H5R23158   0.626   5.360  13.973 -0.5437  1.3975 -0.7337
  188DOPC   H5S23159   0.787   5.439  14.002 -0.4903  0.0333 -0.9469
  188DOPC   C2623160   0.792   5.243  14.075 -0.1986  0.4814 -0.1961
  188DOPC   H6R23161   0.902   5.234  14.071 -0.0277  2.1513  0.1387
  188DOPC   H6S23162   0.750   5.143  14.049 -0.7647  0.2087  1.6205
  188DOPC   C2723163   0.750   5.300  14.211 -0.2499  0.3062  0.4380
  188DOPC   H7R23164   0.738   5.214  14.279 -2.8996  0.5549  0.3590
  188DOPC   H7S23165   0.649   5.343  14.196  0.2511  1.1449 -0.7280
  188DOPC   C2823166   0.839   5.403  14.274 -0.5011 -0.0409  0.2622
  188DOPC   H8R23167   0.831   5.501  14.222 -0.4966  0.8383  1.8520
  188DOPC   H8S23168   0.945   5.369  14.269 -0.7611 -0.7929 -0.2460
  188DOPC   C2923169   0.795   5.433  14.413 -0.5540 -0.1759 -0.4615
  188DOPC   H9R23170   0.729   5.521  14.422  1.7841  1.7561 -1.1411
  188DOPC  C21023171   0.844   5.386  14.528  0.0433  0.5583 -0.2471
  188DOPC  H10R23172   0.791   5.413  14.620 -1.2380  0.8442 -1.0470
  188DOPC  C21123173   0.962   5.291  14.544  0.7359  0.0116  0.1592
  188DOPC  H11R23174   1.009   5.291  14.443 -1.0774  3.7834 -0.8576
  188DOPC  H11S23175   0.923   5.189  14.565 -1.8667  0.6178 -1.3724
  188DOPC  C21223176   1.061   5.331  14.657 -0.1597 -0.2231 -0.2308
  188DOPC  H12R23177   1.092   5.436  14.637 -2.3636  0.4863 -0.2308
  188DOPC  H12S23178   1.149   5.265  14.646 -0.5556 -1.2157  1.9707
  188DOPC  C21323179   0.998   5.314  14.796 -0.6269  0.3372  0.0551
  188DOPC  H13R23180   0.930   5.227  14.794 -1.7776  1.1394  1.9918
  188DOPC  H13S23181   0.924   5.394  14.816 -1.9212 -0.4304 -1.4121
  188DOPC  C21423182   1.099   5.300  14.918  0.1362 -0.4045 -0.3418
  188DOPC  H14R23183   1.164   5.390  14.924 -0.3593 -0.1102  1.2078
  188DOPC  H14S23184   1.185   5.229  14.912  1.5811  1.3799 -1.9911
  188DOPC  C21523185   1.018   5.277  15.046 -0.7061  0.2079  0.3696
  188DOPC  H15R23186   0.947   5.194  15.027 -1.2383  0.0308  2.7625
  188DOPC  H15S23187   0.953   5.365  15.065 -1.3493 -0.3446  0.7965
  188DOPC  C21623188   1.099   5.242  15.172 -0.7519 -0.5493  0.1994
  188DOPC  H16R23189   1.166   5.329  15.193  0.5385 -1.8941  1.9377
  188DOPC  H16S23190   1.164   5.154  15.157 -0.9666 -0.5141 -1.0569
  188DOPC  C21723191   1.006   5.203  15.293  0.1245 -0.9407 -0.3165
  188DOPC  H17R23192   0.942   5.116  15.271  0.6357 -1.7283  1.2061
  188DOPC  H17S23193   0.939   5.291  15.307 -1.0927 -1.7050 -1.2016
  188DOPC  C21823194   1.092   5.163  15.414  0.1497  0.1508 -0.2606
  188DOPC  H18R23195   1.163   5.080  15.390  1.8108  1.1155  1.0430
  188DOPC  H18S23196   1.022   5.129  15.493 -0.7058 -0.1623 -1.1373
  188DOPC  H18T23197   1.156   5.248  15.446 -1.3238  0.6714  1.4948
  188DOPC   C3323198   0.647   6.081  14.419  0.0179 -0.3078 -0.2379
  188DOPC   H3X23199   0.641   6.191  14.434 -0.4985 -0.5542  1.6108
  188DOPC   H3Y23200   0.754   6.055  14.418 -0.6473 -3.7937  2.5231
  188DOPC   C3423201   0.576   6.000  14.529 -0.0742  1.1048  0.0923
  188DOPC   H4X23202   0.587   5.895  14.494  1.7584  1.9738 -2.2114
  188DOPC   H4Y23203   0.467   6.023  14.536 -0.6383 -1.2578 -0.2017
  188DOPC   C3523204   0.647   6.025  14.660  0.1076 -0.3563 -0.3798
  188DOPC   H5X23205   0.673   6.133  14.674  0.7959 -0.7070  1.2505
  188DOPC   H5Y23206   0.749   5.981  14.663  1.6984  2.9579 -0.5950
  188DOPC   C3623207   0.575   5.979  14.784  0.5468 -0.0237  0.8384
  188DOPC   H6X23208   0.469   6.009  14.770  0.3534 -1.3833 -1.0817
  188DOPC   H6Y23209   0.570   5.868  14.790 -1.9641  0.0812  1.6631
  188DOPC   C3723210   0.614   6.039  14.914 -0.5306  0.5940  0.0313
  188DOPC   H7X23211   0.629   6.147  14.892  1.7682 -0.1703 -2.7047
  188DOPC   H7Y23212   0.528   6.035  14.984 -0.5212 -0.9411 -0.0110
  188DOPC   C3823213   0.728   5.970  14.979  0.2071 -0.7584  0.4246
  188DOPC   H8X23214   0.820   5.988  14.920 -0.5568  2.8395  0.1131
  188DOPC   H8Y23215   0.712   5.860  14.968  1.2793 -0.7268 -2.0264
  188DOPC   C3923216   0.742   6.020  15.125 -0.0704  0.2582 -0.2761
  188DOPC   H9X23217   0.791   6.119  15.128 -0.1933  0.3868  4.0497
  188DOPC  C31023218   0.702   5.960  15.240 -0.0204 -0.7667  0.0242
  188DOPC  H10X23219   0.722   6.012  15.334 -1.7561  1.0600 -0.5320
  188DOPC  C31123220   0.633   5.822  15.244 -0.2329 -0.0471 -0.0515
  188DOPC  H11X23221   0.709   5.742  15.232 -1.3852 -1.2011  0.1266
  188DOPC  H11Y23222   0.568   5.803  15.156  0.9407  1.7184 -1.3961
  188DOPC  C31223223   0.553   5.804  15.370 -0.3029 -0.3293  0.0638
  188DOPC  H12X23224   0.485   5.720  15.343  0.0694 -0.1500 -1.5740
  188DOPC  H12Y23225   0.496   5.899  15.380  0.3077  0.6038 -3.7756
  188DOPC  C31323226   0.638   5.771  15.495  0.3108 -0.2217 -0.0356
  188DOPC  H13X23227   0.683   5.671  15.476  1.0173 -0.0482  0.7197
  188DOPC  H13Y23228   0.720   5.842  15.516  1.1221 -1.3779  0.8389
  188DOPC  C31423229   0.549   5.768  15.617 -0.4165 -0.0339  0.2932
  188DOPC  H14X23230   0.519   5.870  15.649 -1.8188 -0.8320  1.6668
  188DOPC  H14Y23231   0.454   5.711  15.604 -1.1409  1.0080  0.8172
  188DOPC  C31523232   0.621   5.701  15.737  0.0250 -0.5568  0.3651
  188DOPC  H15X23233   0.619   5.591  15.728 -1.4813 -0.8339  3.0456
  188DOPC  H15Y23234   0.557   5.729  15.824 -0.4746  0.8391 -0.4217
  188DOPC  C31623235   0.760   5.759  15.765  0.2239 -0.7287  0.3303
  188DOPC  H16X23236   0.815   5.704  15.845  0.1892  0.1128  0.9454
  188DOPC  H16Y23237   0.825   5.750  15.675  3.0304 -0.5314  2.1869
  188DOPC  C31723238   0.759   5.907  15.811  0.5101  0.2521 -0.9830
  188DOPC  H17X23239   0.688   5.971  15.753  1.8683  2.7881  0.0090
  188DOPC  H17Y23240   0.729   5.915  15.918  1.6264  0.3536 -0.6627
  188DOPC  C31823241   0.904   5.970  15.820  0.8821 -0.1546 -0.2436
  188DOPC  H18X23242   0.907   6.062  15.882  0.9867 -1.6623  2.0969
  188DOPC  H18Y23243   0.967   5.892  15.867  0.8667  1.1905  2.1703
  188DOPC  H18Z23244   0.942   5.989  15.717  0.3038  1.5854 -0.1743
  189DOPC     N23245   1.857   4.173  12.931 -0.1236 -0.8528 -0.4762
  189DOPC   C1223246   1.889   4.068  13.033 -0.1723  0.0523  0.1538
  189DOPC  H12A23247   1.802   4.004  13.044 -0.4558  0.1672 -1.1981
  189DOPC  H12B23248   1.901   4.125  13.124  1.6907 -0.3862  0.2290
  189DOPC   C1323249   1.790   4.110  12.822  0.2866 -0.3389 -0.1930
  189DOPC  H13A23250   1.842   4.018  12.798 -1.1286 -0.8511 -1.4381
  189DOPC  H13B23251   1.689   4.078  12.844  0.3902 -1.0894 -0.7477
  189DOPC  H13C23252   1.788   4.178  12.738 -0.2278 -1.0248 -0.7560
  189DOPC   C1423253   1.972   4.254  12.884 -0.1641  0.1446  0.0916
  189DOPC  H14A23254   2.000   4.311  12.972 -0.4374  0.2794  0.0916
  189DOPC  H14B23255   2.051   4.182  12.867 -0.6760 -1.0309  2.2723
  189DOPC  H14C23256   1.962   4.318  12.798  1.8460 -0.3242 -0.5548
  189DOPC   C1523257   1.753   4.264  12.989 -0.0680  0.2569 -0.1542
  189DOPC  H15A23258   1.714   4.311  12.901  0.7904 -0.0297 -0.7066
  189DOPC  H15B23259   1.792   4.342  13.052  0.1292  1.3254 -1.5601
  189DOPC  H15C23260   1.670   4.215  13.039 -0.6786  1.4578  0.0417
  189DOPC   C1123261   2.001   3.963  13.014  0.1755 -0.2395  0.2435
  189DOPC  H11A23262   2.099   4.015  13.015 -0.8349  1.8462 -1.2370
  189DOPC  H11B23263   2.003   3.882  13.090  0.0172 -0.2726  0.2133
  189DOPC     P23264   2.106   3.870  12.792  0.2520  0.3947 -0.1178
  189DOPC   O1323265   2.178   3.996  12.764  0.3297  0.0443  0.2782
  189DOPC   O1423266   2.057   3.787  12.675 -0.2664 -0.1677 -0.6526
  189DOPC   O1223267   1.985   3.912  12.883  0.0321  0.6883 -0.6994
  189DOPC   O1123268   2.190   3.774  12.890 -0.1309 -0.5544  0.2459
  189DOPC    C123269   2.134   3.650  12.928 -0.1491  0.0971 -0.0420
  189DOPC    HA23270   2.134   3.574  12.847  6.0762 -0.1835 -0.3134
  189DOPC    HB23271   2.030   3.656  12.964 -0.5998 -1.6738 -0.9345
  189DOPC    C223272   2.227   3.585  13.039 -0.5560  0.7056  0.5406
  189DOPC    HS23273   2.174   3.495  13.078  0.6756  0.5587  1.9485
  189DOPC   O2123274   2.244   3.673  13.147 -0.0688 -0.2216 -0.4114
  189DOPC   C2123275   2.146   3.715  13.220  0.3199 -0.1299  0.1973
  189DOPC   O2223276   2.037   3.662  13.215  0.3526  0.4550 -1.1871
  189DOPC   C2223277   2.186   3.832  13.304 -0.7881 -0.7615 -1.3445
  189DOPC   H2R23278   2.111   3.914  13.306  1.0012  0.9301  0.3308
  189DOPC   H2S23279   2.281   3.876  13.269 -0.6744  0.5844  0.4915
  189DOPC    C323280   2.365   3.542  12.976 -0.5676 -0.2039 -0.5614
  189DOPC    HX23281   2.403   3.635  12.931  1.5150 -0.3241  0.8250
  189DOPC    HY23282   2.351   3.462  12.900  2.9783 -3.4835  1.8645
  189DOPC   O3123283   2.444   3.480  13.082 -0.1811 -0.4488 -0.6421
  189DOPC   C3123284   2.555   3.547  13.117 -0.6561  0.2017  0.6972
  189DOPC   O3223285   2.599   3.642  13.059 -0.2700 -0.9639  0.1196
  189DOPC   C3223286   2.605   3.490  13.248  0.7567 -0.2750 -0.2525
  189DOPC   H2X23287   2.603   3.379  13.253  0.4015 -0.2524  0.2159
  189DOPC   H2Y23288   2.714   3.512  13.250  0.9706 -1.3122  0.0288
  189DOPC   C2323289   2.194   3.788  13.455 -0.5623  0.3370 -0.1779
  189DOPC   H3R23290   2.277   3.715  13.464 -0.8818  0.1261  1.3169
  189DOPC   H3S23291   2.103   3.744  13.502 -0.6535 -0.1762 -0.8294
  189DOPC   C2423292   2.241   3.915  13.531 -0.1669 -0.0855 -0.0671
  189DOPC   H4R23293   2.161   3.987  13.504  0.9460  0.6594 -1.5741
  189DOPC   H4S23294   2.333   3.959  13.485  0.7390 -0.9776  0.8280
  189DOPC   C2523295   2.254   3.890  13.682 -0.7718 -0.0128 -0.2006
  189DOPC   H5R23296   2.334   3.815  13.699  1.2305  1.6768 -1.5605
  189DOPC   H5S23297   2.157   3.857  13.726 -0.1540 -0.9109  0.5180
  189DOPC   C2623298   2.284   4.018  13.767  0.6066  0.5930  0.0951
  189DOPC   H6R23299   2.194   4.082  13.758 -0.1730 -0.2790  1.2469
  189DOPC   H6S23300   2.366   4.078  13.722  2.3794 -0.2326  2.0481
  189DOPC   C2723301   2.324   3.982  13.906  0.2992 -0.2556 -0.3006
  189DOPC   H7R23302   2.425   3.934  13.902  0.8512  0.7765  0.7346
  189DOPC   H7S23303   2.268   3.898  13.952 -1.7991  0.6456 -1.0788
  189DOPC   C2823304   2.346   4.104  13.998  0.5249 -0.1234 -0.5300
  189DOPC   H8R23305   2.430   4.174  13.977  2.8220 -2.5934 -0.1457
  189DOPC   H8S23306   2.369   4.052  14.093 -3.1632  1.5856  1.5348
  189DOPC   C2923307   2.228   4.175  14.056  0.5022  0.0604 -0.1384
  189DOPC   H9R23308   2.172   4.220  13.973 -0.2911 -1.3080 -0.3876
  189DOPC  C21023309   2.196   4.195  14.187 -0.1383  0.0146 -0.0502
  189DOPC  H10R23310   2.100   4.243  14.208  0.6348  1.1664  1.0293
  189DOPC  C21123311   2.270   4.153  14.311 -0.3590 -0.1493  0.5393
  189DOPC  H11R23312   2.378   4.134  14.294 -0.9493 -2.2563 -1.2489
  189DOPC  H11S23313   2.218   4.064  14.352 -1.1591 -0.4923 -1.1116
  189DOPC  C21223314   2.261   4.254  14.427  0.2033 -0.7137  0.5352
  189DOPC  H12R23315   2.158   4.290  14.444  0.7807  0.9302  0.7526
  189DOPC  H12S23316   2.315   4.350  14.408  0.3312 -1.2101 -1.9616
  189DOPC  C21323317   2.311   4.199  14.556 -0.1744 -0.5639  0.0516
  189DOPC  H13R23318   2.418   4.227  14.565  0.2266 -0.6907 -3.1083
  189DOPC  H13S23319   2.302   4.089  14.545 -0.8282 -0.5181  0.0539
  189DOPC  C21423320   2.235   4.255  14.680  0.0953 -0.4000  0.3812
  189DOPC  H14R23321   2.125   4.253  14.667 -0.1531 -4.4301  1.7159
  189DOPC  H14S23322   2.262   4.362  14.691 -1.5947 -0.0464  1.3921
  189DOPC  C21523323   2.256   4.182  14.815  0.1334  0.1991  0.5598
  189DOPC  H15R23324   2.243   4.074  14.794  0.7952  0.1566  0.3461
  189DOPC  H15S23325   2.185   4.223  14.889  0.2080  2.6307 -0.6222
  189DOPC  C21623326   2.392   4.207  14.877 -0.1540  0.0376 -0.0852
  189DOPC  H16R23327   2.416   4.313  14.852 -0.5371 -0.1923 -1.5711
  189DOPC  H16S23328   2.462   4.133  14.832  1.6225  1.9451 -0.6167
  189DOPC  C21723329   2.390   4.202  15.029 -0.5585 -0.3668 -0.0292
  189DOPC  H17R23330   2.302   4.262  15.060 -0.4919 -0.7805  1.0011
  189DOPC  H17S23331   2.483   4.253  15.064  0.5397 -0.8746 -2.0501
  189DOPC  C21823332   2.389   4.064  15.088 -0.9848 -0.7461  0.0096
  189DOPC  H18R23333   2.425   4.055  15.192 -1.7397 -0.8278  0.2696
  189DOPC  H18S23334   2.445   3.999  15.016  0.1099  0.1914  0.0004
  189DOPC  H18T23335   2.281   4.037  15.082 -1.3052  0.2858  1.0122
  189DOPC   C3323336   2.529   3.551  13.363 -0.0348  0.5012  0.6336
  189DOPC   H3X23337   2.425   3.514  13.349  0.5701 -1.0354 -0.0186
  189DOPC   H3Y23338   2.525   3.661  13.349 -1.0630  0.2176 -2.0220
  189DOPC   C3423339   2.579   3.506  13.497 -0.2990  0.5664  0.2993
  189DOPC   H4X23340   2.687   3.531  13.501 -0.3545  1.5743 -2.6093
  189DOPC   H4Y23341   2.562   3.396  13.503 -2.6869  0.9217  1.4490
  189DOPC   C3523342   2.508   3.581  13.616  0.2356  0.1182  0.4001
  189DOPC   H5X23343   2.402   3.545  13.614  1.1029 -2.8176  1.3701
  189DOPC   H5Y23344   2.513   3.691  13.602 -3.2672  0.2574 -0.6902
  189DOPC   C3623345   2.570   3.545  13.750  0.2104 -0.2097  0.7708
  189DOPC   H6X23346   2.500   3.599  13.817  0.4221 -0.8129  1.4809
  189DOPC   H6Y23347   2.559   3.435  13.761  0.4022 -0.1535  1.6085
  189DOPC   C3723348   2.711   3.602  13.764  0.8042 -0.3939  0.2903
  189DOPC   H7X23349   2.784   3.522  13.738 -1.3743 -2.8377  1.2988
  189DOPC   H7Y23350   2.716   3.683  13.688 -1.9172 -0.6646 -0.2736
  189DOPC   C3823351   2.744   3.668  13.908  0.0784 -0.5179  0.4364
  189DOPC   H8X23352   2.698   3.769  13.901  1.2170 -0.0059  0.1144
  189DOPC   H8Y23353   2.853   3.680  13.927  0.4530 -0.8073 -1.4062
  189DOPC   C3923354   2.694   3.578  14.022 -0.1464 -0.2672 -0.3563
  189DOPC   H9X23355   2.762   3.500  14.060  0.2563  0.6987  1.0166
  189DOPC  C31023356   2.581   3.595  14.104 -0.5635  0.7692 -0.2093
  189DOPC  H10X23357   2.579   3.526  14.190 -0.7817  1.6679  0.5179
  189DOPC  C31123358   2.463   3.692  14.093  0.1055 -0.8373 -0.0153
  189DOPC  H11X23359   2.380   3.639  14.042 -2.6391  2.2167  0.9061
  189DOPC  H11Y23360   2.492   3.776  14.027 -1.4770 -0.9857 -0.9466
  189DOPC  C31223361   2.418   3.720  14.232  0.1225  0.3936  0.1919
  189DOPC  H12X23362   2.351   3.809  14.226 -1.2431 -0.4927  1.4846
  189DOPC  H12Y23363   2.500   3.741  14.304  3.2465 -1.7090 -2.4679
  189DOPC  C31323364   2.332   3.610  14.300  0.5546  0.3267  0.2236
  189DOPC  H13X23365   2.268   3.571  14.217 -0.7110  0.8263  0.9461
  189DOPC  H13Y23366   2.405   3.536  14.340  0.7628 -0.1006 -0.8976
  189DOPC  C31423367   2.239   3.658  14.421 -0.7203  0.3845  0.6640
  189DOPC  H14X23368   2.178   3.742  14.385 -0.6766 -0.2430 -0.9375
  189DOPC  H14Y23369   2.167   3.578  14.450 -0.5788 -0.0620 -0.1902
  189DOPC  C31523370   2.320   3.707  14.535  0.6819 -1.0289  0.0040
  189DOPC  H15X23371   2.351   3.813  14.519  2.9109 -1.1377  2.7565
  189DOPC  H15Y23372   2.414   3.649  14.545  1.4738  0.2976  0.5844
  189DOPC  C31623373   2.251   3.707  14.667 -0.1391 -0.4805  0.3875
  189DOPC  H16X23374   2.175   3.788  14.661 -0.5273 -0.8330  0.4194
  189DOPC  H16Y23375   2.189   3.615  14.671 -0.7193 -0.1493 -0.6206
  189DOPC  C31723376   2.345   3.720  14.785 -0.0668 -0.6728 -0.2527
  189DOPC  H17X23377   2.286   3.735  14.878  0.2087 -0.5566 -0.0935
  189DOPC  H17Y23378   2.401   3.626  14.801  1.3852  0.5262  2.4832
  189DOPC  C31823379   2.442   3.834  14.771 -0.4242  0.4125  0.0255
  189DOPC  H18X23380   2.509   3.802  14.688  0.1106  0.0794  0.5763
  189DOPC  H18Y23381   2.388   3.925  14.739 -0.1160  1.4400  2.2250
  189DOPC  H18Z23382   2.499   3.856  14.864 -0.3202  0.5355 -0.0669
  190DOPC     N23383   1.937   5.354  12.894 -0.1773  0.1659  0.1949
  190DOPC   C1223384   1.908   5.263  13.012 -0.3642 -0.0401 -0.2218
  190DOPC  H12A23385   1.900   5.163  12.974 -1.6731 -0.5248  1.2341
  190DOPC  H12B23386   1.812   5.293  13.051 -0.7913 -1.6688  0.0234
  190DOPC   C1323387   1.820   5.334  12.795  0.1664 -0.4901 -0.7394
  190DOPC  H13A23388   1.823   5.232  12.758  0.1419 -1.2475  1.2239
  190DOPC  H13B23389   1.722   5.343  12.838 -0.1328 -0.7791 -1.3492
  190DOPC  H13C23390   1.815   5.415  12.724 -0.3538  0.4340  0.3142
  190DOPC   C1423391   2.066   5.323  12.823  0.2507 -1.0848  0.8152
  190DOPC  H14A23392   2.149   5.352  12.885 -1.1189  0.7882  1.8637
  190DOPC  H14B23393   2.067   5.220  12.790 -0.0174  0.2603 -4.2674
  190DOPC  H14C23394   2.074   5.386  12.736 -2.2047  1.2831  2.1528
  190DOPC   C1523395   1.935   5.506  12.930 -1.2292 -0.4542  0.1249
  190DOPC  H15A23396   1.978   5.561  12.848 -2.3552  1.2337  0.6102
  190DOPC  H15B23397   1.981   5.511  13.028 -1.0275 -0.7485  0.0447
  190DOPC  H15C23398   1.831   5.528  12.950 -0.7025 -0.6438  3.9204
  190DOPC   C1123399   2.008   5.283  13.136  0.7927 -0.0720  0.1694
  190DOPC  H11A23400   1.984   5.201  13.208 -3.3779 -0.2263 -1.0833
  190DOPC  H11B23401   2.109   5.285  13.091 -0.0577  1.5269 -1.8360
  190DOPC     P23402   1.847   5.421  13.290 -0.2459  0.1945  0.1776
  190DOPC   O1323403   1.750   5.315  13.257  0.4196  0.0081  0.2144
  190DOPC   O1423404   1.797   5.556  13.270  0.1846 -0.1478  0.2048
  190DOPC   O1223405   1.977   5.409  13.206 -0.5849 -0.2790 -0.3418
  190DOPC   O1123406   1.890   5.401  13.442 -0.1471  0.2372  0.1490
  190DOPC    C123407   2.007   5.416  13.509 -0.0586 -0.3552  0.6454
  190DOPC    HA23408   2.010   5.507  13.572  1.8455 -1.2108  1.8976
  190DOPC    HB23409   2.093   5.420  13.440 -0.4145  1.0042  0.2472
  190DOPC    C223410   2.031   5.302  13.616 -0.2545  0.1373 -0.2037
  190DOPC    HS23411   2.104   5.342  13.689  1.2815 -0.3110 -1.4439
  190DOPC   O2123412   2.084   5.182  13.553  0.1169  0.2582 -0.1919
  190DOPC   C2123413   2.204   5.196  13.499  0.5553  0.1787 -0.4112
  190DOPC   O2223414   2.272   5.294  13.508 -0.6889 -0.3370 -0.0601
  190DOPC   C2223415   2.253   5.062  13.443 -0.0508  0.2756 -0.3880
  190DOPC   H2R23416   2.204   5.053  13.344 -1.6784 -1.5464  0.5079
  190DOPC   H2S23417   2.208   4.981  13.504 -0.8956  1.1289  0.1433
  190DOPC    C323418   1.891   5.272  13.689 -0.3995 -0.5388  0.5452
  190DOPC    HX23419   1.839   5.213  13.610 -0.9395  1.7539 -0.9058
  190DOPC    HY23420   1.843   5.369  13.712  0.2606  0.0107 -0.3754
  190DOPC   O3123421   1.906   5.188  13.807  0.0624  0.1717  0.2514
  190DOPC   C3123422   1.974   5.241  13.908 -0.0180 -0.1255 -0.1063
  190DOPC   O3223423   2.022   5.351  13.910 -0.2057  0.1559 -0.3069
  190DOPC   C3223424   1.981   5.134  14.023  0.2231 -0.2399  0.6144
  190DOPC   H2X23425   1.884   5.103  14.068  0.5355 -1.5104  0.4638
  190DOPC   H2Y23426   2.024   5.042  13.979  0.5419  0.1579  0.0871
  190DOPC   C2323427   2.410   5.037  13.431 -0.2740 -0.0255 -0.4140
  190DOPC   H3R23428   2.466   5.130  13.406  1.3071 -0.7871  0.1820
  190DOPC   H3S23429   2.421   4.969  13.343  0.1809 -0.3115 -0.1418
  190DOPC   C2423430   2.468   4.967  13.553 -0.1115  0.0385 -0.4694
  190DOPC   H4R23431   2.574   4.944  13.530 -0.2456 -1.7251  0.4542
  190DOPC   H4S23432   2.420   4.867  13.557  0.4772 -0.2136  1.2376
  190DOPC   C2523433   2.463   5.051  13.678  0.0654  0.2847  0.6162
  190DOPC   H5R23434   2.355   5.055  13.702 -1.4169 -4.8156 -3.2092
  190DOPC   H5S23435   2.516   5.145  13.651  1.1406 -0.7639 -1.1222
  190DOPC   C2623436   2.538   4.990  13.798 -0.7037 -0.9208 -0.2729
  190DOPC   H6R23437   2.645   4.973  13.776 -0.9004 -4.0750  0.6792
  190DOPC   H6S23438   2.495   4.889  13.818  2.2462 -2.3971 -0.8584
  190DOPC   C2723439   2.547   5.062  13.932  0.0301  0.5811  0.1787
  190DOPC   H7R23440   2.442   5.084  13.960 -0.3476 -1.6386  0.6654
  190DOPC   H7S23441   2.604   5.157  13.923 -1.3835  1.6165  1.5307
  190DOPC   C2823442   2.616   4.986  14.044  0.2139  1.1164  0.3009
  190DOPC   H8R23443   2.623   5.063  14.124  1.7820  0.5942  0.7139
  190DOPC   H8S23444   2.719   4.966  14.007  0.2174  1.3079  0.2044
  190DOPC   C2923445   2.539   4.859  14.082 -0.1972  0.1176 -0.2523
  190DOPC   H9R23446   2.538   4.783  14.002  1.0905 -1.1819  0.9057
  190DOPC  C21023447   2.482   4.830  14.195  0.6778 -0.4522  0.1746
  190DOPC  H10R23448   2.429   4.734  14.203 -0.8083 -0.1116 -3.6117
  190DOPC  C21123449   2.453   4.919  14.318 -0.0165 -1.3255  0.3750
  190DOPC  H11R23450   2.343   4.928  14.325 -0.0119  0.3025 -1.0367
  190DOPC  H11S23451   2.489   5.023  14.303 -0.4590 -0.9290  1.8840
  190DOPC  C21223452   2.517   4.866  14.446  0.2323  0.3700 -0.2590
  190DOPC  H12R23453   2.617   4.827  14.418 -0.2449 -1.6230  0.6498
  190DOPC  H12S23454   2.452   4.783  14.480 -1.2441  1.0884 -1.2168
  190DOPC  C21323455   2.525   4.975  14.559 -0.6244  0.0428 -0.4575
  190DOPC  H13R23456   2.422   5.016  14.569 -1.0075 -0.5791 -1.6997
  190DOPC  H13S23457   2.586   5.060  14.521  0.1305  0.4638  1.5826
  190DOPC  C21423458   2.594   4.925  14.686 -0.3105 -0.5896  0.2305
  190DOPC  H14R23459   2.700   4.902  14.664 -0.7242 -0.8611 -1.6372
  190DOPC  H14S23460   2.547   4.826  14.709 -0.9023 -0.4596 -0.3915
  190DOPC  C21523461   2.571   4.997  14.822 -0.0737  0.4828 -0.3815
  190DOPC  H15R23462   2.466   4.978  14.854 -0.2009  0.5353 -0.7569
  190DOPC  H15S23463   2.567   5.105  14.795  0.2693  0.5150 -0.3106
  190DOPC  C21623464   2.662   4.968  14.936 -0.2851  0.5570  0.1134
  190DOPC  H16R23465   2.769   4.984  14.912 -0.2597  1.8447  0.9976
  190DOPC  H16S23466   2.660   4.865  14.977  3.0902  0.2776 -0.1549
  190DOPC  C21723467   2.639   5.061  15.064  0.3219 -0.1471  0.1889
  190DOPC  H17R23468   2.529   5.064  15.083  0.6784  3.2012  2.5550
  190DOPC  H17S23469   2.662   5.168  15.047  0.2169 -0.1681 -0.0849
  190DOPC  C21823470   2.691   5.005  15.199  0.4901  0.2963  0.6461
  190DOPC  H18R23471   2.654   4.902  15.219 -1.5200  0.9695  0.6561
  190DOPC  H18S23472   2.666   5.079  15.278  0.5927  1.2132 -0.1632
  190DOPC  H18T23473   2.801   4.998  15.191  0.3472 -0.7390 -0.9360
  190DOPC   C3323474   2.079   5.165  14.138 -0.4578 -0.0125 -0.3457
  190DOPC   H3X23475   2.132   5.262  14.125 -0.8396  0.1696 -0.5618
  190DOPC   H3Y23476   2.149   5.080  14.149  0.5298  0.9253  1.1144
  190DOPC   C3423477   2.016   5.158  14.279  0.4279  0.3127 -0.1600
  190DOPC   H4X23478   1.960   5.063  14.295  3.0356 -1.5060 -1.0821
  190DOPC   H4Y23479   1.941   5.239  14.292  0.3869  0.3902 -0.8382
  190DOPC   C3523480   2.120   5.166  14.399 -0.1785  0.1900 -0.4492
  190DOPC   H5X23481   2.181   5.258  14.387  1.1898 -0.7963 -1.4292
  190DOPC   H5Y23482   2.186   5.076  14.403 -0.9732 -0.3737  0.6658
  190DOPC   C3623483   2.041   5.164  14.538 -0.2803 -0.3312 -0.2610
  190DOPC   H6X23484   1.960   5.239  14.528 -2.4816 -2.3541  1.3099
  190DOPC   H6Y23485   1.985   5.069  14.555  0.2136 -0.6746 -0.5087
  190DOPC   C3723486   2.140   5.194  14.659  0.0899 -0.1349 -0.1837
  190DOPC   H7X23487   2.236   5.138  14.651  1.3079  2.0098 -1.3103
  190DOPC   H7Y23488   2.172   5.300  14.663  2.8815 -0.9149  0.9327
  190DOPC   C3823489   2.076   5.157  14.794  0.1654 -0.1884  0.5816
  190DOPC   H8X23490   2.071   5.046  14.804  1.9618 -0.3508 -0.0158
  190DOPC   H8Y23491   1.974   5.197  14.811 -0.3366 -1.0012 -0.3685
  190DOPC   C3923492   2.159   5.219  14.898 -0.0423 -0.1362  0.7758
  190DOPC   H9X23493   2.170   5.328  14.888  1.7180 -0.4909 -3.2967
  190DOPC  C31023494   2.216   5.153  14.997 -0.3686  0.3608 -0.4513
  190DOPC  H10X23495   2.276   5.207  15.072  0.7238 -0.6336 -0.5862
  190DOPC  C31123496   2.217   5.005  15.029  0.4008  0.3716 -0.1602
  190DOPC  H11X23497   2.313   4.956  15.004  0.4012 -0.3430  1.1384
  190DOPC  H11Y23498   2.134   4.950  14.980  0.2970 -0.7222  1.1936
  190DOPC  C31223499   2.200   4.989  15.184  0.4421 -0.3799  0.2375
  190DOPC  H12X23500   2.198   4.879  15.199  0.2353 -0.8525 -2.7197
  190DOPC  H12Y23501   2.101   5.039  15.197 -0.4911 -2.3552  1.0675
  190DOPC  C31323502   2.310   5.048  15.280 -0.3178  0.8420 -0.1201
  190DOPC  H13X23503   2.408   5.005  15.252 -0.6053  0.9507 -1.3665
  190DOPC  H13Y23504   2.317   5.158  15.270 -1.9112  0.7484 -3.8367
  190DOPC  C31423505   2.280   5.003  15.428 -0.7805  0.4507  0.9022
  190DOPC  H14X23506   2.174   5.017  15.456 -1.4732  0.5554 -1.5633
  190DOPC  H14Y23507   2.312   4.899  15.449 -2.6164 -0.0473  1.3840
  190DOPC  C31523508   2.358   5.099  15.520 -0.0814 -0.4677 -0.1109
  190DOPC  H15X23509   2.330   5.200  15.484 -1.7657 -1.6042 -2.2342
  190DOPC  H15Y23510   2.466   5.080  15.502 -0.2299 -0.1698 -1.3552
  190DOPC  C31623511   2.314   5.081  15.668 -0.2259 -0.2018 -0.4454
  190DOPC  H16X23512   2.336   5.179  15.716  1.4205  0.5388 -2.5511
  190DOPC  H16Y23513   2.203   5.079  15.665 -0.2052 -1.1053 -2.5885
  190DOPC  C31723514   2.378   4.971  15.742  0.0971 -0.1887  0.6367
  190DOPC  H17X23515   2.355   4.874  15.691  1.1025  0.4242 -1.0503
  190DOPC  H17Y23516   2.488   4.981  15.733  0.2673  1.2407  3.3841
  190DOPC  C31823517   2.345   4.953  15.888 -0.3116 -0.7132 -0.2555
  190DOPC  H18X23518   2.397   4.860  15.921  0.5193 -0.4384 -0.7719
  190DOPC  H18Y23519   2.382   5.040  15.947 -0.6419  0.4086 -1.6442
  190DOPC  H18Z23520   2.235   4.941  15.899 -0.4604  0.6432 -0.0821
  191DOPC     N23521   1.834   1.811  12.940 -0.2561  0.2266 -0.5019
  191DOPC   C1223522   1.915   1.932  12.973  0.1594  0.5368  0.3289
  191DOPC  H12A23523   1.883   1.984  13.063  1.2514  0.3537  0.8505
  191DOPC  H12B23524   1.910   2.008  12.897  2.2014  1.9297  1.4680
  191DOPC   C1323525   1.801   1.724  13.059  0.1794 -0.3234 -0.1947
  191DOPC  H13A23526   1.891   1.723  13.118  0.9238 -1.1834 -1.3036
  191DOPC  H13B23527   1.732   1.761  13.134  1.3877  1.3341  0.1605
  191DOPC  H13C23528   1.783   1.623  13.027 -0.7048  0.2324 -1.5059
  191DOPC   C1423529   1.905   1.727  12.842 -0.0957  0.1382  0.7146
  191DOPC  H14A23530   1.943   1.779  12.755  1.4119 -2.0651 -0.0364
  191DOPC  H14B23531   2.003   1.704  12.880  0.3085 -0.0992 -0.4140
  191DOPC  H14C23532   1.850   1.643  12.801  1.1881  0.2893 -1.4977
  191DOPC   C1523533   1.715   1.860  12.880 -0.4532 -0.7596  0.3056
  191DOPC  H15A23534   1.643   1.781  12.864 -0.6847 -0.5518  0.3298
  191DOPC  H15B23535   1.731   1.915  12.788  0.6438 -1.1981  0.2147
  191DOPC  H15C23536   1.666   1.935  12.940  0.0410 -0.9527  0.9571
  191DOPC   C1123537   2.065   1.916  12.984  0.9332 -0.2053  0.0356
  191DOPC  H11A23538   2.116   2.009  13.017 -0.2838  0.4239  0.2377
  191DOPC  H11B23539   2.087   1.835  13.056  1.4369 -0.9572 -0.9511
  191DOPC     P23540   2.138   1.986  12.750  0.3351 -0.3877  0.0223
  191DOPC   O1323541   2.012   2.061  12.742  0.2032 -0.1721 -0.3852
  191DOPC   O1423542   2.191   1.921  12.626  0.0136 -0.3564  0.2136
  191DOPC   O1223543   2.125   1.874  12.860 -0.2675  0.2859  0.0068
  191DOPC   O1123544   2.244   2.085  12.812  0.0937  0.8954 -0.4050
  191DOPC    C123545   2.382   2.050  12.826 -0.7795 -0.2823 -0.8477
  191DOPC    HA23546   2.439   2.119  12.761 -0.2909 -0.7901 -0.9648
  191DOPC    HB23547   2.408   1.947  12.793 -0.6877 -1.3096  2.0867
  191DOPC    C223548   2.426   2.064  12.978 -0.0835  0.3819 -0.1717
  191DOPC    HS23549   2.537   2.070  12.973  0.0479 -0.9046  0.7233
  191DOPC   O2123550   2.391   1.953  13.064  0.9751  0.1204  0.2160
  191DOPC   C2123551   2.454   1.839  13.042 -0.6307  0.4090 -0.3627
  191DOPC   O2223552   2.544   1.821  12.964 -0.4058 -0.1785  0.1983
  191DOPC   C2223553   2.402   1.733  13.136 -0.9327  0.2319  0.0506
  191DOPC   H2R23554   2.476   1.651  13.128 -0.7065  0.4893 -0.5769
  191DOPC   H2S23555   2.301   1.703  13.100 -0.1820  1.5285 -3.6013
  191DOPC    C323556   2.380   2.200  13.038  0.1954 -0.6100 -0.2599
  191DOPC    HX23557   2.269   2.196  13.037  0.0971  1.3664 -1.1637
  191DOPC    HY23558   2.394   2.286  12.970 -3.0233  1.2120  1.0944
  191DOPC   O3123559   2.442   2.221  13.166  0.3795  0.3278 -0.7253
  191DOPC   C3123560   2.368   2.275  13.262  0.1621  0.2612 -0.0383
  191DOPC   O3223561   2.251   2.304  13.250  0.1839  0.1633 -0.5427
  191DOPC   C3223562   2.446   2.275  13.396 -0.0959 -0.0125 -0.2083
  191DOPC   H2X23563   2.497   2.180  13.422  1.2045  0.5208 -0.7386
  191DOPC   H2Y23564   2.527   2.348  13.379  0.8281 -1.0310 -0.3444
  191DOPC   C2323565   2.395   1.784  13.281  0.2934  0.2526  0.0023
  191DOPC   H3R23566   2.357   1.701  13.344  0.1149  0.9897  0.8913
  191DOPC   H3S23567   2.326   1.872  13.287  0.4143  0.6294 -2.8590
  191DOPC   C2423568   2.522   1.810  13.357  0.2127  0.1893  0.9584
  191DOPC   H4R23569   2.568   1.897  13.307  1.0263 -0.3913  0.6852
  191DOPC   H4S23570   2.587   1.720  13.357  0.3730  0.1556 -2.9520
  191DOPC   C2523571   2.510   1.840  13.508  0.3476  0.1573 -0.2584
  191DOPC   H5R23572   2.447   1.760  13.552  1.8080 -0.3436  1.0340
  191DOPC   H5S23573   2.455   1.936  13.510 -0.8950 -0.5455  0.2853
  191DOPC   C2623574   2.643   1.857  13.575  0.0223 -0.9215  0.2296
  191DOPC   H6R23575   2.698   1.932  13.515 -1.3945  0.3443  0.4430
  191DOPC   H6S23576   2.703   1.764  13.569  2.2988  0.4553  0.4687
  191DOPC   C2723577   2.652   1.902  13.724 -0.2080 -0.3689  0.5849
  191DOPC   H7R23578   2.577   1.984  13.732  0.3825  0.5289 -2.0368
  191DOPC   H7S23579   2.755   1.940  13.736  0.8455 -2.2581 -1.6452
  191DOPC   C2823580   2.624   1.790  13.833  0.0073 -0.1452 -0.2905
  191DOPC   H8R23581   2.663   1.815  13.934  0.7279 -1.2592 -0.2826
  191DOPC   H8S23582   2.689   1.703  13.813 -0.5768 -0.1198 -2.5924
  191DOPC   C2923583   2.475   1.754  13.828  0.3058  0.2234 -0.4672
  191DOPC   H9R23584   2.415   1.827  13.773 -4.0008 -1.5586  1.3899
  191DOPC  C21023585   2.404   1.656  13.899  0.0479 -1.0062  0.1905
  191DOPC  H10R23586   2.295   1.649  13.891 -0.4599  3.4995  0.2630
  191DOPC  C21123587   2.470   1.551  13.990  0.2020 -0.2494  0.8162
  191DOPC  H11R23588   2.576   1.573  14.017 -0.0821  1.1977  0.8520
  191DOPC  H11S23589   2.452   1.451  13.946 -0.1787  0.5902 -1.0123
  191DOPC  C21223590   2.396   1.559  14.123  0.1416  0.7770  0.0815
  191DOPC  H12R23591   2.297   1.510  14.112  1.3693 -2.1624  1.0455
  191DOPC  H12S23592   2.376   1.663  14.157  1.0796  0.1800  2.7034
  191DOPC  C21323593   2.458   1.478  14.235  0.5339  0.9882  0.6219
  191DOPC  H13R23594   2.555   1.526  14.262  0.5122  2.7124 -1.9657
  191DOPC  H13S23595   2.466   1.376  14.191 -1.6931  1.2349 -0.5005
  191DOPC  C21423596   2.370   1.460  14.362  0.1842 -0.5071  0.1238
  191DOPC  H14R23597   2.274   1.414  14.328 -0.5899  1.2432 -0.1541
  191DOPC  H14S23598   2.348   1.563  14.395 -1.0284 -0.6164 -0.2867
  191DOPC  C21523599   2.433   1.381  14.475 -0.4007 -0.2970  0.0166
  191DOPC  H15R23600   2.531   1.425  14.504  0.3231 -0.0541 -2.5776
  191DOPC  H15S23601   2.446   1.275  14.443 -0.9157 -0.8658  1.5713
  191DOPC  C21623602   2.344   1.383  14.593  0.3348 -0.5168 -1.1197
  191DOPC  H16R23603   2.246   1.334  14.573 -0.2544 -0.3360  1.0651
  191DOPC  H16S23604   2.313   1.486  14.622  0.7702 -0.8467  0.5974
  191DOPC  C21723605   2.402   1.318  14.718 -0.1322  0.3011 -0.1905
  191DOPC  H17R23606   2.497   1.370  14.744  0.2852 -0.9542  0.9060
  191DOPC  H17S23607   2.432   1.213  14.698 -0.2888 -0.0943  1.5271
  191DOPC  C21823608   2.298   1.319  14.829 -0.7992  0.3661  0.2049
  191DOPC  H18R23609   2.325   1.245  14.907  0.5973  1.1192  0.4758
  191DOPC  H18S23610   2.205   1.285  14.778  1.2554 -1.2288 -2.8031
  191DOPC  H18T23611   2.297   1.417  14.881 -0.0103  0.0944  0.7537
  191DOPC   C3323612   2.353   2.301  13.524  0.3629 -0.4434  0.2264
  191DOPC   H3X23613   2.283   2.215  13.514 -2.2292  1.6336 -0.4422
  191DOPC   H3Y23614   2.296   2.396  13.517  0.2603 -0.5993 -1.2936
  191DOPC   C3423615   2.417   2.300  13.664 -0.1341  0.1157  0.0390
  191DOPC   H4X23616   2.486   2.385  13.643  0.3500 -0.2331  0.2009
  191DOPC   H4Y23617   2.466   2.201  13.676 -1.7755 -0.7898 -0.4311
  191DOPC   C3523618   2.329   2.339  13.781  0.3500  0.3290 -0.4602
  191DOPC   H5X23619   2.243   2.270  13.792  1.8513 -1.2079  3.7853
  191DOPC   H5Y23620   2.279   2.434  13.754  0.5971  0.4486 -0.5026
  191DOPC   C3623621   2.392   2.338  13.922  0.6239  0.6115 -0.4206
  191DOPC   H6X23622   2.483   2.402  13.923 -0.4411  2.1637  0.2513
  191DOPC   H6Y23623   2.324   2.369  14.004 -1.7864  0.3578 -2.2207
  191DOPC   C3723624   2.439   2.195  13.970  0.0376  0.1198 -0.1739
  191DOPC   H7X23625   2.357   2.121  13.982  0.6263 -0.5797 -0.3090
  191DOPC   H7Y23626   2.508   2.153  13.892  0.2695 -1.5949  0.8899
  191DOPC   C3823627   2.516   2.197  14.101 -0.4782 -0.7080 -0.3396
  191DOPC   H8X23628   2.581   2.287  14.099 -0.5808 -0.6432 -1.3129
  191DOPC   H8Y23629   2.580   2.107  14.116  1.7148  0.8927  0.4620
  191DOPC   C3923630   2.431   2.201  14.217 -0.0635 -0.1026 -0.4461
  191DOPC   H9X23631   2.337   2.257  14.205 -0.6996 -0.9232  0.4452
  191DOPC  C31023632   2.441   2.138  14.334 -0.1882  0.1330  0.7377
  191DOPC  H10X23633   2.355   2.151  14.401  0.8651 -0.2571  2.2259
  191DOPC  C31123634   2.559   2.047  14.382 -0.1600 -0.5133 -0.6024
  191DOPC  H11X23635   2.573   2.078  14.488 -0.5807  1.2671 -1.0372
  191DOPC  H11Y23636   2.657   2.071  14.337 -0.7332  2.3985 -0.4661
  191DOPC  C31223637   2.542   1.893  14.381  0.2284  0.2899 -0.3281
  191DOPC  H12X23638   2.643   1.847  14.375  0.3151  0.6514 -3.8872
  191DOPC  H12Y23639   2.475   1.862  14.298 -0.8660 -0.6827  0.8908
  191DOPC  C31323640   2.458   1.859  14.504 -0.4434  0.1159  0.1094
  191DOPC  H13X23641   2.377   1.932  14.528  0.3289  0.9386  0.2429
  191DOPC  H13Y23642   2.415   1.758  14.485  1.1351 -1.4583  3.8752
  191DOPC  C31423643   2.525   1.853  14.638  0.5973 -0.0243  0.3647
  191DOPC  H14X23644   2.613   1.789  14.618 -0.3407 -0.6331 -2.3481
  191DOPC  H14Y23645   2.551   1.960  14.651  1.2513  0.4265 -3.3866
  191DOPC  C31523646   2.442   1.788  14.756  0.2433  0.3254 -0.4519
  191DOPC  H15X23647   2.417   1.684  14.728  0.5615 -0.5997  2.3271
  191DOPC  H15Y23648   2.342   1.835  14.766  0.3334  0.8508 -1.8350
  191DOPC  C31623649   2.526   1.777  14.882  0.3206  0.2780 -0.1509
  191DOPC  H16X23650   2.615   1.713  14.865 -0.7624 -1.2330 -0.3579
  191DOPC  H16Y23651   2.568   1.875  14.913  1.4456 -0.7916  1.9148
  191DOPC  C31723652   2.448   1.714  15.003  0.0969 -0.0515 -0.0344
  191DOPC  H17X23653   2.360   1.779  15.020 -0.0723 -0.5371  1.0248
  191DOPC  H17Y23654   2.401   1.619  14.968  1.1961 -1.2234  1.5026
  191DOPC  C31823655   2.537   1.696  15.131  0.2982  0.3366  0.5257
  191DOPC  H18X23656   2.598   1.788  15.139 -1.1619  1.2675  1.5542
  191DOPC  H18Y23657   2.482   1.677  15.226  1.1103 -1.5232  0.6831
  191DOPC  H18Z23658   2.615   1.619  15.114  2.0569  2.3212 -0.7915
  192DOPC     N23659   0.058   4.071  12.968  0.2161 -0.5816 -0.1417
  192DOPC   C1223660  -0.058   4.016  12.889  0.5319  0.3617 -0.2512
  192DOPC  H12A23661  -0.074   4.085  12.808 -0.2748  0.4222 -0.0438
  192DOPC  H12B23662  -0.150   4.015  12.946 -0.0245 -3.2871 -0.9900
  192DOPC   C1323663   0.030   4.212  13.017 -0.1594 -0.0029  0.0548
  192DOPC  H13A23664   0.118   4.246  13.069 -0.0210  0.3971 -0.4297
  192DOPC  H13B23665   0.022   4.279  12.933  1.6479  0.5914  0.3033
  192DOPC  H13C23666  -0.051   4.226  13.086 -2.6402  0.0551 -2.6764
  192DOPC   C1423667   0.184   4.077  12.886 -0.0289 -0.0718 -0.2804
  192DOPC  H14A23668   0.209   3.975  12.862 -2.3772 -0.4834 -1.2777
  192DOPC  H14B23669   0.185   4.136  12.795  2.2062  0.9547  0.3435
  192DOPC  H14C23670   0.265   4.123  12.940 -0.5318 -0.2710  0.6653
  192DOPC   C1523671   0.080   3.977  13.080 -0.5481  0.3311  0.2527
  192DOPC  H15A23672   0.168   3.994  13.141 -0.6298 -4.7350  2.2702
  192DOPC  H15B23673   0.090   3.878  13.037  0.7485  0.1522  0.9196
  192DOPC  H15C23674  -0.001   3.978  13.150 -0.0117 -0.9775  0.9260
  192DOPC   C1123675  -0.048   3.876  12.826 -0.3635 -0.4951  0.5290
  192DOPC  H11A23676  -0.120   3.871  12.741 -0.6974  0.7676  0.7160
  192DOPC  H11B23677   0.047   3.879  12.768 -0.5198  0.6865  0.3019
  192DOPC     P23678  -0.179   3.735  12.988  0.0381  0.0750  0.3020
  192DOPC   O1323679  -0.246   3.621  12.925  0.1141 -0.4387  0.2883
  192DOPC   O1423680  -0.266   3.857  13.003  0.3416  0.0438 -0.5287
  192DOPC   O1223681  -0.039   3.764  12.911  0.2835 -0.1346 -0.7066
  192DOPC   O1123682  -0.137   3.683  13.136  0.4111  0.7063 -0.1540
  192DOPC    C123683  -0.061   3.563  13.156 -0.6092 -0.3369 -0.1234
  192DOPC    HA23684   0.006   3.586  13.242  1.1158  0.7156 -1.6573
  192DOPC    HB23685   0.000   3.530  13.070 -0.9414 -2.3425  0.3626
  192DOPC    C223686  -0.157   3.445  13.197 -0.1832 -0.2734 -0.0832
  192DOPC    HS23687  -0.234   3.442  13.117  0.8935 -0.6821 -1.1389
  192DOPC   O2123688  -0.214   3.474  13.326 -0.1331  0.2636 -0.0902
  192DOPC   C2123689  -0.319   3.409  13.370 -0.0867  0.2655  0.2125
  192DOPC   O2223690  -0.410   3.358  13.303  0.0177 -0.0672 -0.5410
  192DOPC   C2223691  -0.310   3.412  13.528  0.1228 -0.3214 -0.1833
  192DOPC   H2R23692  -0.262   3.509  13.553  0.6487 -0.9254  1.2705
  192DOPC   H2S23693  -0.254   3.322  13.561 -1.0758 -0.0632  2.9047
  192DOPC    C323694  -0.079   3.304  13.196  0.8846  0.4747 -0.1776
  192DOPC    HX23695  -0.012   3.306  13.284  1.0139  2.4259 -0.2777
  192DOPC    HY23696  -0.025   3.301  13.099 -1.9782 -0.8315 -1.8553
  192DOPC   O3123697  -0.166   3.194  13.214 -0.0206  0.2163  0.4355
  192DOPC   C3123698  -0.209   3.135  13.099  0.3163  0.4079  0.3190
  192DOPC   O3223699  -0.205   3.186  12.988  0.1113 -0.3847 -0.1947
  192DOPC   C3223700  -0.268   2.997  13.141  0.0237  0.5286 -0.1322
  192DOPC   H2X23701  -0.324   2.960  13.053 -0.9043  0.7666  0.3434
  192DOPC   H2Y23702  -0.195   2.923  13.182 -2.5597 -1.0224  2.0285
  192DOPC   C2323703  -0.454   3.404  13.589  0.5990 -0.0612 -0.4134
  192DOPC   H3R23704  -0.501   3.305  13.570  1.3927 -0.0344 -2.8487
  192DOPC   H3S23705  -0.522   3.476  13.537 -1.1727 -0.4241  1.2839
  192DOPC   C2423706  -0.459   3.448  13.741  0.3103  0.1069  0.3146
  192DOPC   H4R23707  -0.414   3.548  13.758  3.0125 -0.5983 -1.8273
  192DOPC   H4S23708  -0.388   3.380  13.793  1.3569 -0.0429 -1.2343
  192DOPC   C2523709  -0.598   3.449  13.802 -0.3159  0.0518  0.5002
  192DOPC   H5R23710  -0.669   3.389  13.742  0.3794 -0.1199 -0.1719
  192DOPC   H5S23711  -0.641   3.549  13.784 -2.8996 -1.2894 -1.5197
  192DOPC   C2623712  -0.589   3.405  13.950 -0.2320  0.0830 -0.0452
  192DOPC   H6R23713  -0.551   3.301  13.956  0.2088  0.1720 -1.1563
  192DOPC   H6S23714  -0.689   3.398  13.999  0.6590 -0.7479  1.7656
  192DOPC   C2723715  -0.514   3.494  14.054 -0.7951 -1.0200  0.3744
  192DOPC   H7R23716  -0.587   3.569  14.092 -0.2279 -0.1009 -0.2993
  192DOPC   H7S23717  -0.441   3.555  13.997 -0.2998 -0.1840  1.8458
  192DOPC   C2823718  -0.435   3.432  14.165 -0.0812  0.4696  0.1777
  192DOPC   H8R23719  -0.374   3.513  14.211  0.1875  0.7190 -0.5983
  192DOPC   H8S23720  -0.358   3.363  14.124 -0.1949  0.0377  0.6809
  192DOPC   C2923721  -0.528   3.355  14.257 -0.1459 -0.4247  0.0571
  192DOPC   H9R23722  -0.554   3.255  14.219  0.3805 -1.0788  1.3588
  192DOPC  C21023723  -0.595   3.398  14.363  0.5953 -0.1152 -0.9592
  192DOPC  H10R23724  -0.669   3.325  14.400 -0.6518  1.8345  0.6709
  192DOPC  C21123725  -0.597   3.539  14.423  0.1587 -0.3772  0.7226
  192DOPC  H11R23726  -0.702   3.574  14.426  0.4778  0.7124 -0.2005
  192DOPC  H11S23727  -0.542   3.609  14.357  1.8034 -1.4904  0.8620
  192DOPC  C21223728  -0.544   3.554  14.569  0.1983 -0.3180  0.5608
  192DOPC  H12R23729  -0.555   3.660  14.601 -1.4131 -0.7938  1.7085
  192DOPC  H12S23730  -0.435   3.535  14.562  0.3370  0.9755 -1.2679
  192DOPC  C21323731  -0.619   3.460  14.664 -0.4442 -0.0244 -0.3494
  192DOPC  H13R23732  -0.555   3.374  14.691 -1.0741 -0.1271  0.8603
  192DOPC  H13S23733  -0.710   3.423  14.612 -0.4221 -2.3906  1.1699
  192DOPC  C21423734  -0.677   3.538  14.785 -0.3646  0.2377 -0.5214
  192DOPC  H14R23735  -0.777   3.504  14.820  0.6166 -0.5847  1.6836
  192DOPC  H14S23736  -0.673   3.646  14.759  1.2847  0.9309  2.2206
  192DOPC  C21523737  -0.579   3.524  14.914 -0.2688 -0.9236  0.1161
  192DOPC  H15R23738  -0.591   3.611  14.982  2.2709  2.7501 -3.6086
  192DOPC  H15S23739  -0.474   3.532  14.881  0.3051  2.0565  2.2111
  192DOPC  C21623740  -0.595   3.387  14.976  0.3205 -0.0294 -0.9738
  192DOPC  H16R23741  -0.576   3.300  14.910 -2.2318 -1.9376  0.5980
  192DOPC  H16S23742  -0.700   3.373  15.007  0.4858 -1.3418 -0.9631
  192DOPC  C21723743  -0.495   3.375  15.098  0.0021 -0.8152 -0.7707
  192DOPC  H17R23744  -0.477   3.468  15.156  1.7385 -0.5109 -1.7321
  192DOPC  H17S23745  -0.396   3.350  15.056  0.5925  0.4664 -0.1965
  192DOPC  C21823746  -0.539   3.261  15.196  0.1185 -0.1669  0.4853
  192DOPC  H18R23747  -0.625   3.287  15.261 -0.1085 -1.0084  0.5345
  192DOPC  H18S23748  -0.459   3.225  15.264 -1.0803 -1.6451  1.1865
  192DOPC  H18T23749  -0.571   3.171  15.137  0.3079 -0.7106  1.1987
  192DOPC   C3323750  -0.380   3.002  13.246 -0.1739 -0.2821  0.5521
  192DOPC   H3X23751  -0.440   2.911  13.228 -0.0423 -0.4834  1.1079
  192DOPC   H3Y23752  -0.439   3.093  13.223  2.3154  1.0836 -0.9587
  192DOPC   C3423753  -0.325   3.003  13.390  0.2701 -0.2318  0.4040
  192DOPC   H4X23754  -0.259   3.091  13.409 -0.8841  1.1110 -1.4243
  192DOPC   H4Y23755  -0.262   2.913  13.403  0.6566 -0.2320 -1.2271
  192DOPC   C3523756  -0.441   3.013  13.493 -0.0015  0.3823 -0.5437
  192DOPC   H5X23757  -0.490   2.914  13.482  1.5983 -0.3932 -1.0513
  192DOPC   H5Y23758  -0.505   3.097  13.461  1.2626  2.3531  1.7371
  192DOPC   C3623759  -0.387   3.030  13.635  0.3153 -0.1610 -0.2546
  192DOPC   H6X23760  -0.317   3.116  13.636  2.3199 -1.7068  1.1105
  192DOPC   H6Y23761  -0.476   3.039  13.701  0.7585  3.2700  0.0590
  192DOPC   C3723762  -0.303   2.907  13.690  0.7292 -0.2603 -0.5074
  192DOPC   H7X23763  -0.321   2.816  13.629 -0.7324 -1.3579  1.4479
  192DOPC   H7Y23764  -0.197   2.934  13.667  0.0544  1.0151 -2.4288
  192DOPC   C3823765  -0.335   2.885  13.835  0.5051  0.0655 -0.3632
  192DOPC   H8X23766  -0.296   2.788  13.872  3.6815  1.2085 -0.4030
  192DOPC   H8Y23767  -0.442   2.881  13.867  0.5182  1.8080 -0.0232
  192DOPC   C3923768  -0.271   2.989  13.926 -0.0604 -0.4216 -0.4390
  192DOPC   H9X23769  -0.176   3.020  13.880  0.3302  1.1631  1.3233
  192DOPC  C31023770  -0.317   3.037  14.041 -0.7665  0.1494 -0.5111
  192DOPC  H10X23771  -0.244   3.091  14.103  1.1585 -0.9256 -1.7462
  192DOPC  C31123772  -0.430   2.975  14.121  0.4101 -0.3072 -0.0500
  192DOPC  H11X23773  -0.459   2.882  14.068  3.0578 -1.5628  0.5355
  192DOPC  H11Y23774  -0.524   3.033  14.103 -0.1054 -0.4234  2.0309
  192DOPC  C31223775  -0.405   2.926  14.261 -0.1994 -0.0416  0.7890
  192DOPC  H12X23776  -0.321   2.855  14.250  0.1343  0.5025 -0.3286
  192DOPC  H12Y23777  -0.497   2.866  14.279  0.6580 -1.6426  0.0218
  192DOPC  C31323778  -0.378   3.031  14.362  0.7939 -1.1753  0.5422
  192DOPC  H13X23779  -0.300   3.106  14.337  0.2249 -1.0695 -1.0207
  192DOPC  H13Y23780  -0.472   3.090  14.370 -1.4607 -4.5488  0.5710
  192DOPC  C31423781  -0.356   2.985  14.505 -0.1590 -0.2560 -0.0590
  192DOPC  H14X23782  -0.435   2.908  14.519 -1.9142  1.1885 -1.4636
  192DOPC  H14Y23783  -0.259   2.932  14.519 -0.4134 -1.0786 -1.2046
  192DOPC  C31523784  -0.364   3.105  14.612 -0.0549 -0.5108 -0.2080
  192DOPC  H15X23785  -0.462   3.157  14.602  0.8029  1.6034  1.4572
  192DOPC  H15Y23786  -0.271   3.164  14.596  0.9064 -2.1938 -1.1530
  192DOPC  C31623787  -0.351   3.052  14.761  0.0842  0.6138  0.5550
  192DOPC  H16X23788  -0.249   3.012  14.778 -0.3346 -1.3055 -1.0761
  192DOPC  H16Y23789  -0.361   3.140  14.827  1.0287  0.4218  0.9628
  192DOPC  C31723790  -0.452   2.939  14.801 -0.4687  0.1970  0.2038
  192DOPC  H17X23791  -0.552   2.974  14.767  0.4798  2.8884 -0.0504
  192DOPC  H17Y23792  -0.428   2.851  14.739  2.2302  2.1476 -1.7386
  192DOPC  C31823793  -0.459   2.902  14.948 -0.6183 -0.3880 -0.3940
  192DOPC  H18X23794  -0.481   2.987  15.016 -0.4596 -1.3993  0.9556
  192DOPC  H18Y23795  -0.547   2.836  14.961  0.4413 -2.1281 -1.7120
  192DOPC  H18Z23796  -0.369   2.848  14.982  0.0451  0.4342 -0.8181
  193DOPC     N23797   5.879   5.226  12.798 -0.5523  0.0858 -0.0981
  193DOPC   C1223798   5.793   5.199  12.916  0.2977 -0.2220  0.3786
  193DOPC  H12A23799   5.792   5.097  12.952 -1.4223 -0.3270  0.1060
  193DOPC  H12B23800   5.690   5.224  12.897  0.3092 -0.3928  0.0795
  193DOPC   C1323801   6.022   5.189  12.833  0.3371  0.1686  0.8324
  193DOPC  H13A23802   6.086   5.224  12.753 -0.5112 -1.4838 -0.6387
  193DOPC  H13B23803   6.046   5.228  12.931 -1.0322  0.0836  1.2222
  193DOPC  H13C23804   6.019   5.081  12.832 -0.0635  0.1810 -0.5151
  193DOPC   C1423805   5.876   5.376  12.755  0.4425  0.9499 -0.1773
  193DOPC  H14A23806   5.911   5.438  12.836  1.7113  0.6558 -0.4863
  193DOPC  H14B23807   5.931   5.393  12.664 -1.2272 -1.6493 -1.7912
  193DOPC  H14C23808   5.773   5.404  12.735 -0.6492 -2.3781  0.2278
  193DOPC   C1523809   5.834   5.149  12.681 -0.5074 -0.1988  0.0825
  193DOPC  H15A23810   5.906   5.151  12.601 -2.3357 -0.3883 -1.6305
  193DOPC  H15B23811   5.733   5.178  12.656 -1.6918 -1.7084  2.6964
  193DOPC  H15C23812   5.832   5.044  12.707  0.5154  0.0952  1.4542
  193DOPC   C1123813   5.833   5.274  13.040  0.2450  0.0319 -0.4158
  193DOPC  H11A23814   5.862   5.379  13.016 -1.1228  0.6245  0.4029
  193DOPC  H11B23815   5.745   5.284  13.107 -0.5085 -1.4065 -1.1504
  193DOPC     P23816   5.914   5.067  13.181  0.4126 -0.5822 -0.1568
  193DOPC   O1323817   6.042   5.034  13.250  0.0418  0.2719  0.3466
  193DOPC   O1423818   5.861   4.972  13.079 -0.2733 -0.2817  0.6038
  193DOPC   O1223819   5.933   5.204  13.109 -0.4437  0.0048  0.0826
  193DOPC   O1123820   5.795   5.093  13.288 -0.2435 -0.0417  0.4210
  193DOPC    C123821   5.820   5.205  13.381  0.1723 -0.4225  0.3992
  193DOPC    HA23822   5.721   5.244  13.413  0.4411 -0.4231  1.2747
  193DOPC    HB23823   5.877   5.289  13.336 -1.5324  0.2306 -0.6376
  193DOPC    C223824   5.899   5.176  13.503  0.0086 -0.3744 -0.6802
  193DOPC    HS23825   5.990   5.123  13.467  0.6948 -0.4127  1.0358
  193DOPC   O2123826   5.826   5.089  13.582 -0.4859  0.0234 -0.5376
  193DOPC   C2123827   5.895   5.004  13.651  0.0111 -0.4660 -0.3829
  193DOPC   O2223828   6.015   4.977  13.638 -0.0956  0.2757 -0.4957
  193DOPC   C2223829   5.803   4.942  13.761  0.1987 -0.2600  0.0568
  193DOPC   H2R23830   5.725   4.881  13.709 -0.6919  0.1375  0.8953
  193DOPC   H2S23831   5.748   5.025  13.810  0.2070 -0.1504 -0.1181
  193DOPC    C323832   5.926   5.300  13.585  0.1642  0.1795  0.1469
  193DOPC    HX23833   5.831   5.339  13.628 -0.2591  0.1800 -0.7599
  193DOPC    HY23834   5.968   5.379  13.520 -1.1313  0.6106 -0.2079
  193DOPC   O3123835   6.008   5.275  13.704  0.0015  0.3461  0.0202
  193DOPC   C3123836   6.135   5.301  13.700 -0.2059  1.0582  0.0330
  193DOPC   O3223837   6.199   5.354  13.610 -0.1185 -0.2983  0.1193
  193DOPC   C3223838   6.212   5.256  13.829  0.6289  0.1253 -0.7136
  193DOPC   H2X23839   6.123   5.263  13.896 -0.4216  0.1335 -2.0733
  193DOPC   H2Y23840   6.241   5.151  13.807  1.9824  0.0185  1.3421
  193DOPC   C2323841   5.869   4.865  13.873  0.2146  0.2704 -0.4976
  193DOPC   H3R23842   5.940   4.794  13.826  0.5078  0.7552 -0.7913
  193DOPC   H3S23843   5.798   4.804  13.933 -0.3367 -0.7252 -2.0888
  193DOPC   C2423844   5.943   4.963  13.960 -0.4745  0.0515  0.8043
  193DOPC   H4R23845   5.868   5.021  14.018 -0.1782  1.8493 -0.5219
  193DOPC   H4S23846   5.995   5.038  13.897 -0.2478 -1.9670 -1.6036
  193DOPC   C2523847   6.046   4.896  14.048  0.4684  0.3811  0.5076
  193DOPC   H5R23848   6.102   4.979  14.096 -0.4785  1.7317 -0.6225
  193DOPC   H5S23849   6.117   4.835  13.988 -1.4666 -0.2459 -1.2795
  193DOPC   C2623850   5.999   4.801  14.154 -0.8487 -0.5024  0.2237
  193DOPC   H6R23851   5.996   4.705  14.099  1.4050  0.0100 -0.9386
  193DOPC   H6S23852   5.901   4.840  14.188 -0.0305  1.2750  0.6812
  193DOPC   C2723853   6.090   4.797  14.279 -0.5137  0.0834 -0.2732
  193DOPC   H7R23854   6.186   4.764  14.234 -1.2210 -0.1381 -1.6696
  193DOPC   H7S23855   6.041   4.716  14.336 -0.2417 -1.3785 -2.0335
  193DOPC   C2823856   6.107   4.928  14.357 -0.7413  0.3444 -0.2168
  193DOPC   H8R23857   6.143   5.009  14.291  1.8031 -0.9094 -0.4858
  193DOPC   H8S23858   6.196   4.904  14.420 -0.3251 -0.1157 -0.9579
  193DOPC   C2923859   5.979   4.958  14.430 -0.2115 -0.1383 -0.7976
  193DOPC   H9R23860   5.886   4.958  14.372 -1.1594  0.3132  0.6582
  193DOPC  C21023861   5.976   5.006  14.551  0.8250 -0.4215 -0.3050
  193DOPC  H10R23862   5.877   5.038  14.589 -0.6937 -1.9463 -2.7069
  193DOPC  C21123863   6.089   5.033  14.646 -0.4662 -0.1178  0.4445
  193DOPC  H11R23864   6.083   5.142  14.664  3.9217  0.6202 -1.4406
  193DOPC  H11S23865   6.182   5.028  14.586 -0.5033 -1.0828  0.4382
  193DOPC  C21223866   6.094   4.962  14.779 -0.9240  0.4462  0.0659
  193DOPC  H12R23867   6.196   4.983  14.817 -0.9379  0.5996  0.0178
  193DOPC  H12S23868   6.083   4.851  14.769 -1.0286  0.5454 -1.0826
  193DOPC  C21323869   5.995   5.016  14.887  0.3815 -0.9864 -0.6800
  193DOPC  H13R23870   5.887   5.015  14.860 -0.2543  0.4130  1.4898
  193DOPC  H13S23871   6.010   5.126  14.895 -1.2041 -0.8408  1.1810
  193DOPC  C21423872   6.008   4.952  15.031  0.1443 -0.4922  0.1338
  193DOPC  H14R23873   6.114   4.966  15.061  0.7180  0.9070 -2.2808
  193DOPC  H14S23874   5.979   4.845  15.023 -1.3021 -0.1090 -0.1747
  193DOPC  C21523875   5.914   5.026  15.134 -0.3593 -0.0513  0.5314
  193DOPC  H15R23876   5.811   4.994  15.109  0.3995 -2.1363 -0.1253
  193DOPC  H15S23877   5.935   5.132  15.110  0.4952 -0.4142 -0.3732
  193DOPC  C21623878   5.943   4.978  15.275 -0.0436 -0.0657 -0.4561
  193DOPC  H16R23879   6.049   4.993  15.304 -0.1273 -0.4755  0.0891
  193DOPC  H16S23880   5.928   4.868  15.276  2.8106 -0.5795 -1.7827
  193DOPC  C21723881   5.839   5.044  15.372  0.2997  0.6243  0.0883
  193DOPC  H17R23882   5.738   5.022  15.329 -0.3623  1.2491  1.2718
  193DOPC  H17S23883   5.852   5.153  15.387  2.1902  0.3349  0.7937
  193DOPC  C21823884   5.861   4.966  15.505  0.5586 -0.1738 -0.3000
  193DOPC  H18R23885   5.962   4.976  15.550  0.4890  2.1439 -0.5547
  193DOPC  H18S23886   5.839   4.857  15.501 -0.7442 -0.0506  1.7934
  193DOPC  H18T23887   5.783   5.004  15.574 -0.7509 -0.4590 -1.5659
  193DOPC   C3323888   6.333   5.334  13.875  0.5747  0.4501  0.1360
  193DOPC   H3X23889   6.293   5.437  13.891  0.3872  0.7822 -2.1909
  193DOPC   H3Y23890   6.417   5.322  13.804 -0.0681 -0.0954 -0.5539
  193DOPC   C3423891   6.370   5.282  14.015 -0.2621 -0.0754 -0.1457
  193DOPC   H4X23892   6.461   5.340  14.042 -0.5810  0.8098 -0.9094
  193DOPC   H4Y23893   6.399   5.175  14.022  2.0521  0.6176  2.2280
  193DOPC   C3523894   6.268   5.309  14.130 -0.1372  0.2235  1.0841
  193DOPC   H5X23895   6.165   5.274  14.106 -0.4253  1.0640  1.0411
  193DOPC   H5Y23896   6.257   5.418  14.146 -1.3339  0.4627 -1.0015
  193DOPC   C3623897   6.307   5.241  14.266 -0.2094  0.0385 -0.1512
  193DOPC   H6X23898   6.215   5.248  14.327 -1.6180  0.6822 -2.2456
  193DOPC   H6Y23899   6.324   5.132  14.257 -2.0597 -0.4014  1.0671
  193DOPC   C3723900   6.422   5.316  14.336 -0.7695  0.6281 -0.3400
  193DOPC   H7X23901   6.514   5.309  14.274  0.8999  2.5124  1.7716
  193DOPC   H7Y23902   6.400   5.424  14.353  1.5473  1.0881  0.0774
  193DOPC   C3823903   6.452   5.259  14.475 -0.9724  0.8407  0.8070
  193DOPC   H8X23904   6.552   5.298  14.502 -1.2529  1.3377  1.1379
  193DOPC   H8Y23905   6.472   5.150  14.463  1.4726  1.1775  1.3130
  193DOPC   C3923906   6.351   5.272  14.584  0.3282  0.9224  0.2809
  193DOPC   H9X23907   6.292   5.182  14.605  0.3032  1.0108  0.6009
  193DOPC  C31023908   6.343   5.375  14.676 -0.2556 -0.0047 -0.0453
  193DOPC  H10X23909   6.275   5.383  14.763 -0.4937  1.7779 -0.3485
  193DOPC  C31123910   6.431   5.494  14.655  0.6847 -0.6618 -0.3392
  193DOPC  H11X23911   6.415   5.532  14.552 -2.0649 -0.0538  0.2354
  193DOPC  H11Y23912   6.540   5.474  14.665  1.0409  1.0565 -0.5163
  193DOPC  C31223913   6.391   5.601  14.768 -0.1669  0.2879  0.7968
  193DOPC  H12X23914   6.281   5.613  14.776 -0.1623  2.1104 -0.9736
  193DOPC  H12Y23915   6.428   5.698  14.729  2.5095 -1.3062 -0.9626
  193DOPC  C31323916   6.436   5.559  14.909 -0.1374 -0.4269  1.1763
  193DOPC  H13X23917   6.410   5.451  14.914  0.9425 -0.6662  2.6103
  193DOPC  H13Y23918   6.547   5.567  14.918 -0.1642 -0.8039  1.9424
  193DOPC  C31423919   6.379   5.645  15.019 -0.1899  0.0915 -0.1155
  193DOPC  H14X23920   6.437   5.740  15.011 -1.2129  0.5430 -3.1793
  193DOPC  H14Y23921   6.272   5.671  15.012 -0.2558  2.3179  4.7063
  193DOPC  C31523922   6.400   5.591  15.162 -0.1574  0.3276 -0.0732
  193DOPC  H15X23923   6.509   5.600  15.181  0.0361 -1.3537 -0.2531
  193DOPC  H15Y23924   6.375   5.484  15.179  1.5867  0.2058  2.2196
  193DOPC  C31623925   6.332   5.680  15.263 -0.6379  0.1443 -0.5289
  193DOPC  H16X23926   6.360   5.786  15.240  2.5121 -0.8593 -1.8988
  193DOPC  H16Y23927   6.221   5.677  15.256 -0.9282  2.5641  1.5601
  193DOPC  C31723928   6.365   5.652  15.414  0.3991 -0.0332  0.2784
  193DOPC  H17X23929   6.305   5.562  15.439 -1.3978  0.2574 -2.4915
  193DOPC  H17Y23930   6.472   5.629  15.432  0.9011  1.0333 -1.1767
  193DOPC  C31823931   6.324   5.773  15.495  0.0095  0.5396 -0.4574
  193DOPC  H18X23932   6.214   5.774  15.513  0.2586  1.0864  1.2124
  193DOPC  H18Y23933   6.377   5.767  15.593 -1.3451  0.5829  0.3144
  193DOPC  H18Z23934   6.362   5.865  15.446  0.5020 -0.3063 -1.7136
  194DOPC     N23935   2.071   6.168  12.730  0.0622  0.6237  0.7698
  194DOPC   C1223936   2.154   6.063  12.803 -0.2835 -0.0084 -0.6844
  194DOPC  H12A23937   2.245   6.051  12.746 -0.2689 -1.6390 -0.3652
  194DOPC  H12B23938   2.111   5.965  12.790  1.0954 -1.2058  2.8404
  194DOPC   C1323939   2.162   6.289  12.702  0.7601  0.7283  0.0261
  194DOPC  H13A23940   2.100   6.370  12.665  0.8041  0.5628 -0.4258
  194DOPC  H13B23941   2.207   6.326  12.792  0.5536 -0.6921  0.7463
  194DOPC  H13C23942   2.238   6.270  12.628  0.7298  0.3160  0.0968
  194DOPC   C1423943   1.962   6.217  12.814  0.5062  0.7732  0.2111
  194DOPC  H14A23944   1.894   6.139  12.844  1.2795 -0.2231 -0.4985
  194DOPC  H14B23945   2.005   6.265  12.901 -1.4394 -0.1339  1.7394
  194DOPC  H14C23946   1.905   6.285  12.753  1.7724  0.0899 -1.8499
  194DOPC   C1523947   2.021   6.117  12.602 -0.5441 -0.0533  0.2429
  194DOPC  H15A23948   2.099   6.061  12.552 -0.4931 -0.5339  0.8525
  194DOPC  H15B23949   1.970   6.190  12.540 -3.9838  0.0396  2.8436
  194DOPC  H15C23950   1.938   6.049  12.618 -0.2458 -0.1161  1.6429
  194DOPC   C1123951   2.191   6.079  12.952 -0.4642 -0.1788 -0.4938
  194DOPC  H11A23952   2.275   6.012  12.979 -0.7263 -0.6802 -0.9009
  194DOPC  H11B23953   2.231   6.181  12.969  0.6170 -0.5726 -0.6321
  194DOPC     P23954   2.025   5.907  13.044  0.0400  0.0371 -0.4380
  194DOPC   O1323955   2.076   5.820  12.938 -0.0278  0.0390  0.0810
  194DOPC   O1423956   1.876   5.910  13.070  0.0111 -0.2776 -0.1122
  194DOPC   O1223957   2.075   6.056  13.029 -0.4817  0.5324 -0.2847
  194DOPC   O1123958   2.094   5.869  13.181 -0.2199 -0.5900  0.1045
  194DOPC    C123959   2.125   5.966  13.283  0.6386 -0.0251  0.1465
  194DOPC    HA23960   2.047   6.046  13.288 -1.1260 -1.6273 -0.5499
  194DOPC    HB23961   2.214   6.022  13.249 -0.1266  0.1286 -1.6972
  194DOPC    C223962   2.121   5.897  13.430 -0.2259  0.4942  0.0319
  194DOPC    HS23963   2.127   5.978  13.505 -0.6040 -0.2406  0.8831
  194DOPC   O2123964   2.232   5.805  13.438 -0.1377  0.8146  0.9370
  194DOPC   C2123965   2.280   5.786  13.564  0.7749  0.1555  0.4220
  194DOPC   O2223966   2.241   5.842  13.662 -0.3318  0.0852 -0.7846
  194DOPC   C2223967   2.370   5.662  13.572  0.7899  0.7497 -0.4289
  194DOPC   H2R23968   2.475   5.691  13.552  1.0435  0.6937  0.7795
  194DOPC   H2S23969   2.336   5.580  13.505 -1.7621  0.2976  1.2769
  194DOPC    C323970   1.989   5.818  13.457 -0.5043 -0.1991 -0.4217
  194DOPC    HX23971   1.993   5.745  13.373  1.4401  2.7520 -3.1591
  194DOPC    HY23972   1.897   5.880  13.448  0.0059  0.5841 -0.3233
  194DOPC   O3123973   1.992   5.742  13.579  0.6454  0.6110  0.5076
  194DOPC   C3123974   1.929   5.796  13.680  0.4432 -0.2863 -0.5773
  194DOPC   O3223975   1.873   5.905  13.678 -0.2573  0.0354  0.6205
  194DOPC   C3223976   1.926   5.702  13.801  0.4795 -0.0269  0.2794
  194DOPC   H2X23977   1.831   5.715  13.857 -0.5285 -1.0598 -1.1180
  194DOPC   H2Y23978   1.936   5.594  13.777  0.3069  0.0473 -0.1413
  194DOPC   C2323979   2.365   5.602  13.715 -0.0490  0.5092 -0.2001
  194DOPC   H3R23980   2.262   5.568  13.739  1.0171 -2.7808  0.2327
  194DOPC   H3S23981   2.401   5.676  13.789  0.5878  2.0745 -1.9998
  194DOPC   C2423982   2.452   5.481  13.728 -0.1476  0.2469 -0.0789
  194DOPC   H4R23983   2.557   5.517  13.723 -0.0472  0.5549  2.9311
  194DOPC   H4S23984   2.432   5.417  13.639 -2.5490  3.3064 -1.9928
  194DOPC   C2523985   2.412   5.408  13.855 -0.1874 -0.0739 -0.5682
  194DOPC   H5R23986   2.464   5.311  13.843  0.1646  0.3594 -3.0294
  194DOPC   H5S23987   2.302   5.397  13.866 -0.0258 -0.7127  0.6463
  194DOPC   C2623988   2.462   5.481  13.980 -0.9297  0.3828 -0.6566
  194DOPC   H6R23989   2.427   5.586  13.984  1.2384  1.1147  1.1818
  194DOPC   H6S23990   2.573   5.493  13.983 -0.6323 -1.8561  3.3358
  194DOPC   C2723991   2.431   5.389  14.092  0.0899 -0.4716 -0.6444
  194DOPC   H7R23992   2.481   5.291  14.074  1.9181  0.4210 -0.7032
  194DOPC   H7S23993   2.322   5.369  14.101 -0.1152 -0.0711 -2.0250
  194DOPC   C2823994   2.494   5.446  14.229 -0.6722  0.4576  0.5841
  194DOPC   H8R23995   2.453   5.545  14.257  1.2063  1.7895 -1.0505
  194DOPC   H8S23996   2.602   5.472  14.215 -0.7299 -0.2406 -1.5947
  194DOPC   C2923997   2.489   5.345  14.344 -1.3015 -0.6441 -0.8803
  194DOPC   H9R23998   2.512   5.241  14.317 -1.1274 -0.6531 -0.7076
  194DOPC  C21023999   2.446   5.368  14.470 -0.2487  0.1049 -0.0397
  194DOPC  H10R24000   2.429   5.281  14.535 -1.6004  0.6235  0.3219
  194DOPC  C21124001   2.402   5.498  14.530 -0.0908  0.6035  0.1668
  194DOPC  H11R24002   2.294   5.495  14.556 -1.2455  1.5107 -3.7217
  194DOPC  H11S24003   2.406   5.572  14.447 -0.1851 -0.6884 -1.0260
  194DOPC  C21224004   2.478   5.544  14.651  0.1180 -0.0238  0.0347
  194DOPC  H12R24005   2.461   5.653  14.662 -0.4481  0.1029 -1.6671
  194DOPC  H12S24006   2.589   5.534  14.643  0.3068 -1.5872  3.2235
  194DOPC  C21324007   2.435   5.483  14.783  0.4627  0.1865 -0.1400
  194DOPC  H13R24008   2.435   5.372  14.788  0.3534  0.1659 -0.5746
  194DOPC  H13S24009   2.326   5.501  14.791 -0.0845 -2.9162  0.5701
  194DOPC  C21424010   2.510   5.540  14.906 -0.3621  0.4507 -0.2129
  194DOPC  H14R24011   2.487   5.649  14.904 -1.5528  0.2829  1.4884
  194DOPC  H14S24012   2.618   5.529  14.884 -0.4316  0.0128 -0.3382
  194DOPC  C21524013   2.485   5.495  15.046  0.1776 -0.4079  0.4832
  194DOPC  H15R24014   2.499   5.385  15.053  1.7525 -0.3775 -1.2972
  194DOPC  H15S24015   2.385   5.527  15.082  0.7153  1.8510  0.1053
  194DOPC  C21624016   2.592   5.557  15.141 -0.3420  0.3074 -0.2305
  194DOPC  H16R24017   2.588   5.668  15.140  3.2787  0.6818  2.7412
  194DOPC  H16S24018   2.694   5.524  15.111  0.5894  1.3540  1.6087
  194DOPC  C21724019   2.575   5.526  15.287 -0.2791  0.4912  0.4290
  194DOPC  H17R24020   2.580   5.415  15.290  1.2265  0.3918 -2.1489
  194DOPC  H17S24021   2.482   5.572  15.327 -0.1305 -1.0186  2.6399
  194DOPC  C21824022   2.694   5.578  15.366 -0.2524 -0.4819 -0.0445
  194DOPC  H18R24023   2.683   5.559  15.474  1.5905  2.5657  0.8154
  194DOPC  H18S24024   2.713   5.685  15.341 -3.2665  1.0286  3.2979
  194DOPC  H18T24025   2.786   5.522  15.337  1.1084  1.2409  0.7437
  194DOPC   C3324026   2.036   5.744  13.897  0.1856  0.0929  0.2601
  194DOPC   H3X24027   2.036   5.855  13.901  1.0267  0.1016  0.1512
  194DOPC   H3Y24028   2.132   5.713  13.849 -0.4183 -0.3094 -0.7304
  194DOPC   C3424029   2.021   5.679  14.036 -0.4841  0.0315  0.2554
  194DOPC   H4X24030   2.004   5.571  14.016  0.9741 -0.1541 -0.0610
  194DOPC   H4Y24031   1.930   5.724  14.081 -0.1280  0.5504  0.4696
  194DOPC   C3524032   2.153   5.695  14.124  0.0763 -0.0200 -0.2949
  194DOPC   H5X24033   2.182   5.802  14.131 -0.3015  0.0375  0.5139
  194DOPC   H5Y24034   2.236   5.645  14.070  0.2446 -0.6461  0.5176
  194DOPC   C3624035   2.138   5.622  14.256 -0.2823  0.1239 -0.3890
  194DOPC   H6X24036   2.130   5.512  14.242  0.6024  0.2006 -1.7388
  194DOPC   H6Y24037   2.237   5.644  14.301 -0.3909 -5.3204  3.4803
  194DOPC   C3724038   2.025   5.669  14.347 -0.0266 -0.4847 -0.2127
  194DOPC   H7X24039   2.056   5.763  14.397  0.6628  0.0528 -1.6052
  194DOPC   H7Y24040   1.940   5.703  14.285  1.4893 -0.9530 -2.6594
  194DOPC   C3824041   1.973   5.557  14.442  0.5030  0.1286 -0.2226
  194DOPC   H8X24042   2.062   5.505  14.483 -0.2967  1.3542  3.4770
  194DOPC   H8Y24043   1.926   5.474  14.385  1.6689 -0.1520 -0.8115
  194DOPC   C3924044   1.884   5.604  14.552  0.4757 -0.7792 -0.1326
  194DOPC   H9X24045   1.777   5.615  14.528  1.1903 -0.2058 -3.6804
  194DOPC  C31024046   1.930   5.662  14.661  0.5114  0.8539  0.0619
  194DOPC  H10X24047   1.854   5.691  14.735  0.6364 -0.9445  0.9621
  194DOPC  C31124048   2.071   5.648  14.708 -0.1225  0.2674 -1.0834
  194DOPC  H11X24049   2.148   5.715  14.665  1.1762 -0.4809  0.0072
  194DOPC  H11Y24050   2.120   5.550  14.692  1.9228  1.1339 -0.4756
  194DOPC  C31224051   2.079   5.669  14.861 -0.1418 -0.4910 -0.0045
  194DOPC  H12X24052   2.052   5.774  14.886 -0.7641 -0.3266 -1.2645
  194DOPC  H12Y24053   2.182   5.658  14.900  0.1795  0.1254 -0.6410
  194DOPC  C31324054   1.997   5.567  14.945  0.2551  0.3058 -0.6055
  194DOPC  H13X24055   1.894   5.603  14.967  0.1848 -0.3181  0.1028
  194DOPC  H13Y24056   1.991   5.472  14.887  3.1354 -0.2505 -0.1652
  194DOPC  C31424057   2.057   5.548  15.080  0.6355 -0.0531 -0.0320
  194DOPC  H14X24058   2.163   5.515  15.074  1.2871  1.6553  1.3597
  194DOPC  H14Y24059   2.042   5.643  15.134  3.0973 -0.2394  1.1077
  194DOPC  C31524060   1.985   5.430  15.158  0.7814  0.4707  0.2923
  194DOPC  H15X24061   1.995   5.335  15.102 -1.2541  0.8541 -0.8123
  194DOPC  H15Y24062   1.878   5.457  15.159  0.3089 -1.1552  3.2851
  194DOPC  C31624063   2.034   5.419  15.304 -0.3020 -0.0828 -0.4546
  194DOPC  H16X24064   2.140   5.388  15.310  0.4863  2.4203 -0.4123
  194DOPC  H16Y24065   2.029   5.518  15.354  2.0181  0.7661 -1.7415
  194DOPC  C31724066   1.939   5.331  15.384  0.6559  0.2896 -0.1944
  194DOPC  H17X24067   1.831   5.352  15.364  0.4239 -1.3477 -0.8805
  194DOPC  H17Y24068   1.958   5.232  15.338  0.3387  0.2834 -0.3118
  194DOPC  C31824069   1.966   5.321  15.535 -0.5074  0.1246 -0.2010
  194DOPC  H18X24070   1.961   5.423  15.579  1.0265 -0.3809  1.2718
  194DOPC  H18Y24071   1.889   5.256  15.582  0.4973 -0.6395  0.4230
  194DOPC  H18Z24072   2.067   5.278  15.551  1.0710  3.8742  1.2895
  195DOPC     N24073   2.771   3.137  12.562  0.1400 -0.3810 -0.2486
  195DOPC   C1224074   2.816   3.050  12.683  0.4946 -0.3383  0.4665
  195DOPC  H12A24075   2.725   3.034  12.740  0.4987 -0.4023  0.4541
  195DOPC  H12B24076   2.881   3.116  12.739  0.7413  0.4178 -0.6913
  195DOPC   C1324077   2.885   3.171  12.467  0.2774 -0.4302 -0.1014
  195DOPC  H13A24078   2.949   3.084  12.471  0.5511 -0.2160  0.3305
  195DOPC  H13B24079   2.854   3.206  12.370 -0.0772 -0.8568 -0.1410
  195DOPC  H13C24080   2.944   3.252  12.509  0.1212 -0.8834  1.0351
  195DOPC   C1424081   2.713   3.274  12.616  0.5401  0.2450  0.2683
  195DOPC  H14A24082   2.791   3.328  12.666  1.3246  0.8757 -1.5687
  195DOPC  H14B24083   2.670   3.336  12.539  1.9521  0.9035 -0.0180
  195DOPC  H14C24084   2.637   3.241  12.686  0.3764 -1.8102 -0.8172
  195DOPC   C1524085   2.665   3.061  12.488 -0.0802  0.5609  0.2010
  195DOPC  H15A24086   2.564   3.073  12.525  0.3846 -0.2612  1.8192
  195DOPC  H15B24087   2.692   2.957  12.480  0.0350  0.6169 -0.2044
  195DOPC  H15C24088   2.672   3.093  12.385  1.1579  0.0067  0.0909
  195DOPC   C1124089   2.890   2.913  12.661  0.2300 -0.4972  0.2643
  195DOPC  H11A24090   2.979   2.941  12.602  1.0114  0.6328  1.8872
  195DOPC  H11B24091   2.925   2.875  12.760  0.9270 -1.0627 -0.1890
  195DOPC     P24092   2.682   2.746  12.669  0.2955 -0.1691  0.2449
  195DOPC   O1324093   2.625   2.641  12.575 -0.8084 -0.1277  0.0986
  195DOPC   O1424094   2.591   2.846  12.728  0.5834  0.2283 -0.0217
  195DOPC   O1224095   2.806   2.818  12.603 -0.3582  0.3164  0.6032
  195DOPC   O1124096   2.737   2.667  12.790  0.2915 -0.4340 -0.1016
  195DOPC    C124097   2.859   2.582  12.769  0.0216 -0.6980  0.4256
  195DOPC    HA24098   2.934   2.642  12.714 -0.0584 -0.6919  0.3241
  195DOPC    HB24099   2.822   2.494  12.712 -1.4149  1.3024 -1.9384
  195DOPC    C224100   2.930   2.555  12.904 -0.7649 -0.4132  0.3938
  195DOPC    HS24101   3.038   2.533  12.890 -1.0090 -2.0336  0.8108
  195DOPC   O2124102   2.869   2.449  12.980 -0.1178 -0.3737  0.0404
  195DOPC   C2124103   2.918   2.330  12.946  0.1591  0.0658 -0.3650
  195DOPC   O2224104   2.999   2.305  12.859  0.6788 -0.6750 -0.2249
  195DOPC   C2224105   2.852   2.217  13.032 -0.2212 -0.3988  0.6473
  195DOPC   H2R24106   2.907   2.124  13.006  0.3502  0.5565 -1.7794
  195DOPC   H2S24107   2.748   2.216  12.992  0.7170 -0.9503 -1.9802
  195DOPC    C324108   2.928   2.683  12.995 -0.6995  0.3107 -0.0378
  195DOPC    HX24109   2.820   2.712  13.002 -0.9137 -0.3482 -0.5084
  195DOPC    HY24110   2.982   2.767  12.947  0.2127  0.5484  1.3468
  195DOPC   O3124111   2.989   2.663  13.130  0.7199  0.5385  0.6738
  195DOPC   C3124112   3.120   2.649  13.138  0.1318  0.9085 -0.7106
  195DOPC   O3224113   3.200   2.655  13.049 -0.2853  0.2871  0.2575
  195DOPC   C3224114   3.154   2.616  13.285 -0.8330  0.1424 -0.4192
  195DOPC   H2X24115   3.130   2.511  13.313 -1.6634  0.4377  0.0267
  195DOPC   H2Y24116   3.265   2.614  13.281 -0.7967 -0.6124  0.4971
  195DOPC   C2324117   2.842   2.243  13.185  0.0936 -0.2991  0.2597
  195DOPC   H3R24118   2.752   2.298  13.218 -0.7193 -1.1214 -0.5560
  195DOPC   H3S24119   2.928   2.308  13.211 -0.7505  2.3907 -3.0263
  195DOPC   C2424120   2.848   2.115  13.283 -0.4397  0.4683  0.3437
  195DOPC   H4R24121   2.920   2.038  13.250 -0.6924 -1.3029  3.4916
  195DOPC   H4S24122   2.748   2.068  13.292  0.5224 -1.8691 -0.5001
  195DOPC   C2524123   2.908   2.161  13.417 -0.0082  0.0770  0.9040
  195DOPC   H5R24124   3.011   2.198  13.395 -0.3656  0.5154 -0.1134
  195DOPC   H5S24125   2.929   2.074  13.482  1.3703 -0.4780 -0.2275
  195DOPC   C2624126   2.824   2.267  13.483 -0.0116  0.2392 -0.0602
  195DOPC   H6R24127   2.726   2.220  13.506 -0.0599  0.0948 -0.5588
  195DOPC   H6S24128   2.803   2.352  13.415 -1.0937  0.1724  0.1719
  195DOPC   C2724129   2.899   2.328  13.599  0.2037 -0.2201 -0.0999
  195DOPC   H7R24130   2.824   2.405  13.625 -2.4574 -1.0902 -4.2083
  195DOPC   H7S24131   2.994   2.377  13.570 -0.7784  1.8588  0.0159
  195DOPC   C2824132   2.933   2.223  13.707  0.2324  0.0270  0.5255
  195DOPC   H8R24133   2.994   2.135  13.676  0.7995 -0.6600  3.3061
  195DOPC   H8S24134   2.839   2.175  13.740 -0.0762  1.1860  1.3890
  195DOPC   C2924135   3.019   2.294  13.806 -0.9999  0.6316 -0.7479
  195DOPC   H9R24136   3.112   2.337  13.767 -1.3535  2.7842  0.5858
  195DOPC  C21024137   2.989   2.308  13.934 -0.2084  0.3119 -0.0954
  195DOPC  H10R24138   3.062   2.348  14.006 -0.7978  1.8017 -0.2913
  195DOPC  C21124139   2.865   2.256  13.999 -0.0953  0.3040 -0.0998
  195DOPC  H11R24140   2.839   2.162  13.947  3.4087 -0.9016  0.1006
  195DOPC  H11S24141   2.787   2.331  13.973  0.6027  0.0998 -3.0987
  195DOPC  C21224142   2.878   2.227  14.156  0.3923  0.1923  1.0868
  195DOPC  H12R24143   2.976   2.174  14.159  0.1945 -0.2249  0.4581
  195DOPC  H12S24144   2.805   2.150  14.190  1.2554  0.6736  4.3800
  195DOPC  C21324145   2.868   2.352  14.239  0.3171  0.3255  0.0117
  195DOPC  H13R24146   2.790   2.428  14.218 -1.1595 -1.1972 -0.2333
  195DOPC  H13S24147   2.971   2.392  14.227  1.2703 -1.8255  0.3628
  195DOPC  C21424148   2.847   2.319  14.385 -0.6818  0.5281 -0.0474
  195DOPC  H14R24149   2.887   2.218  14.410  0.1916  1.0722  0.7930
  195DOPC  H14S24150   2.740   2.299  14.410 -0.5221 -2.5174 -1.2640
  195DOPC  C21524151   2.911   2.421  14.477 -0.0923 -0.1111 -0.6245
  195DOPC  H15R24152   2.880   2.525  14.453  1.1273 -0.3630 -3.7613
  195DOPC  H15S24153   3.021   2.427  14.468 -0.1192 -0.1720 -0.9939
  195DOPC  C21624154   2.873   2.395  14.627  0.4667 -0.3628 -0.2780
  195DOPC  H16R24155   2.933   2.319  14.681 -3.1656 -3.1341  0.3117
  195DOPC  H16S24156   2.770   2.354  14.638 -0.0505  0.9890  0.2707
  195DOPC  C21724157   2.891   2.525  14.713  0.1938 -0.5633  0.7085
  195DOPC  H17R24158   2.974   2.585  14.668  0.4423 -0.5648  1.1649
  195DOPC  H17S24159   2.920   2.510  14.819 -1.0536 -0.6914  1.0453
  195DOPC  C21824160   2.770   2.619  14.698 -0.0403 -0.2697 -0.0006
  195DOPC  H18R24161   2.686   2.554  14.730 -0.0734 -1.2892 -2.0021
  195DOPC  H18S24162   2.757   2.648  14.591  1.0148 -2.2641 -0.7106
  195DOPC  H18T24163   2.769   2.717  14.749  0.2978  0.6356 -1.6513
  195DOPC   C3324164   3.126   2.719  13.398  0.7219  1.1233  0.1579
  195DOPC   H3X24165   3.016   2.737  13.395  0.1815 -1.7577 -1.7813
  195DOPC   H3Y24166   3.171   2.814  13.361  0.7641  0.8834 -0.4250
  195DOPC   C3424167   3.177   2.670  13.533 -0.2866 -0.1213  0.1765
  195DOPC   H4X24168   3.287   2.661  13.521 -0.4738  0.9343 -3.9132
  195DOPC   H4Y24169   3.139   2.566  13.541 -1.8889  0.1791 -2.4320
  195DOPC   C3524170   3.127   2.747  13.652 -0.3465 -0.8370 -0.0278
  195DOPC   H5X24171   3.016   2.750  13.650 -0.3542 -1.3317 -0.8857
  195DOPC   H5Y24172   3.173   2.847  13.637 -1.9083  0.0225  0.7051
  195DOPC   C3624173   3.186   2.684  13.774 -0.9731 -0.2572 -0.4696
  195DOPC   H6X24174   3.138   2.587  13.797  2.0405 -1.4812  1.3415
  195DOPC   H6Y24175   3.297   2.677  13.763 -1.0178 -1.1206 -0.4575
  195DOPC   C3724176   3.153   2.775  13.888 -0.5991  0.4222 -0.6664
  195DOPC   H7X24177   3.191   2.875  13.861  0.0787  0.0453 -1.1397
  195DOPC   H7Y24178   3.044   2.789  13.905 -0.1925  1.7989  1.0279
  195DOPC   C3824179   3.209   2.714  14.020  0.4006 -1.0377  0.7070
  195DOPC   H8X24180   3.166   2.612  14.030 -2.1680 -0.5273 -3.0375
  195DOPC   H8Y24181   3.160   2.779  14.096  1.2918  1.1364 -0.4809
  195DOPC   C3924182   3.358   2.724  14.036 -0.1387  0.5571  0.8478
  195DOPC   H9X24183   3.425   2.707  13.950  0.3993  1.5660  1.0479
  195DOPC  C31024184   3.418   2.723  14.155 -0.0337 -0.2189 -0.9148
  195DOPC  H10X24185   3.527   2.735  14.154  0.0088 -0.5143 -0.4571
  195DOPC  C31124186   3.355   2.742  14.286  0.1161  0.1195  0.0480
  195DOPC  H11X24187   3.245   2.743  14.276 -0.1098 -1.9700  1.6665
  195DOPC  H11Y24188   3.397   2.837  14.326  0.4885  0.2187 -0.5681
  195DOPC  C31224189   3.383   2.619  14.376  0.3686  0.4857  0.1473
  195DOPC  H12X24190   3.493   2.619  14.386  0.6264 -0.4711 -2.0968
  195DOPC  H12Y24191   3.335   2.523  14.346  0.4793  0.0144  1.4164
  195DOPC  C31324192   3.327   2.650  14.517 -0.6117 -0.2445  0.4304
  195DOPC  H13X24193   3.308   2.759  14.521  0.8990  0.0688 -0.1551
  195DOPC  H13Y24194   3.223   2.619  14.541 -0.9773  0.1288 -0.5915
  195DOPC  C31424195   3.427   2.608  14.620 -0.1542  0.3233  0.1545
  195DOPC  H14X24196   3.387   2.512  14.660 -0.8741  0.0562 -1.1434
  195DOPC  H14Y24197   3.530   2.594  14.579  0.0181  0.6016  0.4859
  195DOPC  C31524198   3.436   2.701  14.747  0.6919  0.3795  0.4018
  195DOPC  H15X24199   3.472   2.803  14.723  0.0017  1.0533  2.0582
  195DOPC  H15Y24200   3.505   2.646  14.814  1.5363 -0.8076 -1.3817
  195DOPC  C31624201   3.293   2.720  14.818  0.8712 -0.1071 -0.0598
  195DOPC  H16X24202   3.225   2.769  14.744  1.1722  0.4635  0.0340
  195DOPC  H16Y24203   3.258   2.621  14.853  0.2836 -0.3053 -1.1542
  195DOPC  C31724204   3.295   2.817  14.930  0.0386 -0.2754 -0.2978
  195DOPC  H17X24205   3.195   2.810  14.978 -0.0513 -3.1095 -0.7554
  195DOPC  H17Y24206   3.375   2.794  15.003  0.3881  0.1586 -0.5344
  195DOPC  C31824207   3.332   2.959  14.878  0.6171 -0.2975 -0.0744
  195DOPC  H18X24208   3.441   2.974  14.865  0.3281  0.0866 -2.7401
  195DOPC  H18Y24209   3.291   2.987  14.778  1.3767  1.4308  0.0593
  195DOPC  H18Z24210   3.291   3.040  14.942  1.6792 -0.4457  0.8235
  196DOPC     N24211   0.385   4.517  12.961  0.6998 -0.0096 -0.2625
  196DOPC   C1224212   0.461   4.538  13.088  0.6927 -0.1273  0.0774
  196DOPC  H12A24213   0.568   4.532  13.075  1.2341  1.5859  2.8158
  196DOPC  H12B24214   0.439   4.451  13.148 -1.5771 -0.8961 -1.7401
  196DOPC   C1324215   0.379   4.649  12.887 -0.0236 -0.4160  0.2179
  196DOPC  H13A24216   0.479   4.682  12.864 -0.0693  0.0642  0.6816
  196DOPC  H13B24217   0.337   4.643  12.788  2.3401 -0.7291 -0.8512
  196DOPC  H13C24218   0.320   4.718  12.945  0.9992  0.3772  0.3445
  196DOPC   C1424219   0.237   4.491  12.996 -0.3573 -0.6053  0.3440
  196DOPC  H14A24220   0.228   4.393  13.040 -2.8187 -0.9634 -0.7575
  196DOPC  H14B24221   0.196   4.552  13.075  1.2542  0.4146  0.4392
  196DOPC  H14C24222   0.183   4.492  12.903 -1.2536 -0.7159  0.8515
  196DOPC   C1524223   0.445   4.412  12.877 -0.2814  0.7934  0.2769
  196DOPC  H15A24224   0.374   4.355  12.819  0.5150  0.5544 -0.4733
  196DOPC  H15B24225   0.503   4.342  12.936 -0.2145 -0.1941 -0.9241
  196DOPC  H15C24226   0.507   4.464  12.806  0.9156 -1.2555 -0.2392
  196DOPC   C1124227   0.429   4.662  13.171 -0.3843 -0.5409 -0.4832
  196DOPC  H11A24228   0.516   4.683  13.237  0.5493 -1.5605 -1.3659
  196DOPC  H11B24229   0.424   4.757  13.113 -1.9461 -1.5344 -2.0833
  196DOPC     P24230   0.238   4.771  13.310 -0.1149  0.0759 -0.1128
  196DOPC   O1324231   0.096   4.750  13.335 -0.2405  0.4735 -0.1254
  196DOPC   O1424232   0.262   4.892  13.230 -0.1311 -0.1035 -0.1067
  196DOPC   O1224233   0.304   4.644  13.237  0.2099  0.4369  0.0872
  196DOPC   O1124234   0.308   4.784  13.453 -0.4011  0.2276 -0.0355
  196DOPC    C124235   0.347   4.675  13.538 -0.1368  0.1059  0.1112
  196DOPC    HA24236   0.410   4.709  13.623 -1.0745 -0.4504  1.0652
  196DOPC    HB24237   0.421   4.606  13.491  1.6894  1.3663  1.0216
  196DOPC    C224238   0.222   4.612  13.613 -0.6263  0.0818  0.4022
  196DOPC    HS24239   0.153   4.589  13.529 -0.4301 -4.2439  1.2189
  196DOPC   O2124240   0.173   4.711  13.708  0.0974  0.1740  0.4761
  196DOPC   C2124241   0.043   4.690  13.749  0.1692  0.5848  0.3556
  196DOPC   O2224242  -0.035   4.614  13.697 -0.5935  0.1209 -0.1678
  196DOPC   C2224243   0.015   4.764  13.884 -0.4312 -0.2978  0.1750
  196DOPC   H2R24244   0.100   4.834  13.898 -1.2998  1.2112 -1.6554
  196DOPC   H2S24245   0.010   4.686  13.963 -1.0145 -1.5843 -1.0619
  196DOPC    C324246   0.251   4.469  13.670 -0.1140  0.5734  0.3170
  196DOPC    HX24247   0.279   4.402  13.586 -0.5615  0.3186  0.3671
  196DOPC    HY24248   0.155   4.425  13.704  0.8124 -1.0953  0.8688
  196DOPC   O3124249   0.350   4.464  13.767  0.0432  0.0434 -0.2221
  196DOPC   C3124250   0.318   4.489  13.890 -0.5594 -0.3174  0.3998
  196DOPC   O3224251   0.205   4.513  13.933 -0.3173 -0.4891 -0.0763
  196DOPC   C3224252   0.450   4.468  13.972  0.5399 -0.8996  0.3079
  196DOPC   H2X24253   0.492   4.380  13.920 -0.9502 -0.9405 -0.8762
  196DOPC   H2Y24254   0.512   4.561  13.968 -0.5454 -0.1120  1.0783
  196DOPC   C2324255  -0.117   4.842  13.892 -0.9879  0.1347  0.0466
  196DOPC   H3R24256  -0.205   4.776  13.885 -0.8476 -0.0369 -0.0975
  196DOPC   H3S24257  -0.138   4.905  13.803  1.5506 -2.2522 -2.4541
  196DOPC   C2424258  -0.130   4.908  14.027  0.2958 -0.2247 -0.8171
  196DOPC   H4R24259  -0.238   4.931  14.036  0.5589  0.2630  2.2580
  196DOPC   H4S24260  -0.071   5.003  14.029  0.7701 -0.5043  1.4998
  196DOPC   C2524261  -0.079   4.834  14.151  0.2701 -0.1024  0.4752
  196DOPC   H5R24262   0.032   4.837  14.149  0.2886 -0.6891  0.4792
  196DOPC   H5S24263  -0.106   4.726  14.147  1.8396 -0.4880 -2.1594
  196DOPC   C2624264  -0.135   4.903  14.275  0.3897 -0.7458  0.1346
  196DOPC   H6R24265  -0.246   4.898  14.276  0.1024  2.5205  2.7306
  196DOPC   H6S24266  -0.093   5.005  14.269  1.2591 -1.1491 -1.1653
  196DOPC   C2724267  -0.103   4.844  14.412 -0.2966 -0.2565 -0.0313
  196DOPC   H7R24268  -0.146   4.742  14.419  0.3898 -0.4960  0.8414
  196DOPC   H7S24269  -0.151   4.906  14.491 -1.3724  0.3753 -1.1454
  196DOPC   C2824270   0.043   4.833  14.445 -0.2701 -0.0803 -0.3173
  196DOPC   H8R24271   0.088   4.780  14.358 -1.6574 -0.9845 -0.5200
  196DOPC   H8S24272   0.063   4.769  14.534  1.4068  0.1392 -0.5032
  196DOPC   C2924273   0.099   4.970  14.452 -0.1187  0.1082  0.8954
  196DOPC   H9R24274   0.130   5.004  14.352 -0.7157 -2.0047 -0.0750
  196DOPC  C21024275   0.133   5.039  14.561 -0.4995  0.4293 -0.6480
  196DOPC  H10R24276   0.175   5.140  14.552  1.0879 -0.2448 -1.0743
  196DOPC  C21124277   0.112   4.998  14.705  0.1672 -0.7132 -0.0273
  196DOPC  H11R24278   0.206   4.993  14.765  0.2583 -0.2573 -0.1263
  196DOPC  H11S24279   0.059   4.901  14.708 -1.5211  0.2029  2.5839
  196DOPC  C21224280   0.024   5.106  14.779  0.3586  0.2312  0.0000
  196DOPC  H12R24281  -0.074   5.120  14.728 -0.1281  0.3168  0.9289
  196DOPC  H12S24282   0.069   5.207  14.786 -1.7947  1.2724 -0.4301
  196DOPC  C21324283  -0.010   5.081  14.929  0.2062 -0.0403  0.4361
  196DOPC  H13R24284  -0.056   4.981  14.945  0.4931 -0.3757 -0.6702
  196DOPC  H13S24285  -0.085   5.160  14.952  0.9941  1.1300 -0.8371
  196DOPC  C21424286   0.101   5.103  15.033 -0.0077  1.1046 -0.3162
  196DOPC  H14R24287   0.179   5.171  14.993 -0.6135  1.2416 -1.3075
  196DOPC  H14S24288   0.148   5.003  15.043  1.6540  1.4298 -3.4491
  196DOPC  C21524289   0.050   5.159  15.166  0.2492 -0.0304 -0.0690
  196DOPC  H15R24290   0.023   5.264  15.141 -0.1749 -0.2563 -0.5811
  196DOPC  H15S24291   0.132   5.162  15.241  1.9937 -0.9346 -1.8371
  196DOPC  C21624292  -0.075   5.083  15.219  0.3878  0.5188 -0.2970
  196DOPC  H16R24293  -0.047   4.979  15.244 -1.9684  0.4045  2.4097
  196DOPC  H16S24294  -0.157   5.089  15.143  0.0419 -0.9947 -0.0713
  196DOPC  C21724295  -0.121   5.145  15.347 -0.6410 -0.6248  0.6860
  196DOPC  H17R24296  -0.193   5.225  15.319 -1.2250 -0.6424  2.0846
  196DOPC  H17S24297  -0.039   5.191  15.405 -1.5450  1.0462  0.7022
  196DOPC  C21824298  -0.203   5.058  15.441 -0.4976  0.4196 -0.2709
  196DOPC  H18R24299  -0.144   4.996  15.512 -0.7313  0.2624 -0.2123
  196DOPC  H18S24300  -0.273   4.985  15.396 -2.2852  0.1515  2.6784
  196DOPC  H18T24301  -0.248   5.133  15.510 -0.3520 -1.2459  1.7394
  196DOPC   C3324302   0.425   4.447  14.124 -0.4472  0.3453  0.1080
  196DOPC   H3X24303   0.499   4.370  14.153 -1.5985 -0.5260  0.8186
  196DOPC   H3Y24304   0.331   4.394  14.150 -1.3096  0.9489 -1.6179
  196DOPC   C3424305   0.444   4.569  14.211 -0.7543 -0.1810 -0.6504
  196DOPC   H4X24306   0.368   4.643  14.179 -0.3084 -0.7278 -3.2179
  196DOPC   H4Y24307   0.543   4.610  14.181  0.4845 -2.4659  0.0827
  196DOPC   C3524308   0.445   4.535  14.362  0.2231 -1.0038 -0.3667
  196DOPC   H5X24309   0.550   4.517  14.392  0.3893  1.6703  0.9763
  196DOPC   H5Y24310   0.384   4.443  14.372 -1.1897 -0.0366  0.2493
  196DOPC   C3624311   0.391   4.644  14.456  0.1479  0.5645 -0.9848
  196DOPC   H6X24312   0.450   4.735  14.432  1.7825 -0.2036 -0.0227
  196DOPC   H6Y24313   0.283   4.664  14.439 -0.7315 -1.5892  1.4266
  196DOPC   C3724314   0.417   4.609  14.603 -0.0316 -0.5473 -0.3651
  196DOPC   H7X24315   0.337   4.541  14.641 -1.2409  1.0895  0.0990
  196DOPC   H7Y24316   0.516   4.559  14.606  0.5277  0.6150  1.5206
  196DOPC   C3824317   0.415   4.733  14.684  0.7011 -0.7465  0.7576
  196DOPC   H8X24318   0.315   4.780  14.679  0.9213 -0.3841 -0.4836
  196DOPC   H8Y24319   0.480   4.809  14.635 -1.0721  2.5281  3.0559
  196DOPC   C3924320   0.464   4.705  14.823 -0.1814 -0.3225 -0.2614
  196DOPC   H9X24321   0.567   4.669  14.837 -0.3000  0.1183  1.9641
  196DOPC  C31024322   0.390   4.704  14.938 -0.0830 -0.0383  0.6693
  196DOPC  H10X24323   0.441   4.698  15.035 -0.3775 -0.7917  0.7837
  196DOPC  C31124324   0.243   4.746  14.946  0.4312 -0.0141 -0.3082
  196DOPC  H11X24325   0.217   4.833  14.883 -2.0590 -0.6390 -0.2867
  196DOPC  H11Y24326   0.221   4.775  15.051  0.5548 -2.2504  0.4089
  196DOPC  C31224327   0.147   4.636  14.908  0.0790 -0.2026  0.2970
  196DOPC  H12X24328   0.161   4.545  14.969  0.5810 -0.7657 -0.6484
  196DOPC  H12Y24329   0.157   4.608  14.801  2.3061  1.6769 -0.0823
  196DOPC  C31324330  -0.004   4.673  14.933 -0.7564 -0.3582  0.5414
  196DOPC  H13X24331  -0.029   4.769  14.883  1.3902 -0.0890 -0.1144
  196DOPC  H13Y24332  -0.067   4.593  14.886  1.9002 -1.2847 -1.7211
  196DOPC  C31424333  -0.042   4.679  15.081  0.0888  0.0498 -0.6150
  196DOPC  H14X24334  -0.004   4.591  15.139 -0.7495  1.7070  2.7080
  196DOPC  H14Y24335   0.011   4.768  15.121  0.2874  1.4572 -3.7506
  196DOPC  C31524336  -0.201   4.699  15.098 -0.6036  0.1719 -0.0282
  196DOPC  H15X24337  -0.254   4.640  15.020  0.6235 -0.4652 -0.4078
  196DOPC  H15Y24338  -0.239   4.800  15.070  1.9384  1.1141 -0.3558
  196DOPC  C31624339  -0.249   4.674  15.247 -0.4470 -0.6789 -0.0471
  196DOPC  H16X24340  -0.219   4.574  15.284  0.3837 -0.2469  0.4568
  196DOPC  H16Y24341  -0.201   4.761  15.297 -1.0953  1.1591 -2.4071
  196DOPC  C31724342  -0.399   4.685  15.263  0.4470  0.1292 -1.0310
  196DOPC  H17X24343  -0.427   4.781  15.215 -1.7906  0.2496  0.3848
  196DOPC  H17Y24344  -0.443   4.599  15.207  0.6152 -0.5354 -0.1628
  196DOPC  C31824345  -0.452   4.685  15.402  0.1661  0.4444 -0.1032
  196DOPC  H18X24346  -0.558   4.651  15.400  0.3775 -0.2614  0.3414
  196DOPC  H18Y24347  -0.399   4.607  15.461  1.5712  2.0760  0.9205
  196DOPC  H18Z24348  -0.435   4.781  15.455  2.3271  0.1287 -0.1523
  197DOPC     N24349   2.514   3.828  12.604 -0.3504 -0.1366 -0.2910
  197DOPC   C1224350   2.614   3.868  12.712  0.1065 -0.2882 -0.2430
  197DOPC  H12A24351   2.674   3.781  12.735  0.0102 -0.3765 -0.3264
  197DOPC  H12B24352   2.557   3.899  12.798 -0.0433  2.1777 -1.1533
  197DOPC   C1324353   2.398   3.735  12.647 -1.0231 -0.5692  0.3105
  197DOPC  H13A24354   2.339   3.775  12.729  0.8993 -2.6732  2.9227
  197DOPC  H13B24355   2.336   3.719  12.560  0.7513 -0.4447 -1.0099
  197DOPC  H13C24356   2.426   3.636  12.680  0.8164 -0.2707 -0.2941
  197DOPC   C1424357   2.587   3.751  12.494  0.2866 -0.3586 -0.2048
  197DOPC  H14A24358   2.646   3.819  12.434 -0.8178 -0.5499 -1.5547
  197DOPC  H14B24359   2.653   3.679  12.540  0.8715 -0.0025 -0.4695
  197DOPC  H14C24360   2.508   3.703  12.438  1.7559 -1.3118 -1.5281
  197DOPC   C1524361   2.434   3.942  12.556 -0.2703 -1.0233 -0.1389
  197DOPC  H15A24362   2.499   4.022  12.526  1.3194 -1.8210  1.0332
  197DOPC  H15B24363   2.363   3.975  12.631  0.9280  2.3431 -0.3438
  197DOPC  H15C24364   2.384   3.907  12.467 -0.8538 -1.1044  0.2117
  197DOPC   C1124365   2.713   3.982  12.682  0.0232  0.1977 -0.4146
  197DOPC  H11A24366   2.803   3.972  12.746  0.8395  0.1065 -1.5583
  197DOPC  H11B24367   2.771   3.957  12.591 -0.1119 -2.9395  0.2644
  197DOPC     P24368   2.626   4.184  12.820 -0.3095 -0.1030  0.1853
  197DOPC   O1324369   2.515   4.271  12.798  0.7773  0.4130 -0.4575
  197DOPC   O1424370   2.755   4.248  12.866  0.0399 -0.2019 -0.2295
  197DOPC   O1224371   2.651   4.108  12.679 -0.3236 -0.8375 -0.2416
  197DOPC   O1124372   2.594   4.074  12.911  0.0155  0.2054 -0.3756
  197DOPC    C124373   2.466   4.048  12.959  0.0421 -0.2619 -0.5897
  197DOPC    HA24374   2.440   3.941  12.944 -1.5721  0.1837 -1.2569
  197DOPC    HB24375   2.386   4.109  12.911  0.9666  0.9656 -0.6379
  197DOPC    C224376   2.460   4.060  13.118 -0.0928 -0.7900  0.4649
  197DOPC    HS24377   2.358   4.027  13.149 -0.6670  1.1377  0.7827
  197DOPC   O2124378   2.506   4.186  13.168 -0.3758 -0.0924 -0.1969
  197DOPC   C2124379   2.405   4.273  13.184  0.1221 -0.5196  0.0161
  197DOPC   O2224380   2.292   4.262  13.146 -0.0739 -0.3438 -0.9168
  197DOPC   C2224381   2.452   4.384  13.274 -0.5747  1.3259 -0.4548
  197DOPC   H2R24382   2.496   4.465  13.213  0.1038 -0.1200 -1.9523
  197DOPC   H2S24383   2.532   4.339  13.338 -0.4940  0.2281 -1.2999
  197DOPC    C324384   2.556   3.957  13.181  0.9596  0.1708 -0.0201
  197DOPC    HX24385   2.656   3.960  13.132  1.5147 -1.1824  0.9659
  197DOPC    HY24386   2.517   3.855  13.162 -2.8940  1.8471 -2.2107
  197DOPC   O3124387   2.561   3.974  13.320  0.5958  0.1057 -0.5000
  197DOPC   C3124388   2.658   4.046  13.378  0.1946 -0.0885 -0.6945
  197DOPC   O3224389   2.752   4.094  13.330  0.0114 -0.0552  0.4592
  197DOPC   C3224390   2.619   4.066  13.526  0.4449 -0.8703  0.0461
  197DOPC   H2X24391   2.601   4.174  13.542 -1.9518 -1.3401  0.9519
  197DOPC   H2Y24392   2.529   4.007  13.551  0.4093 -0.5802  0.6225
  197DOPC   C2324393   2.343   4.427  13.372  0.6727 -0.3115  0.6910
  197DOPC   H3R24394   2.319   4.344  13.442  0.0935 -0.3439  0.4593
  197DOPC   H3S24395   2.260   4.454  13.303  1.8376  0.2534 -0.5634
  197DOPC   C2424396   2.380   4.544  13.466  0.0779  0.5253  0.3434
  197DOPC   H4R24397   2.295   4.566  13.533  0.3699 -1.4159  1.4183
  197DOPC   H4S24398   2.415   4.630  13.404 -0.5792 -0.1073 -0.9462
  197DOPC   C2524399   2.493   4.497  13.565 -0.3815  0.2820 -0.4092
  197DOPC   H5R24400   2.586   4.475  13.509 -0.4297  0.2255 -0.4664
  197DOPC   H5S24401   2.460   4.403  13.615 -0.5321  0.0427 -0.9587
  197DOPC   C2624402   2.535   4.606  13.664 -0.1239 -0.0707  0.0228
  197DOPC   H6R24403   2.441   4.637  13.715 -0.2599  0.3740 -0.4745
  197DOPC   H6S24404   2.563   4.695  13.603 -1.7568 -0.2199 -1.0136
  197DOPC   C2724405   2.637   4.571  13.767 -0.2196  0.0475 -0.2177
  197DOPC   H7R24406   2.662   4.665  13.821 -0.9157  0.5185 -0.6921
  197DOPC   H7S24407   2.733   4.533  13.727  0.7137  1.2813  0.7764
  197DOPC   C2824408   2.584   4.477  13.880 -0.2309 -0.1457  0.4092
  197DOPC   H8R24409   2.535   4.384  13.845 -0.6077 -0.5584  1.9523
  197DOPC   H8S24410   2.510   4.547  13.925  0.7900  0.2323  1.5502
  197DOPC   C2924411   2.690   4.444  13.979 -0.1965  0.3314  0.3338
  197DOPC   H9R24412   2.795   4.452  13.946 -0.5449  1.0911 -0.6279
  197DOPC  C21024413   2.666   4.412  14.105  0.0956 -1.1650  0.1281
  197DOPC  H10R24414   2.750   4.391  14.174  1.2097  1.6180 -0.2696
  197DOPC  C21124415   2.529   4.429  14.172  0.0520 -0.0993 -0.2909
  197DOPC  H11R24416   2.485   4.330  14.193  1.6885 -0.6571  0.6289
  197DOPC  H11S24417   2.463   4.492  14.108  0.9931 -1.2031 -2.4336
  197DOPC  C21224418   2.540   4.511  14.303 -0.6991  0.0671  0.5765
  197DOPC  H12R24419   2.436   4.520  14.340 -0.7409  1.4883  0.1892
  197DOPC  H12S24420   2.588   4.611  14.291  2.4410 -1.5940 -3.1020
  197DOPC  C21324421   2.619   4.449  14.428 -0.2865 -0.3179  0.0803
  197DOPC  H13R24422   2.727   4.457  14.406 -0.1779 -1.0116  0.3603
  197DOPC  H13S24423   2.592   4.342  14.431 -0.8178 -0.1896 -0.0133
  197DOPC  C21424424   2.590   4.529  14.555  0.2170 -0.3419  0.6169
  197DOPC  H14R24425   2.481   4.533  14.574  0.3675  0.9391  1.3335
  197DOPC  H14S24426   2.636   4.630  14.548 -0.1779 -0.0911  1.4437
  197DOPC  C21524427   2.657   4.470  14.685 -0.3242 -0.2022  0.1697
  197DOPC  H15R24428   2.767   4.461  14.668 -0.0045  1.7706  0.8177
  197DOPC  H15S24429   2.610   4.373  14.710  0.5462 -0.0980  2.4878
  197DOPC  C21624430   2.640   4.565  14.799  0.2126 -0.4556  0.1936
  197DOPC  H16R24431   2.539   4.612  14.806 -0.0174 -1.1375  2.4940
  197DOPC  H16S24432   2.709   4.652  14.795  0.5331 -0.5665  2.1980
  197DOPC  C21724433   2.672   4.490  14.938  0.3445  0.8684  0.8675
  197DOPC  H17R24434   2.780   4.464  14.930  0.8901  2.9356  0.8384
  197DOPC  H17S24435   2.606   4.401  14.937  1.3809  0.0269 -1.9070
  197DOPC  C21824436   2.631   4.588  15.051  0.3556  0.1747  0.1801
  197DOPC  H18R24437   2.699   4.674  15.071 -0.2923  0.7632 -0.0805
  197DOPC  H18S24438   2.624   4.528  15.144  2.9425 -2.0252 -0.9155
  197DOPC  H18T24439   2.526   4.622  15.036 -0.0006 -0.8058  0.4211
  197DOPC   C3324440   2.723   4.027  13.627 -0.2877  0.8219  0.2995
  197DOPC   H3X24441   2.824   4.060  13.595 -1.2974  2.1403 -1.7631
  197DOPC   H3Y24442   2.721   3.916  13.627 -0.8257  0.8264 -0.1574
  197DOPC   C3424443   2.686   4.070  13.769  0.5501 -0.5840  0.2131
  197DOPC   H4X24444   2.580   4.041  13.785 -0.6770  2.1218 -2.0370
  197DOPC   H4Y24445   2.692   4.181  13.760 -0.9668 -0.1617  3.2043
  197DOPC   C3524446   2.786   4.031  13.879 -0.1744  0.2228 -0.1790
  197DOPC   H5X24447   2.884   4.081  13.864  0.7560 -0.7547  2.1625
  197DOPC   H5Y24448   2.805   3.922  13.872 -1.4149 -0.2592  2.7563
  197DOPC   C3624449   2.746   4.058  14.021  0.7410  0.4502  0.7569
  197DOPC   H6X24450   2.734   4.166  14.044 -2.5759  0.0710  1.3431
  197DOPC   H6Y24451   2.644   4.015  14.032  0.6074 -0.4575 -2.8300
  197DOPC   C3724452   2.835   3.986  14.126  0.0987  0.4128  0.4787
  197DOPC   H7X24453   2.801   3.881  14.121 -0.1138  0.4902  0.2911
  197DOPC   H7Y24454   2.938   3.976  14.086  0.2798 -3.6213  1.5680
  197DOPC   C3824455   2.819   4.046  14.266 -0.0790 -0.5390 -0.6600
  197DOPC   H8X24456   2.850   4.152  14.251 -1.6132 -0.1585 -1.3953
  197DOPC   H8Y24457   2.903   4.005  14.326 -0.5517 -0.5192  0.0374
  197DOPC   C3924458   2.687   4.046  14.333  0.2197 -0.7101 -0.0575
  197DOPC   H9X24459   2.609   4.106  14.286 -0.6423 -0.8304  1.1861
  197DOPC  C31024460   2.656   4.008  14.461 -0.1611  0.0226 -0.8997
  197DOPC  H10X24461   2.552   4.013  14.496  0.4196  2.0545  0.6985
  197DOPC  C31124462   2.762   3.971  14.565  0.6133  0.4584 -0.1725
  197DOPC  H11X24463   2.866   3.989  14.532  1.4746 -1.1160  1.5306
  197DOPC  H11Y24464   2.746   3.864  14.591 -0.0113  0.4415 -0.5993
  197DOPC  C31224465   2.735   4.050  14.694 -0.5617  0.6628  0.0364
  197DOPC  H12X24466   2.633   4.025  14.729 -0.7918  0.8982 -0.4509
  197DOPC  H12Y24467   2.724   4.159  14.675 -2.4103  0.3053 -1.2077
  197DOPC  C31324468   2.844   4.029  14.802 -0.5612 -0.0395 -0.0829
  197DOPC  H13X24469   2.852   3.927  14.844 -0.7216 -0.4556 -1.0548
  197DOPC  H13Y24470   2.942   4.058  14.759 -0.8759  0.3314 -0.5581
  197DOPC  C31424471   2.826   4.128  14.911  0.1641 -0.3046  0.1684
  197DOPC  H14X24472   2.779   4.225  14.883  0.3622  0.1717  1.4215
  197DOPC  H14Y24473   2.759   4.084  14.987 -1.3426  1.0499 -0.3133
  197DOPC  C31524474   2.950   4.177  14.989  0.4061  0.0274  0.0399
  197DOPC  H15X24475   3.007   4.241  14.917  2.0997  0.3764  1.6160
  197DOPC  H15Y24476   3.020   4.091  15.003 -0.4170 -0.5018  0.9417
  197DOPC  C31624477   2.932   4.242  15.130 -0.7121 -0.1238 -0.2353
  197DOPC  H16X24478   3.036   4.279  15.148  0.4794 -2.6574 -1.3500
  197DOPC  H16Y24479   2.873   4.336  15.124  1.8785  1.7979  1.8704
  197DOPC  C31724480   2.887   4.150  15.249 -0.7026 -0.0206  0.8020
  197DOPC  H17X24481   2.785   4.113  15.223 -1.0042 -0.2270  2.1599
  197DOPC  H17Y24482   2.950   4.060  15.260 -1.1032 -0.2757  1.0658
  197DOPC  C31824483   2.898   4.224  15.380 -0.1072 -0.2039 -0.4092
  197DOPC  H18X24484   2.825   4.181  15.452 -0.8322  0.0016 -1.0078
  197DOPC  H18Y24485   3.000   4.227  15.425 -0.1104  1.6540 -0.4505
  197DOPC  H18Z24486   2.869   4.331  15.382  1.3003  0.1837  0.0098
  198DOPC     N24487   5.628   4.154  12.266 -0.0214 -0.3433  0.5235
  198DOPC   C1224488   5.559   4.124  12.399 -0.0875 -0.2264 -0.1525
  198DOPC  H12A24489   5.452   4.143  12.396 -0.3986 -1.6539  0.9235
  198DOPC  H12B24490   5.605   4.192  12.468  0.0324 -1.4324  1.0036
  198DOPC   C1324491   5.551   4.094  12.149  0.0328 -0.1452  0.3004
  198DOPC  H13A24492   5.449   4.130  12.148  0.2548  0.5161 -1.1327
  198DOPC  H13B24493   5.596   4.107  12.052  1.6924 -1.3874  0.8629
  198DOPC  H13C24494   5.562   3.987  12.151  0.7666 -0.1120 -0.8385
  198DOPC   C1424495   5.767   4.100  12.257 -0.3841  0.0965  0.3505
  198DOPC  H14A24496   5.820   4.131  12.169  0.8407 -1.6731  0.4099
  198DOPC  H14B24497   5.824   4.118  12.348 -0.5867 -0.2868  0.5560
  198DOPC  H14C24498   5.767   3.992  12.254  0.7140  0.1097 -1.1639
  198DOPC   C1524499   5.623   4.301  12.236 -0.5805  0.2348 -0.5503
  198DOPC  H15A24500   5.523   4.340  12.243 -0.8044 -0.5657  1.1618
  198DOPC  H15B24501   5.663   4.322  12.137  1.7442 -2.5714 -0.3471
  198DOPC  H15C24502   5.675   4.354  12.314 -0.0406 -0.4674 -0.4321
  198DOPC   C1124503   5.573   3.978  12.449  0.4296  0.1573  0.0889
  198DOPC  H11A24504   5.673   3.929  12.450 -0.2804 -1.3471  0.8384
  198DOPC  H11B24505   5.538   3.971  12.554  0.6251 -1.2926  0.0851
  198DOPC     P24506   5.343   3.873  12.359 -0.2566 -0.1820 -0.2326
  198DOPC   O1324507   5.303   3.791  12.247 -0.2501 -0.0860  0.0358
  198DOPC   O1424508   5.284   4.008  12.363  0.3680  0.3802 -0.6444
  198DOPC   O1224509   5.500   3.892  12.360 -0.2483  1.0153 -0.5382
  198DOPC   O1124510   5.320   3.803  12.493  0.1488 -0.1812  0.6870
  198DOPC    C124511   5.380   3.684  12.524 -0.6900  0.3399 -0.6269
  198DOPC    HA24512   5.482   3.681  12.480 -1.2367 -0.6091 -1.8860
  198DOPC    HB24513   5.320   3.598  12.487 -1.8033  1.0768 -0.5981
  198DOPC    C224514   5.390   3.658  12.674 -0.3158 -0.2784 -0.3926
  198DOPC    HS24515   5.437   3.557  12.682  0.1424 -0.0179  0.3093
  198DOPC   O2124516   5.264   3.676  12.741  0.0039  0.3199 -0.3197
  198DOPC   C2124517   5.254   3.602  12.846 -0.7273 -0.0420  0.1331
  198DOPC   O2224518   5.334   3.521  12.887 -0.0409  0.4087 -0.2217
  198DOPC   C2224519   5.131   3.633  12.926 -0.2602  0.3741  0.3075
  198DOPC   H2R24520   5.046   3.597  12.864  1.8954 -2.9679 -1.0244
  198DOPC   H2S24521   5.128   3.744  12.932  0.1766  0.4167 -0.1868
  198DOPC    C324522   5.485   3.765  12.733  0.0391 -0.6105 -0.2515
  198DOPC    HX24523   5.444   3.867  12.747  3.6211  1.1020 -1.0620
  198DOPC    HY24524   5.566   3.767  12.656 -0.4253  2.2913 -0.7970
  198DOPC   O3124525   5.540   3.728  12.858  0.0712  0.1019 -0.1041
  198DOPC   C3124526   5.617   3.627  12.873 -0.5265  0.4567  0.2015
  198DOPC   O3224527   5.655   3.550  12.779  0.2159  0.0186  0.0716
  198DOPC   C3224528   5.652   3.606  13.026 -0.0679  0.5976 -0.5616
  198DOPC   H2X24529   5.761   3.616  13.044 -0.4585  1.4695  1.5339
  198DOPC   H2Y24530   5.605   3.697  13.070  1.3390  1.3030 -0.4811
  198DOPC   C2324531   5.140   3.576  13.068 -0.2497 -0.7691 -0.2600
  198DOPC   H3R24532   5.245   3.573  13.104  0.6259 -0.8773 -2.5863
  198DOPC   H3S24533   5.121   3.467  13.058 -0.7974 -0.4789 -3.4389
  198DOPC   C2424534   5.046   3.634  13.176 -0.4965 -0.1622  0.2011
  198DOPC   H4R24535   4.942   3.635  13.136 -0.2633 -2.2092 -0.5660
  198DOPC   H4S24536   5.078   3.739  13.196 -0.6583  0.4095 -2.1853
  198DOPC   C2524537   5.045   3.541  13.299  0.7604  0.1492 -0.3464
  198DOPC   H5R24538   5.152   3.526  13.325  0.6216 -0.4861 -0.1112
  198DOPC   H5S24539   5.005   3.440  13.275  0.3391  0.3267 -0.4030
  198DOPC   C2624540   4.967   3.598  13.420  0.3751  0.1514  0.8288
  198DOPC   H6R24541   4.865   3.619  13.382  0.8075 -0.3811 -0.7024
  198DOPC   H6S24542   5.005   3.695  13.459  0.0560 -0.5139  2.9074
  198DOPC   C2724543   4.956   3.496  13.538 -0.7758 -0.2691 -0.9425
  198DOPC   H7R24544   5.052   3.465  13.584 -1.0481  1.9543  1.3448
  198DOPC   H7S24545   4.923   3.401  13.490  1.6999 -0.5899 -2.1671
  198DOPC   C2824546   4.868   3.534  13.656 -0.6023 -0.4450 -0.3704
  198DOPC   H8R24547   4.829   3.637  13.648  1.4652  0.3472 -1.0642
  198DOPC   H8S24548   4.943   3.542  13.739 -0.1903  1.1491 -0.8737
  198DOPC   C2924549   4.767   3.435  13.690 -0.0658  0.8669  0.0575
  198DOPC   H9R24550   4.672   3.453  13.637  0.8618 -0.1392 -2.0441
  198DOPC  C21024551   4.769   3.331  13.785  0.1507 -0.7541  0.9627
  198DOPC  H10R24552   4.680   3.267  13.797 -1.3924  0.6674 -1.8405
  198DOPC  C21124553   4.883   3.297  13.877 -0.7868 -0.1864  0.0707
  198DOPC  H11R24554   4.981   3.340  13.847  0.1506 -0.6970  2.2094
  198DOPC  H11S24555   4.900   3.187  13.877 -2.1741 -0.4219  0.5591
  198DOPC  C21224556   4.866   3.337  14.026  0.4848  0.6421  0.3589
  198DOPC  H12R24557   4.768   3.308  14.069  1.7293 -0.9596  2.2864
  198DOPC  H12S24558   4.872   3.448  14.027 -2.8641  0.9217 -0.0006
  198DOPC  C21324559   4.977   3.280  14.109  0.1700 -0.2336 -0.2711
  198DOPC  H13R24560   5.066   3.319  14.054 -0.8952  2.8053 -0.0256
  198DOPC  H13S24561   4.984   3.171  14.127 -0.5526 -0.5346 -1.6816
  198DOPC  C21424562   4.980   3.352  14.245 -0.3825  0.3964  0.2471
  198DOPC  H14R24563   4.937   3.453  14.231 -0.8724  0.1475 -0.0390
  198DOPC  H14S24564   5.086   3.373  14.274  0.0084 -0.6139 -0.3941
  198DOPC  C21524565   4.908   3.281  14.360 -0.6396  0.3716  0.2708
  198DOPC  H15R24566   4.958   3.185  14.387 -1.0877  0.3525  1.0346
  198DOPC  H15S24567   4.804   3.249  14.340 -0.7238  0.7525  0.1060
  198DOPC  C21624568   4.912   3.377  14.484 -0.5779 -0.2066  0.0427
  198DOPC  H16R24569   4.849   3.465  14.462 -0.4918 -0.3326 -0.7225
  198DOPC  H16S24570   5.018   3.401  14.507 -0.3441 -1.4554  0.3589
  198DOPC  C21724571   4.871   3.305  14.613  0.8367 -0.2042  0.4506
  198DOPC  H17R24572   4.902   3.198  14.605 -0.4530 -0.4587 -1.9795
  198DOPC  H17S24573   4.760   3.314  14.623  0.7146  0.0594 -0.9668
  198DOPC  C21824574   4.929   3.366  14.736  0.0147  0.4987 -0.2084
  198DOPC  H18R24575   4.879   3.464  14.749 -1.3727 -0.3734  1.3610
  198DOPC  H18S24576   5.039   3.379  14.724  0.3519 -0.2969  1.6280
  198DOPC  H18T24577   4.920   3.304  14.828 -0.2133  0.9851  0.0941
  198DOPC   C3324578   5.595   3.476  13.092  0.5943  0.1409 -0.4915
  198DOPC   H3X24579   5.668   3.400  13.057 -0.1973 -1.5314  1.2751
  198DOPC   H3Y24580   5.494   3.448  13.055  1.2587  0.5992 -2.7698
  198DOPC   C3424581   5.584   3.480  13.240 -0.1198  0.0507  0.0476
  198DOPC   H4X24582   5.549   3.383  13.283  0.0003 -0.5317 -1.1189
  198DOPC   H4Y24583   5.504   3.557  13.249  1.1899  1.6296 -1.2613
  198DOPC   C3524584   5.714   3.517  13.307 -0.2845 -0.1078  0.5279
  198DOPC   H5X24585   5.732   3.624  13.288  0.0402 -0.3325 -0.4793
  198DOPC   H5Y24586   5.785   3.445  13.261 -0.8596 -0.7992  0.6869
  198DOPC   C3624587   5.733   3.491  13.464 -0.4048 -0.2866  0.0770
  198DOPC   H6X24588   5.722   3.381  13.476  0.0906 -0.6284 -2.0864
  198DOPC   H6Y24589   5.837   3.512  13.495 -0.1345 -2.0625  0.4821
  198DOPC   C3724590   5.632   3.569  13.552 -0.1455  0.5806 -0.5050
  198DOPC   H7X24591   5.602   3.670  13.516  1.9305  1.3298 -0.3013
  198DOPC   H7Y24592   5.541   3.506  13.556  0.7993 -0.8453 -0.7527
  198DOPC   C3824593   5.685   3.589  13.702  0.1065  0.0998  0.2394
  198DOPC   H8X24594   5.622   3.660  13.760  0.4315 -0.5787  1.4723
  198DOPC   H8Y24595   5.791   3.623  13.698  0.4962 -1.1843 -1.1078
  198DOPC   C3924596   5.689   3.468  13.786 -0.7604 -0.0830 -0.0359
  198DOPC   H9X24597   5.713   3.377  13.729 -0.6632 -2.3005  3.2784
  198DOPC  C31024598   5.634   3.455  13.912 -0.4761  0.2337  0.2006
  198DOPC  H10X24599   5.658   3.361  13.964  0.7460 -0.7440 -1.9685
  198DOPC  C31124600   5.572   3.562  14.002  0.4863 -0.5804  0.3075
  198DOPC  H11X24601   5.465   3.549  13.977  0.5046 -0.0740 -0.0611
  198DOPC  H11Y24602   5.612   3.658  13.963  2.0501 -1.1605  0.3948
  198DOPC  C31224603   5.612   3.551  14.146  0.0150  0.7462 -0.1871
  198DOPC  H12X24604   5.565   3.643  14.186 -1.4943 -0.6164  1.2786
  198DOPC  H12Y24605   5.723   3.556  14.149  0.4682 -4.1498  2.6533
  198DOPC  C31324606   5.563   3.434  14.233  0.6356 -0.5817 -0.3482
  198DOPC  H13X24607   5.452   3.447  14.233  0.8048  1.2142  0.4783
  198DOPC  H13Y24608   5.584   3.331  14.197  2.1445 -1.3791  2.5341
  198DOPC  C31424609   5.609   3.457  14.382 -0.1483  0.0937  0.3186
  198DOPC  H14X24610   5.585   3.366  14.440  0.5055 -0.4228 -0.2001
  198DOPC  H14Y24611   5.720   3.460  14.376 -0.1021 -2.3093 -1.5873
  198DOPC  C31524612   5.550   3.588  14.436  0.1117  1.1153  0.0133
  198DOPC  H15X24613   5.441   3.585  14.414  0.3568 -0.9693 -1.1983
  198DOPC  H15Y24614   5.594   3.678  14.388  0.0439  1.0390 -0.1957
  198DOPC  C31624615   5.570   3.607  14.581  0.1160 -0.0874  0.0133
  198DOPC  H16X24616   5.679   3.596  14.600  0.0409 -0.2427  0.3631
  198DOPC  H16Y24617   5.551   3.712  14.611  0.5462  0.2454 -0.8439
  198DOPC  C31724618   5.473   3.520  14.668 -0.2424  0.5351  1.4040
  198DOPC  H17X24619   5.368   3.544  14.642  0.1319  0.9155  0.1973
  198DOPC  H17Y24620   5.497   3.412  14.655 -0.3010  0.7742 -1.0027
  198DOPC  C31824621   5.483   3.546  14.816 -0.1444 -0.7014  0.4983
  198DOPC  H18X24622   5.410   3.476  14.861 -2.3464  0.6986 -0.7057
  198DOPC  H18Y24623   5.584   3.529  14.859  0.2984 -2.3590 -1.0684
  198DOPC  H18Z24624   5.463   3.652  14.843 -1.4590 -0.8231  0.0936
  199DOPC     N24625   3.277   4.850  12.793 -0.3491  0.3747 -0.6276
  199DOPC   C1224626   3.223   4.763  12.686  0.0879  0.2888  0.3817
  199DOPC  H12A24627   3.148   4.814  12.628  0.8673  1.1803  0.1331
  199DOPC  H12B24628   3.156   4.691  12.730 -1.1850  0.0240 -1.8191
  199DOPC   C1324629   3.165   4.942  12.841 -0.0521 -0.0137  0.4578
  199DOPC  H13A24630   3.192   5.014  12.918 -0.8907  0.0214  0.7289
  199DOPC  H13B24631   3.129   5.007  12.763  1.1527  0.1800  0.0312
  199DOPC  H13C24632   3.081   4.887  12.881 -1.7604  2.2599  0.1665
  199DOPC   C1424633   3.391   4.939  12.749 -0.0578  0.0711 -0.1159
  199DOPC  H14A24634   3.447   4.964  12.838 -0.4890 -0.8856  0.4410
  199DOPC  H14B24635   3.446   4.903  12.664  0.3238  0.5747 -0.0844
  199DOPC  H14C24636   3.361   5.036  12.711 -2.2322 -0.5469 -0.1259
  199DOPC   C1524637   3.317   4.761  12.906 -0.0267  0.3865  0.2141
  199DOPC  H15A24638   3.382   4.686  12.863  0.0442  0.7921 -0.3999
  199DOPC  H15B24639   3.233   4.698  12.934 -0.2445  0.7631  0.4179
  199DOPC  H15C24640   3.368   4.810  12.987  0.7495  0.1162 -0.1055
  199DOPC   C1124641   3.323   4.691  12.590 -0.1951 -0.2187  0.9480
  199DOPC  H11A24642   3.267   4.620  12.526 -0.8985 -0.0039  1.3264
  199DOPC  H11B24643   3.365   4.773  12.527  0.6186 -1.1148  0.2744
  199DOPC     P24644   3.520   4.527  12.575  0.4323  0.6874  0.2026
  199DOPC   O1324645   3.652   4.528  12.634 -0.3751  0.1158 -0.2901
  199DOPC   O1424646   3.515   4.568  12.431 -0.3114 -0.0929  0.4513
  199DOPC   O1224647   3.427   4.626  12.657  0.5259  0.4182  0.5902
  199DOPC   O1124648   3.458   4.384  12.597  0.1883 -0.3971  0.5453
  199DOPC    C124649   3.382   4.337  12.712 -0.0253  0.2024 -0.0978
  199DOPC    HA24650   3.326   4.246  12.683 -1.7923  1.5810 -1.2191
  199DOPC    HB24651   3.309   4.419  12.734  0.8609  1.5083 -1.7378
  199DOPC    C224652   3.470   4.318  12.843 -0.1149 -0.1560  0.0777
  199DOPC    HS24653   3.520   4.417  12.855 -2.1895  0.7347  2.1018
  199DOPC   O2124654   3.577   4.214  12.833  0.0827  0.0258 -0.3086
  199DOPC   C2124655   3.693   4.243  12.886  0.5793 -0.0217 -0.1282
  199DOPC   O2224656   3.721   4.354  12.928  0.5093  0.0482 -0.3099
  199DOPC   C2224657   3.789   4.127  12.883  0.3017 -0.2815  0.3461
  199DOPC   H2R24658   3.795   4.075  12.785  1.7059  0.2835  0.1058
  199DOPC   H2S24659   3.748   4.057  12.960  0.2280  0.0547  0.6131
  199DOPC    C324660   3.374   4.304  12.968  0.2583 -0.6322 -0.2355
  199DOPC    HX24661   3.310   4.216  12.944 -1.4401  0.3184  0.6222
  199DOPC    HY24662   3.311   4.395  12.968 -0.9223 -1.2295 -4.8219
  199DOPC   O3124663   3.443   4.269  13.090 -0.5837  0.1807 -0.1293
  199DOPC   C3124664   3.500   4.368  13.153  0.0663 -0.1992  0.6341
  199DOPC   O3224665   3.485   4.487  13.125 -0.2472  0.6441 -0.2602
  199DOPC   C3224666   3.575   4.302  13.264  0.1913  0.5073  0.0743
  199DOPC   H2X24667   3.503   4.307  13.349  0.9896  1.6677  0.7058
  199DOPC   H2Y24668   3.598   4.194  13.248  1.3231  0.7585 -0.0473
  199DOPC   C2324669   3.931   4.160  12.921  0.0286 -0.7891  0.7338
  199DOPC   H3R24670   3.951   4.237  12.844  0.5694  0.0066  1.6541
  199DOPC   H3S24671   3.996   4.072  12.903  0.6602 -0.0196 -0.9691
  199DOPC   C2424672   3.952   4.199  13.067 -1.1835 -0.5481 -0.3563
  199DOPC   H4R24673   3.921   4.117  13.134 -0.2466 -0.8479 -0.2708
  199DOPC   H4S24674   3.896   4.292  13.092  0.3226  0.3623 -0.1897
  199DOPC   C2524675   4.102   4.234  13.102 -0.2330  0.6576 -0.4564
  199DOPC   H5R24676   4.136   4.323  13.044 -0.4953 -0.4289 -2.3754
  199DOPC   H5S24677   4.172   4.153  13.073  0.5235  1.4966 -1.0453
  199DOPC   C2624678   4.132   4.261  13.249  0.3504  0.0069 -0.1945
  199DOPC   H6R24679   4.091   4.184  13.318 -1.5551 -0.5804 -1.9008
  199DOPC   H6S24680   4.092   4.361  13.281  1.7208  0.3368  0.5736
  199DOPC   C2724681   4.278   4.263  13.290 -0.2373 -0.6141 -0.4484
  199DOPC   H7R24682   4.335   4.339  13.231 -0.1581 -0.3690 -0.0587
  199DOPC   H7S24683   4.324   4.168  13.255  0.8295 -0.2203 -0.1549
  199DOPC   C2824684   4.309   4.259  13.444  0.6045 -0.6600  0.1472
  199DOPC   H8R24685   4.243   4.339  13.484  2.2374  0.9275 -0.2303
  199DOPC   H8S24686   4.410   4.304  13.455 -0.6718  2.3664  0.4998
  199DOPC   C2924687   4.288   4.125  13.511  0.3388 -0.1247 -0.4786
  199DOPC   H9R24688   4.244   4.052  13.442  2.0002 -0.4544 -1.2488
  199DOPC  C21024689   4.303   4.098  13.645  0.3829  0.8952  0.1279
  199DOPC  H10R24690   4.259   4.006  13.685 -3.0443  1.0018 -2.8422
  199DOPC  C21124691   4.376   4.179  13.748 -0.4619 -0.8711 -0.4447
  199DOPC  H11R24692   4.346   4.286  13.744  3.1752  0.5332  3.2474
  199DOPC  H11S24693   4.486   4.183  13.736 -0.5355 -0.2327 -0.9668
  199DOPC  C21224694   4.338   4.120  13.893 -0.2417  0.2023  0.0004
  199DOPC  H12R24695   4.372   4.015  13.902 -1.7206 -0.3893 -0.9381
  199DOPC  H12S24696   4.227   4.119  13.900 -0.1516 -2.0096  2.2889
  199DOPC  C21324697   4.405   4.199  14.011 -0.1705 -0.1974  0.4082
  199DOPC  H13R24698   4.393   4.307  13.984 -0.3856 -0.7430 -1.8802
  199DOPC  H13S24699   4.512   4.171  14.020 -0.6612 -2.3526 -0.1369
  199DOPC  C21424700   4.346   4.165  14.151  0.2078 -0.2544 -0.2024
  199DOPC  H14R24701   4.343   4.054  14.159 -0.5635 -0.1018  2.9004
  199DOPC  H14S24702   4.243   4.205  14.164  0.7097  1.1426 -0.3375
  199DOPC  C21524703   4.426   4.230  14.260 -0.8781  0.8039 -0.0645
  199DOPC  H15R24704   4.432   4.337  14.233 -0.4513  0.3572 -1.8389
  199DOPC  H15S24705   4.533   4.200  14.254 -0.3238  2.2931  1.3967
  199DOPC  C21624706   4.361   4.205  14.396  0.2048  0.4183  0.9317
  199DOPC  H16R24707   4.347   4.094  14.391  2.4529  0.1436 -0.8453
  199DOPC  H16S24708   4.267   4.264  14.390 -0.1951 -0.3622 -2.0379
  199DOPC  C21724709   4.445   4.253  14.517 -0.3709 -1.2475  0.2767
  199DOPC  H17R24710   4.475   4.359  14.505  0.7902 -1.3351  2.0366
  199DOPC  H17S24711   4.532   4.184  14.512  0.2064 -0.5126 -0.0088
  199DOPC  C21824712   4.364   4.238  14.643 -0.1860  0.6071 -0.3690
  199DOPC  H18R24713   4.265   4.287  14.635 -0.4989  0.3046  1.3855
  199DOPC  H18S24714   4.416   4.270  14.736 -1.1368 -0.6634  0.6437
  199DOPC  H18T24715   4.342   4.130  14.655 -3.0148  1.2314  0.7592
  199DOPC   C3324716   3.688   4.393  13.318  0.7914 -0.2455 -0.8321
  199DOPC   H3X24717   3.646   4.488  13.356  4.4841  0.7768  1.2634
  199DOPC   H3Y24718   3.762   4.423  13.241  1.8126  1.6973  0.7969
  199DOPC   C3424719   3.760   4.331  13.438  0.0207 -0.8045  0.1497
  199DOPC   H4X24720   3.805   4.233  13.413  1.5815 -0.1470  0.2336
  199DOPC   H4Y24721   3.682   4.314  13.516  0.3545 -1.4412  0.3507
  199DOPC   C3524722   3.872   4.413  13.509  0.6909  0.3542  0.2579
  199DOPC   H5X24723   3.820   4.484  13.576 -0.8793 -2.4918  2.2581
  199DOPC   H5Y24724   3.927   4.474  13.434 -2.1974  0.6567 -1.7671
  199DOPC   C3624725   3.975   4.340  13.597 -0.5791  0.7563  0.5439
  199DOPC   H6X24726   4.032   4.277  13.525 -3.6815  0.1278 -1.5444
  199DOPC   H6Y24727   4.037   4.419  13.644 -1.2487  1.9166 -0.4596
  199DOPC   C3724728   3.912   4.254  13.705 -0.0156  0.0200 -0.6731
  199DOPC   H7X24729   3.825   4.201  13.662 -0.6647 -0.3413  1.0074
  199DOPC   H7Y24730   3.983   4.170  13.719 -0.0385 -0.3804 -2.7574
  199DOPC   C3824731   3.874   4.333  13.837 -0.0182 -1.0677 -0.1257
  199DOPC   H8X24732   3.790   4.292  13.898  0.2956 -0.6890  0.5703
  199DOPC   H8Y24733   3.840   4.431  13.799  3.0975 -0.4759 -1.6938
  199DOPC   C3924734   3.993   4.375  13.924 -0.2330 -0.5398  0.6592
  199DOPC   H9X24735   4.067   4.427  13.862  0.3978 -1.8834  0.2334
  199DOPC  C31024736   4.012   4.369  14.058 -0.3241 -0.3106  0.8245
  199DOPC  H10X24737   4.103   4.418  14.095  0.0702  0.9013 -1.5278
  199DOPC  C31124738   3.926   4.307  14.164  0.8232  0.3986 -0.0852
  199DOPC  H11X24739   3.990   4.243  14.228 -1.6197 -1.6953  0.3798
  199DOPC  H11Y24740   3.850   4.236  14.125  2.0922 -0.8715 -0.3320
  199DOPC  C31224741   3.871   4.425  14.244 -0.1047 -0.1585  0.2204
  199DOPC  H12X24742   3.831   4.504  14.177  0.3218  2.1713  2.5573
  199DOPC  H12Y24743   3.948   4.476  14.305 -0.0331  1.1707 -0.9371
  199DOPC  C31324744   3.757   4.387  14.345  0.8994 -0.4691 -0.0413
  199DOPC  H13X24745   3.699   4.474  14.382  2.0241  0.8467 -1.2766
  199DOPC  H13Y24746   3.681   4.324  14.294 -0.6248  1.1922  0.0812
  199DOPC  C31424747   3.820   4.324  14.474 -0.5413 -0.0277 -0.4453
  199DOPC  H14X24748   3.744   4.259  14.522  1.3182 -2.1060 -0.1501
  199DOPC  H14Y24749   3.903   4.254  14.454 -0.2847 -0.2278  1.1751
  199DOPC  C31524750   3.852   4.419  14.590 -0.7654  0.2882  0.9363
  199DOPC  H15X24751   3.765   4.488  14.599 -1.7843 -0.7761 -0.3070
  199DOPC  H15Y24752   3.939   4.478  14.556 -2.7599  0.6249 -4.8885
  199DOPC  C31624753   3.871   4.352  14.718 -0.7131 -0.2495  0.0309
  199DOPC  H16X24754   3.775   4.314  14.757 -0.4630 -0.1621  0.7552
  199DOPC  H16Y24755   3.945   4.269  14.708 -0.3297  0.0399  0.4107
  199DOPC  C31724756   3.921   4.449  14.828 -0.2385  0.4138 -0.4708
  199DOPC  H17X24757   4.019   4.494  14.801  1.3157 -2.2792  0.3024
  199DOPC  H17Y24758   3.860   4.542  14.834  2.0016  1.8944  1.2637
  199DOPC  C31824759   3.930   4.386  14.973 -0.6527 -0.1652  0.5327
  199DOPC  H18X24760   3.828   4.353  15.003 -1.5679  0.0979 -2.0666
  199DOPC  H18Y24761   3.998   4.298  14.975  1.5864  1.4688  2.6484
  199DOPC  H18Z24762   3.964   4.455  15.053 -1.3155 -0.6881  1.2745
  200DOPC     N24763   1.013   4.511  12.359  0.7479  0.2416  0.4646
  200DOPC   C1224764   0.975   4.380  12.433 -0.1968  0.5485  0.4853
  200DOPC  H12A24765   1.051   4.306  12.413 -1.2865 -0.3642 -0.4192
  200DOPC  H12B24766   0.896   4.343  12.370 -0.3437  2.7596 -0.6964
  200DOPC   C1324767   1.150   4.556  12.411  0.2828  0.2765 -0.7870
  200DOPC  H13A24768   1.219   4.480  12.378  0.0472 -0.2472 -0.0930
  200DOPC  H13B24769   1.166   4.657  12.375 -2.4588  0.6461 -1.2157
  200DOPC  H13C24770   1.158   4.547  12.518  1.4825  0.3732 -0.8651
  200DOPC   C1424771   0.914   4.631  12.372 -0.0091  0.7769  0.0192
  200DOPC  H14A24772   0.811   4.609  12.346  0.2702  1.1190 -1.4388
  200DOPC  H14B24773   0.923   4.670  12.473  1.3764 -0.2887  0.3451
  200DOPC  H14C24774   0.943   4.711  12.306 -1.0835 -0.2404 -1.7444
  200DOPC   C1524775   1.021   4.489  12.215 -0.1994 -0.2286  0.4133
  200DOPC  H15A24776   1.059   4.577  12.164 -1.0208 -0.1060  0.0051
  200DOPC  H15B24777   0.928   4.462  12.166 -0.5219 -1.4314  1.6293
  200DOPC  H15C24778   1.094   4.414  12.188  0.7570  0.6743  0.4195
  200DOPC   C1124779   0.949   4.382  12.584  0.3599 -0.2071 -0.5797
  200DOPC  H11A24780   0.865   4.452  12.603  2.0568  2.2276 -1.4666
  200DOPC  H11B24781   0.917   4.279  12.609 -1.3533  0.2223 -0.8755
  200DOPC     P24782   1.170   4.333  12.718  0.2546 -0.0679  0.2757
  200DOPC   O1324783   1.299   4.404  12.742  0.4741 -0.2909 -0.2144
  200DOPC   O1424784   1.185   4.205  12.655  0.1269  0.0942  0.0748
  200DOPC   O1224785   1.065   4.428  12.647  0.2939 -0.8126 -0.2225
  200DOPC   O1124786   1.102   4.318  12.865 -0.3009 -0.9948  0.4065
  200DOPC    C124787   1.074   4.435  12.943  0.4668 -0.1274  0.1160
  200DOPC    HA24788   0.963   4.446  12.944  0.3782 -0.7813 -0.5417
  200DOPC    HB24789   1.113   4.528  12.896  0.0570 -0.7140 -1.4724
  200DOPC    C224790   1.120   4.407  13.088  0.5277  0.0426 -0.5645
  200DOPC    HS24791   1.230   4.422  13.094  0.6381 -0.1640 -1.7528
  200DOPC   O2124792   1.077   4.272  13.127 -0.2552  0.2077 -0.7267
  200DOPC   C2124793   1.158   4.223  13.228  0.8802  0.4413  0.2075
  200DOPC   O2224794   1.262   4.273  13.267 -0.8680  0.3919  0.2553
  200DOPC   C2224795   1.101   4.087  13.270 -0.1081 -0.1060  0.0843
  200DOPC   H2R24796   1.135   4.029  13.182  0.2062  0.2558 -0.0345
  200DOPC   H2S24797   0.990   4.091  13.277 -0.1356 -1.6113  1.0712
  200DOPC    C324798   1.054   4.506  13.190  0.1691  0.0384 -0.2587
  200DOPC    HX24799   0.945   4.484  13.192  0.1315  0.2529  1.6481
  200DOPC    HY24800   1.065   4.610  13.153 -1.4925  0.4842  0.4170
  200DOPC   O3124801   1.098   4.495  13.322 -0.4780 -0.4932 -0.4550
  200DOPC   C3124802   1.222   4.552  13.350  0.3347  0.4907 -0.4256
  200DOPC   O3224803   1.289   4.614  13.270  0.5806  0.0530  0.0850
  200DOPC   C3224804   1.269   4.506  13.493  0.1772  0.1212  0.3893
  200DOPC   H2X24805   1.183   4.488  13.560  0.2913  0.4632  0.6320
  200DOPC   H2Y24806   1.326   4.413  13.472 -1.4279 -1.0172  0.9502
  200DOPC   C2324807   1.160   4.028  13.396 -0.3231  0.1827  0.9518
  200DOPC   H3R24808   1.271   4.022  13.382 -0.4473  0.8931 -0.5348
  200DOPC   H3S24809   1.114   3.929  13.417  0.1345 -0.3136 -0.3001
  200DOPC   C2424810   1.125   4.110  13.520  0.3998  0.0054  0.1812
  200DOPC   H4R24811   1.014   4.115  13.518  0.3111 -1.7232 -0.6234
  200DOPC   H4S24812   1.157   4.216  13.505  1.4530 -0.3080  0.1149
  200DOPC   C2524813   1.198   4.040  13.641  0.4972  0.4879  0.5332
  200DOPC   H5R24814   1.306   4.033  13.619  0.2094  0.3632 -0.9520
  200DOPC   H5S24815   1.168   3.935  13.663  0.8104 -0.4054 -2.7602
  200DOPC   C2624816   1.181   4.119  13.769  1.1369 -0.0603 -0.5837
  200DOPC   H6R24817   1.233   4.217  13.767 -2.7675  2.3463  1.4622
  200DOPC   H6S24818   1.232   4.060  13.848 -0.6961  0.8441  1.3869
  200DOPC   C2724819   1.036   4.133  13.809  0.5999 -0.9752 -0.1111
  200DOPC   H7R24820   0.988   4.035  13.829 -0.8897 -1.0651 -3.4563
  200DOPC   H7S24821   0.995   4.178  13.716 -1.2054 -3.1451 -0.4596
  200DOPC   C2824822   1.016   4.224  13.929 -0.1351 -0.6419  0.7347
  200DOPC   H8R24823   1.073   4.320  13.925 -0.4413 -0.4662  0.5866
  200DOPC   H8S24824   1.059   4.176  14.020  0.4841  0.0779  0.8354
  200DOPC   C2924825   0.863   4.253  13.943 -0.1615  0.2783  0.0893
  200DOPC   H9R24826   0.821   4.316  13.863  0.0175  1.7161  1.1034
  200DOPC  C21024827   0.794   4.240  14.055 -0.9678  0.7355  0.0020
  200DOPC  H10R24828   0.686   4.257  14.060 -1.0931 -0.2231  1.0096
  200DOPC  C21124829   0.843   4.199  14.191 -0.4212  0.1144  0.1216
  200DOPC  H11R24830   0.953   4.184  14.198 -0.5546 -0.7146  0.5789
  200DOPC  H11S24831   0.796   4.104  14.224  1.0557 -0.2389  1.3207
  200DOPC  C21224832   0.813   4.308  14.305 -0.6243 -0.1094  0.0079
  200DOPC  H12R24833   0.704   4.327  14.306 -0.7250 -0.6733  0.2235
  200DOPC  H12S24834   0.870   4.398  14.274 -0.8900 -0.2718 -0.9976
  200DOPC  C21324835   0.853   4.259  14.432 -0.1322  0.3096  0.4257
  200DOPC  H13R24836   0.958   4.223  14.426 -0.2221 -0.3059  1.9745
  200DOPC  H13S24837   0.804   4.162  14.455  0.7878  0.1236  1.7232
  200DOPC  C21424838   0.827   4.358  14.540 -0.1854 -0.5385 -1.0069
  200DOPC  H14R24839   0.721   4.388  14.527 -0.3851 -0.6727  0.1877
  200DOPC  H14S24840   0.887   4.451  14.532 -2.5762  1.0235 -1.9036
  200DOPC  C21524841   0.837   4.287  14.674  0.0263  0.4754 -0.0153
  200DOPC  H15R24842   0.937   4.239  14.668 -0.4826 -0.4435 -2.6123
  200DOPC  H15S24843   0.762   4.205  14.685  1.2626 -0.6551  0.2860
  200DOPC  C21624844   0.824   4.373  14.801  0.1728  0.6060  0.7413
  200DOPC  H16R24845   0.716   4.387  14.822  0.0940  0.2122  0.6090
  200DOPC  H16S24846   0.877   4.469  14.781  0.7147  0.1049 -0.2581
  200DOPC  C21724847   0.878   4.296  14.930 -0.4179 -0.1509  0.0048
  200DOPC  H17R24848   0.988   4.287  14.931 -0.3023  0.9370 -1.0903
  200DOPC  H17S24849   0.833   4.194  14.936  1.5831 -0.9816  1.9708
  200DOPC  C21824850   0.840   4.381  15.055 -0.2837  0.1516  0.5519
  200DOPC  H18R24851   0.730   4.397  15.058 -0.3516 -0.3942  1.1390
  200DOPC  H18S24852   0.886   4.482  15.043 -0.4500  0.1606  0.0034
  200DOPC  H18T24853   0.866   4.330  15.150 -1.8198 -0.6383  0.5807
  200DOPC   C3324854   1.368   4.611  13.555  0.2324  0.1309  0.0725
  200DOPC   H3X24855   1.312   4.692  13.606  1.0517  0.6742  0.1196
  200DOPC   H3Y24856   1.449   4.647  13.489  1.3564 -1.4435  0.5176
  200DOPC   C3424857   1.438   4.542  13.677 -0.5685  0.1117  1.0509
  200DOPC   H4X24858   1.529   4.602  13.701 -0.4692  1.4695 -2.1830
  200DOPC   H4Y24859   1.481   4.447  13.639 -0.2191  0.4894  0.4834
  200DOPC   C3524860   1.360   4.508  13.796 -0.0865  0.1695 -0.2002
  200DOPC   H5X24861   1.394   4.406  13.823  0.9945  0.7176  0.5790
  200DOPC   H5Y24862   1.250   4.494  13.780  0.1895 -2.0131 -0.5687
  200DOPC   C3624863   1.384   4.605  13.906  0.1743 -0.2309 -0.5696
  200DOPC   H6X24864   1.488   4.595  13.945 -1.3640  0.0758  4.3051
  200DOPC   H6Y24865   1.372   4.708  13.868  0.3173  0.3708  0.9506
  200DOPC   C3724866   1.305   4.578  14.039  0.7633 -0.6930  0.0614
  200DOPC   H7X24867   1.321   4.673  14.094 -0.4863  0.9406 -2.2242
  200DOPC   H7Y24868   1.195   4.572  14.023  0.5429 -0.9298  1.5217
  200DOPC   C3824869   1.353   4.452  14.114  0.5665  0.2527 -0.6576
  200DOPC   H8X24870   1.447   4.480  14.167  0.1376  0.7825 -0.1641
  200DOPC   H8Y24871   1.369   4.375  14.036  0.1919 -1.2433  0.6821
  200DOPC   C3924872   1.244   4.406  14.212  0.3569  0.5220  1.1990
  200DOPC   H9X24873   1.174   4.335  14.168  1.3788  0.0642  0.2673
  200DOPC  C31024874   1.202   4.464  14.329 -0.5090  0.0589  0.0106
  200DOPC  H10X24875   1.110   4.424  14.374 -1.4464 -0.7239 -2.4079
  200DOPC  C31124876   1.276   4.577  14.399 -0.2197 -0.1151  0.1253
  200DOPC  H11X24877   1.213   4.665  14.422 -0.0182 -0.0563  0.4601
  200DOPC  H11Y24878   1.353   4.617  14.330  0.6151  1.4416  1.8789
  200DOPC  C31224879   1.348   4.540  14.533 -0.3405 -0.5742  0.0894
  200DOPC  H12X24880   1.408   4.627  14.567  0.7503 -1.0121 -0.6682
  200DOPC  H12Y24881   1.412   4.450  14.518  0.2669 -0.3664  1.2796
  200DOPC  C31324882   1.243   4.510  14.639 -1.1390  0.2993  0.7141
  200DOPC  H13X24883   1.172   4.595  14.646 -2.6947 -0.9444  0.7493
  200DOPC  H13Y24884   1.187   4.422  14.601  1.5090 -1.4401  0.5556
  200DOPC  C31424885   1.322   4.481  14.768 -0.1660 -0.0561  0.1595
  200DOPC  H14X24886   1.407   4.410  14.758  0.1179  0.4219 -0.9024
  200DOPC  H14Y24887   1.366   4.572  14.815 -1.5443 -0.6473  2.7758
  200DOPC  C31524888   1.230   4.432  14.885  0.1629 -0.0727  0.0234
  200DOPC  H15X24889   1.207   4.331  14.844 -0.7073  0.6037 -1.2155
  200DOPC  H15Y24890   1.139   4.495  14.888  1.4570  2.1547 -2.6456
  200DOPC  C31624891   1.291   4.419  15.023  0.3574 -0.7361  0.3285
  200DOPC  H16X24892   1.384   4.359  15.014  0.3390 -0.8081  0.6017
  200DOPC  H16Y24893   1.327   4.513  15.070  1.5530 -0.4847 -1.0383
  200DOPC  C31724894   1.189   4.358  15.126  0.1829 -0.0925  0.0637
  200DOPC  H17X24895   1.134   4.450  15.154 -0.5993 -0.6655  0.4363
  200DOPC  H17Y24896   1.116   4.286  15.084  1.3036 -0.9026 -0.5340
  200DOPC  C31824897   1.254   4.299  15.250 -0.0386 -0.0012 -0.9667
  200DOPC  H18X24898   1.177   4.236  15.299 -1.1057 -0.2439 -2.8911
  200DOPC  H18Y24899   1.340   4.232  15.230  1.2523  1.1886  0.3354
  200DOPC  H18Z24900   1.286   4.376  15.324 -0.0421 -1.0945  0.2040
  201SOD    SOD24901   4.450   4.772  20.844 -0.3559 -0.2070 -0.2693
  202SOD    SOD24902   3.362   0.581  10.886 -0.0222  0.3768  0.3150
  203SOD    SOD24903   4.588   0.230  19.660  0.2077  0.0741  0.4419
  204SOD    SOD24904   1.807   4.695  10.332  0.2209  0.0395  0.0541
  205SOD    SOD24905   3.319   4.386  20.241  0.0979 -0.8730  0.2024
  206SOD    SOD24906   4.523   5.940  11.547  0.2922  0.2022  0.0295
  207SOD    SOD24907   2.784   3.862  10.593  0.0697 -0.1684  0.0485
  208SOD    SOD24908   3.998   3.537  17.527 -0.3967  0.2629  0.1493
  209SOD    SOD24909   1.394   5.925  11.071 -0.1961  0.3342  0.6713
  210SOD    SOD24910   1.023   0.893  21.268  0.2449  0.4875 -0.7088
  211SOD    SOD24911   6.328   1.976  17.878  0.5509 -0.3637 -0.1929
  212SOD    SOD24912   4.574   4.766  19.967  0.1590  0.0275 -0.2963
  213SOD    SOD24913   3.045   2.654  12.147  0.3211  0.0674  0.1047
  214SOD    SOD24914   0.341   4.444  19.651 -0.3484 -0.1966  0.5363
  215SOD    SOD24915   6.446   3.224  17.974  0.1436  0.2821  0.0263
  216SOD    SOD24916   2.023   2.374  18.530  0.2084 -0.3987 -0.2074
  217SOD    SOD24917   5.231   4.361  11.120 -0.5369  0.4433  0.4811
  218SOD    SOD24918   2.306   6.272  19.183 -0.3612  0.0939  0.2972
  219SOD    SOD24919   3.746   5.658  18.601 -0.1327 -0.1907  0.2116
  220SOD    SOD24920   3.459   2.971  11.057  0.2119  0.0254 -0.1145
  221SOD    SOD24921   5.182   4.106  12.545  0.2211  0.0288 -0.0260
  222SOD    SOD24922   3.243   0.159  19.921  0.4062  0.0141 -0.6464
  223SOD    SOD24923   1.812   1.868  10.594 -0.4009 -0.1577 -0.3547
  224SOD    SOD24924   5.541   5.655  11.022 -0.7123 -0.3254 -0.1326
  225SOD    SOD24925   0.571   4.535  11.449  0.2471 -0.4994  0.4307
  226SOD    SOD24926   2.086   4.727  19.993  0.7486  0.3947 -0.3352
  227CLA    CLA24927   1.632   0.515  10.898 -0.0423 -0.3305 -0.2992
  228CLA    CLA24928   1.232   0.790  10.943 -0.0570  0.0551  0.5125
  229CLA    CLA24929   1.549   5.517  11.743  0.0529  0.0931  0.3086
  230CLA    CLA24930   1.997   1.580  20.143 -0.0567  0.0941  0.5281
  231CLA    CLA24931   1.561   3.546  20.035  0.0102  0.5456  0.0556
  232CLA    CLA24932   3.444   6.497  20.216 -0.3158  0.0174  0.0995
  233CLA    CLA24933   4.113   5.487  18.383 -0.2233  0.0044  0.0346
  234CLA    CLA24934   2.980   4.274  19.924  0.1498  0.5200 -0.1650
  235CLA    CLA24935   0.255   4.994  10.468 -0.0174 -0.1205  0.1938
  236CLA    CLA24936   6.452   2.061  20.389 -0.4180  0.1909  0.2008
  237CLA    CLA24937   4.323   1.320  18.194  0.2757  0.0119  0.0445
  238CLA    CLA24938   0.322   4.820  11.002  0.3592  0.3572  0.0179
  239CLA    CLA24939   0.535   3.776  11.609 -0.4487 -0.3033  0.0996
  240CLA    CLA24940   5.332   4.307  19.630 -0.3360  0.1139 -0.0637
  241CLA    CLA24941   4.842   6.466  11.199  0.1678  0.1533  0.1585
  242CLA    CLA24942   3.911   6.381  20.189 -0.2501  0.4409 -0.2196
  243CLA    CLA24943   5.549   1.743  11.363 -0.0245  0.6577  0.0403
  244CLA    CLA24944   1.853   6.276  10.453  0.0274 -0.1155 -0.0144
  245CLA    CLA24945   3.228   5.208  11.311 -0.1651 -0.2688 -0.1115
  246CLA    CLA24946   3.136   6.038  19.177  0.2283 -0.2819  0.0207
  247CLA    CLA24947   2.109   3.818  11.259 -0.0108  0.4362 -0.1967
  248CLA    CLA24948   4.593   0.490  11.085 -0.4412  0.3022 -0.0992
  249CLA    CLA24949   2.639   5.247  12.487  0.0794 -0.1604  0.2389
  250CLA    CLA24950   5.964   1.921  20.309  0.1681  0.3464 -0.0557
  251CLA    CLA24951   2.970   2.978  18.520 -0.2654 -0.0273 -0.1886
  252CLA    CLA24952   3.958   3.421  11.372 -0.2042  0.1155 -0.2397
  253TIP3   OH224953   5.100   5.365  20.757  0.1550  0.1364  0.5325
  253TIP3    H124954   5.031   5.332  20.815  0.3569  0.7605  1.1410
  253TIP3    H224955   5.065   5.449  20.725 -0.0669 -0.3228 -0.4619
  254TIP3   OH224956   1.782   3.630  17.798 -0.2614  0.1611 -0.1995
  254TIP3    H124957   1.859   3.593  17.754  0.1915  0.3803  0.4030
  254TIP3    H224958   1.713   3.566  17.782  0.0151  0.0206 -0.8467
  255TIP3   OH224959   3.705   4.178  19.880 -0.3795  0.2259  0.4132
  255TIP3    H124960   3.768   4.159  19.810  0.5112  0.3936  1.1525
  255TIP3    H224961   3.629   4.123  19.859 -1.0120  1.8211 -1.8661
  256TIP3   OH224962   4.417   1.181  19.804  0.4031  0.4958  0.0248
  256TIP3    H124963   4.351   1.230  19.755  0.4126 -1.0736 -1.6422
  256TIP3    H224964   4.471   1.140  19.737  1.2953 -0.5772  1.3582
  257TIP3   OH224965   0.033   1.333  21.399 -0.0545 -0.2507  0.2448
  257TIP3    H124966   0.068   1.309  21.313 -1.2634 -0.6154 -0.1568
  257TIP3    H224967   0.023   1.428  21.394 -1.6907 -0.4388 -0.6492
  258TIP3   OH224968   0.509   2.068  17.975  0.6800 -0.6280  0.3550
  258TIP3    H124969   0.590   2.050  17.926  0.4392  0.8777 -0.6867
  258TIP3    H224970   0.481   2.154  17.943 -0.9619 -0.8077  1.2136
  259TIP3   OH224971   1.664   5.792  19.671  0.7204 -0.5572  0.3654
  259TIP3    H124972   1.589   5.806  19.729 -0.5086 -2.0009 -0.7682
  259TIP3    H224973   1.648   5.852  19.598  0.2633 -1.3669 -0.2131
  260TIP3   OH224974   1.939   3.138  20.584  0.9430  0.1652 -1.1327
  260TIP3    H124975   1.851   3.100  20.575  0.8729 -0.3749  1.0971
  260TIP3    H224976   1.929   3.229  20.557 -0.4020  0.2126 -0.5514
  261TIP3   OH224977   4.877   3.273  19.968 -0.1796  0.1910 -0.0806
  261TIP3    H124978   4.920   3.324  20.036  0.4518 -0.6515  0.1684
  261TIP3    H224979   4.832   3.338  19.914  2.4922  1.2813 -1.1661
  262TIP3   OH224980   2.147   5.258  18.241  0.2902  0.5577 -0.1761
  262TIP3    H124981   2.239   5.262  18.265 -0.3041  0.0175  2.5303
  262TIP3    H224982   2.109   5.339  18.276 -0.4313  0.3145 -0.3733
  263TIP3   OH224983   1.033   3.354  19.946 -0.4867  0.6654 -0.2402
  263TIP3    H124984   1.010   3.335  19.856 -0.5234  0.1430 -0.1251
  263TIP3    H224985   1.017   3.447  19.957 -1.6683  0.4863 -0.4129
  264TIP3   OH224986   2.543   0.856  19.375 -0.1648  0.1075  0.5432
  264TIP3    H124987   2.531   0.781  19.433 -1.4410  1.0962  1.5978
  264TIP3    H224988   2.455   0.884  19.353  0.2143  2.6496  1.9509
  265TIP3   OH224989   1.253   4.647  18.139 -0.2386  0.2081 -0.2790
  265TIP3    H124990   1.182   4.626  18.079  0.3281 -3.4388  0.1241
  265TIP3    H224991   1.326   4.593  18.110  1.0076  0.5913  1.9208
  266TIP3   OH224992   6.117   3.477  19.002  0.3756  0.0845 -0.2753
  266TIP3    H124993   6.033   3.469  19.048  0.0289 -0.7336 -1.0155
  266TIP3    H224994   6.124   3.395  18.953  0.8305  0.8464 -1.5107
  267TIP3   OH224995   2.649   4.309  19.561 -0.4325  0.9047  0.7645
  267TIP3    H124996   2.664   4.297  19.467 -1.0392  1.4789  0.5833
  267TIP3    H224997   2.733   4.343  19.594  0.0852 -0.1797  0.6182
  268TIP3   OH224998   2.934   0.482  20.585 -0.5088 -0.3890 -0.5265
  268TIP3    H124999   3.002   0.470  20.519 -2.7983 -0.7151 -2.9794
  268TIP3    H225000   2.893   0.396  20.593 -1.4633  0.0918 -0.0976
  269TIP3   OH225001   4.423   6.006  17.975 -0.5882  0.1435  0.4534
  269TIP3    H125002   4.393   5.918  18.000 -1.1922  0.2658  0.1737
  269TIP3    H225003   4.464   5.994  17.890  0.0981 -0.0077  0.7927
  270TIP3   OH225004   3.791   3.110  20.521  0.1525  0.4325 -0.7831
  270TIP3    H125005   3.780   3.055  20.599 -2.1687  0.8214 -0.7560
  270TIP3    H225006   3.729   3.182  20.534  1.1227  1.5558 -2.1066
  271TIP3   OH225007   0.228   4.858  20.865 -0.1323  0.0632  0.4036
  271TIP3    H125008   0.209   4.913  20.789 -0.6290 -2.9566 -1.8689
  271TIP3    H225009   0.149   4.861  20.918 -2.0370 -1.9000 -2.0724
  272TIP3   OH225010   6.017   0.989  20.677 -0.0693  0.2639 -0.2847
  272TIP3    H125011   5.986   0.900  20.666 -1.3728  0.7284 -0.5469
  272TIP3    H225012   6.064   1.009  20.596 -0.0976 -0.0505 -0.3765
  273TIP3   OH225013   4.050   3.202  20.881  0.4171 -0.4137 -0.2237
  273TIP3    H125014   3.969   3.232  20.840  1.2111  1.0770 -0.7632
  273TIP3    H225015   4.120   3.235  20.825  1.4122 -2.5685 -0.3581
  274TIP3   OH225016   5.920   5.584  20.362  0.2417  0.0700  0.5756
  274TIP3    H125017   5.976   5.618  20.432  0.2420  0.8617  0.1931
  274TIP3    H225018   5.972   5.517  20.319  0.1214 -0.6648  1.5442
  275TIP3   OH225019   2.384   5.192  20.511  0.5069 -0.2350  0.8416
  275TIP3    H125020   2.364   5.164  20.422 -0.7758  0.5372  0.8638
  275TIP3    H225021   2.426   5.277  20.501 -0.5709  0.3360  0.9900
  276TIP3   OH225022   2.358   2.107  20.566  0.3162 -0.0376 -0.4058
  276TIP3    H125023   2.335   2.104  20.473 -0.1378  2.7194 -0.4597
  276TIP3    H225024   2.284   2.065  20.610  0.2950 -0.9031 -1.2471
  277TIP3   OH225025   4.438   0.204  20.563  0.3489 -0.0248 -0.0552
  277TIP3    H125026   4.384   0.267  20.515 -0.8002 -0.4351  0.6662
  277TIP3    H225027   4.481   0.257  20.630 -0.6486  0.0071  0.5778
  278TIP3   OH225028   1.690   1.500  20.890 -0.1810 -0.2087  0.5892
  278TIP3    H125029   1.673   1.463  20.977 -0.6418 -1.6857 -0.0883
  278TIP3    H225030   1.646   1.585  20.891  1.4486  0.7093  2.4277
  279TIP3   OH225031   3.156   1.604  19.492 -0.0567 -0.0504  0.1327
  279TIP3    H125032   3.101   1.578  19.567 -0.8897  2.7419  0.6157
  279TIP3    H225033   3.095   1.611  19.419  0.2121  0.1818 -0.0709
  280TIP3   OH225034   3.766   3.186  21.139  0.0430  0.4799 -0.4218
  280TIP3    H125035   3.783   3.212  21.049  0.6547  0.4214 -0.3326
  280TIP3    H225036   3.841   3.130  21.162 -0.5266 -0.1895 -0.1536
  281TIP3   OH225037   2.205   2.054  17.871  0.2530  0.0846  0.3152
  281TIP3    H125038   2.127   2.002  17.889  0.6605 -0.7363 -0.1787
  281TIP3    H225039   2.186   2.141  17.906 -0.3812 -0.4524  1.3345
  282TIP3   OH225040   3.807   2.966  19.278  0.1624 -0.3846 -0.2426
  282TIP3    H125041   3.717   2.995  19.292  0.2018  0.1761 -1.0914
  282TIP3    H225042   3.801   2.870  19.276 -0.9376 -0.3659 -3.2964
  283TIP3   OH225043   4.727   0.661  18.398 -0.0272 -0.0938 -0.0587
  283TIP3    H125044   4.668   0.699  18.463  0.2813 -0.4554  0.4417
  283TIP3    H225045   4.745   0.733  18.337  0.6089  0.5924  0.9120
  284TIP3   OH225046   6.293   6.123  11.120  0.2502  0.0641 -0.4874
  284TIP3    H125047   6.249   6.202  11.089 -0.7230 -0.2737 -0.0300
  284TIP3    H225048   6.264   6.114  11.211 -1.8081 -2.1992 -1.2460
  285TIP3   OH225049   1.187   3.908  10.600  0.4294  0.2111 -0.3305
  285TIP3    H125050   1.097   3.885  10.620  1.3837 -2.8068  1.0771
  285TIP3    H225051   1.191   3.912  10.505 -0.9191 -0.9156 -0.4515
  286TIP3   OH225052   0.454   5.721  13.495  0.2816  0.2884  0.4018
  286TIP3    H125053   0.511   5.773  13.552  0.3390  3.1892 -2.0617
  286TIP3    H225054   0.367   5.729  13.535  0.7312  0.0264  1.4729
  287TIP3   OH225055   5.001   6.145  11.782 -0.2975  0.5699 -0.4390
  287TIP3    H125056   4.941   6.078  11.815  1.7409 -1.6495 -0.9739
  287TIP3    H225057   5.039   6.186  11.860 -0.6790  0.2835 -0.1032
  288TIP3   OH225058   6.131   2.872  10.804  0.1579 -0.3308 -0.3401
  288TIP3    H125059   6.049   2.834  10.837 -0.2230  0.2882 -0.5506
  288TIP3    H225060   6.167   2.805  10.746 -0.3332 -0.5079 -0.4446
  289TIP3   OH225061   2.368   5.996  11.005 -0.3637 -0.0055 -0.2438
  289TIP3    H125062   2.276   5.988  11.030 -0.5300  1.6817 -0.2266
  289TIP3    H225063   2.414   5.938  11.067 -1.3559 -0.5478  0.0142
  290TIP3   OH225064   0.606   0.539  12.868 -0.0142 -0.6466 -0.1541
  290TIP3    H125065   0.602   0.577  12.780 -0.5898 -0.6412 -0.1247
  290TIP3    H225066   0.536   0.582  12.916 -0.9536 -2.0438 -0.2433
  291TIP3   OH225067   1.526   4.460  11.454 -0.8519  0.3988  0.5757
  291TIP3    H125068   1.571   4.507  11.524  1.2009  0.0266 -0.4209
  291TIP3    H225069   1.538   4.368  11.475 -1.5802  0.2897  0.5346
  292TIP3   OH225070   6.073   5.924   9.609 -0.2067  1.1811 -0.7439
  292TIP3    H125071   6.139   5.855   9.603  0.5025  1.4007  2.4782
  292TIP3    H225072   5.990   5.877   9.611  0.2879  0.2128  1.9244
  293TIP3   OH225073   4.326   0.001  12.611 -0.1358  0.1201  0.7614
  293TIP3    H125074   4.304  -0.049  12.690 -1.2683  0.0191  0.4087
  293TIP3    H225075   4.246   0.052  12.593  0.7367  1.5272  0.7165
  294TIP3   OH225076   4.321   5.319  11.398  0.2402 -0.0062  0.1511
  294TIP3    H125077   4.366   5.256  11.342 -0.7780 -0.3368 -0.3253
  294TIP3    H225078   4.236   5.333  11.355 -0.0735  0.6821  0.9578
  295TIP3   OH225079   3.804   1.127   9.674 -0.1951  0.3896 -0.2489
  295TIP3    H125080   3.778   1.210   9.715 -2.3824 -0.5074  0.3163
  295TIP3    H225081   3.888   1.105   9.714 -0.3982  1.5039  0.8254
  296TIP3   OH225082   0.466   4.205  11.008  0.1341  0.5331 -0.3560
  296TIP3    H125083   0.396   4.260  10.972  1.0548  2.0660  0.0667
  296TIP3    H225084   0.421   4.145  11.067 -0.8118  1.7807  0.2500
  297TIP3   OH225085   1.962   2.217  10.726  0.4514 -0.6805 -0.3436
  297TIP3    H125086   1.890   2.242  10.668 -0.5733 -0.5702  0.9311
  297TIP3    H225087   1.956   2.121  10.731 -0.2969 -0.6018  0.5827
  298TIP3   OH225088   0.234   3.436  11.693  0.2606 -0.9145  0.1058
  298TIP3    H125089   0.288   3.390  11.629  0.2875  1.2555 -1.5617
  298TIP3    H225090   0.144   3.415  11.669  0.2865 -0.7160 -0.1666
  299TIP3   OH225091   1.601   1.862   9.655  0.2388 -0.1405  0.2310
  299TIP3    H125092   1.689   1.828   9.642 -0.6519 -3.3368  1.5860
  299TIP3    H225093   1.543   1.790   9.630 -1.9714  1.3578  0.6951
  300TIP3   OH225094   3.116   3.633   9.672  0.1164  0.1164  0.1482
  300TIP3    H125095   3.174   3.668   9.739  1.4565  0.6924 -1.2686
  300TIP3    H225096   3.171   3.573   9.621 -0.0532  1.8031 -2.1439
  301TIP3   OH225097   3.189   1.727  11.028 -0.5137 -1.0282 -0.0303
  301TIP3    H125098   3.145   1.645  11.052  0.9134 -1.4327  1.3878
  301TIP3    H225099   3.130   1.796  11.058 -0.8671 -1.5428  0.4828
  302TIP3   OH225100   6.362   4.026  10.026 -0.3054 -0.1601  0.5468
  302TIP3    H125101   6.412   4.060   9.951  0.6878 -0.6398  0.9672
  302TIP3    H225102   6.334   3.939   9.998  0.3980 -0.4982  0.8517
  303TIP3   OH225103   5.122   6.526  12.090  0.6640  0.2316 -0.0936
  303TIP3    H125104   5.121   6.469  12.013  0.3617  0.1872 -0.0578
  303TIP3    H225105   5.086   6.609  12.058  1.3486  0.4908 -0.2093
  304TIP3   OH225106   2.320   4.493   9.435 -0.0126 -0.2783  0.3065
  304TIP3    H125107   2.258   4.423   9.454 -0.3718 -1.0515 -3.0891
  304TIP3    H225108   2.269   4.558   9.386  0.9141  1.1656  1.1931
  305TIP3   OH225109   0.005   5.479  13.043 -0.0864  0.0077 -0.4028
  305TIP3    H125110   0.053   5.559  13.066  0.7094 -0.3959 -0.6134
  305TIP3    H225111   0.018   5.470  12.948 -1.8182  0.6748 -0.7457
  306TIP3   OH225112   0.257   6.173  10.483 -0.4712 -0.3208 -0.2039
  306TIP3    H125113   0.343   6.161  10.525  0.8295  3.4156 -1.3423
  306TIP3    H225114   0.226   6.257  10.516 -2.4496 -0.3234 -1.8609
  307TIP3   OH225115   5.951   0.831  10.134  0.0465  0.6819 -0.1739
  307TIP3    H125116   5.901   0.908  10.107  1.3949  2.3404  1.7085
  307TIP3    H225117   6.043   0.858  10.125  0.5511 -0.4252  1.1647
  308TIP3   OH225118   2.426   3.481  11.949 -0.0236  0.1455 -0.0717
  308TIP3    H125119   2.471   3.534  12.014  0.1281 -0.0693  0.0002
  308TIP3    H225120   2.421   3.536  11.871  0.8173 -0.0076 -0.2438
  309TIP3   OH225121   1.238   5.337  11.583 -0.1134 -0.0213  0.6746
  309TIP3    H125122   1.239   5.395  11.507 -2.3706 -0.0846  0.5175
  309TIP3    H225123   1.263   5.251  11.547  0.5746  0.2984  0.3726
  310TIP3   OH225124   2.167   6.317  10.876 -0.3243 -0.4792 -0.0898
  310TIP3    H125125   2.089   6.366  10.847 -1.1514 -1.1162  0.9694
  310TIP3    H225126   2.140   6.278  10.959  0.7099 -1.7893 -0.3497
  311TIP3   OH225127   6.525   5.360  10.029 -0.1095  0.1523 -0.2483
  311TIP3    H125128   6.463   5.353  10.102  0.9639  0.3102  0.7048
  311TIP3    H225129   6.605   5.393  10.069  1.2105 -1.8175 -1.0897
  312TIP3   OH225130   4.257   4.246  11.702 -0.2665 -0.1575  0.5661
  312TIP3    H125131   4.243   4.156  11.730  0.3858 -0.9482 -1.4600
  312TIP3    H225132   4.178   4.269  11.652  0.5133 -0.4757 -0.8830
  313TIP3   OH225133   5.330   3.740  11.324  0.1906 -0.2257  0.0368
  313TIP3    H125134   5.290   3.683  11.258  0.9165  1.1456 -1.7033
  313TIP3    H225135   5.256   3.780  11.370 -0.5616  1.5811 -2.5037
  314TIP3   OH225136   2.438   5.768  11.658  0.3710 -0.1835 -0.4094
  314TIP3    H125137   2.524   5.726  11.666  1.0818  1.4317  0.9531
  314TIP3    H225138   2.375   5.696  11.667  1.5222 -1.5274 -2.1950
  315TIP3   OH225139   6.567   5.111   9.612  0.0579 -0.6885 -0.5465
  315TIP3    H125140   6.496   5.116   9.548  0.7640  1.2576 -1.2598
  315TIP3    H225141   6.552   5.186   9.670  1.2617 -0.5230 -0.4302
  316TIP3   OH225142   1.988   3.283  11.169  0.3694 -0.3501  0.2079
  316TIP3    H125143   2.028   3.217  11.113 -1.7437 -0.2871 -1.5277
  316TIP3    H225144   2.033   3.364  11.148  0.7623 -0.6496 -0.1061
  317TIP3   OH225145   2.942   3.875  10.806 -0.0952  0.2743  0.1252
  317TIP3    H125146   2.923   3.835  10.891 -2.3737  2.6177  0.8493
  317TIP3    H225147   2.980   3.960  10.828 -0.8863  0.9948 -1.1608
  318TIP3   OH225148   3.796   4.167   9.969  0.1747  0.1536 -0.8369
  318TIP3    H125149   3.750   4.086   9.948 -0.5026  0.1487  0.5272
  318TIP3    H225150   3.882   4.158   9.928  0.5976 -1.8483  0.3556
  319TIP3   OH225151   2.949   3.541   9.446  0.7337 -0.2646  0.2675
  319TIP3    H125152   2.993   3.593   9.379 -1.2680  0.1069 -0.8413
  319TIP3    H225153   2.966   3.588   9.528  2.0280  0.0661 -0.1666
  320TIP3   OH225154   4.248   6.323  11.611  0.5787  0.2870 -0.1768
  320TIP3    H125155   4.192   6.306  11.687  2.8859 -0.8619  1.3722
  320TIP3    H225156   4.293   6.405  11.632 -0.5003  1.2486 -1.4489
  321TIP3   OH225157   1.300   6.096  12.445 -0.2228 -0.0144  0.5710
  321TIP3    H125158   1.290   6.016  12.393  1.4129 -0.8786  1.5105
  321TIP3    H225159   1.247   6.082  12.523 -1.6974  0.7765 -0.2426
  322TIP3   OH225160   4.523   1.075  11.425 -0.5191 -0.2868  1.0682
  322TIP3    H125161   4.578   1.074  11.347 -0.7103  0.7700  0.9146
  322TIP3    H225162   4.453   1.136  11.405 -2.3965 -2.4114  0.8454
  323TIP3   OH225163   1.226   5.382  20.325  0.4696  0.2308 -0.0069
  323TIP3    H125164   1.182   5.436  20.260 -1.5872 -0.1665  0.9477
  323TIP3    H225165   1.256   5.305  20.277 -1.6292 -0.3882 -0.4149
  324TIP3   OH225166   4.823   6.611  19.922  0.7645 -0.4430 -0.4788
  324TIP3    H125167   4.779   6.526  19.924  0.0003 -0.0347  0.9206
  324TIP3    H225168   4.752   6.675  19.918  1.1224  0.2605  2.4965
  325TIP3   OH225169   0.960   6.226  18.281 -0.6509 -0.6852  0.3736
  325TIP3    H125170   1.038   6.264  18.321 -1.0916 -0.9978  1.5727
  325TIP3    H225171   0.987   6.138  18.255  0.0006 -0.0515 -1.2323
  326TIP3   OH225172   0.371   0.534  19.100 -0.2676 -0.2033  0.0276
  326TIP3    H125173   0.340   0.457  19.148  1.9270 -1.1535  0.0293
  326TIP3    H225174   0.463   0.544  19.127 -0.3919  2.2394 -0.2225
  327TIP3   OH225175   4.235   3.579  17.587 -0.3960  0.0588  0.2699
  327TIP3    H125176   4.263   3.666  17.616 -0.4231 -0.5647  2.3048
  327TIP3    H225177   4.316   3.530  17.574 -0.3921  0.2663 -0.5829
  328TIP3   OH225178   1.046   2.552  20.433 -0.3394 -0.2532  0.0626
  328TIP3    H125179   0.965   2.513  20.401  0.1296  0.5806 -2.3282
  328TIP3    H225180   1.045   2.642  20.400  1.7765 -0.3667 -0.4821
  329TIP3   OH225181   0.729   4.082  17.961 -0.0872 -0.1134 -0.3986
  329TIP3    H125182   0.808   4.095  17.909 -0.3177 -1.1633 -1.0263
  329TIP3    H225183   0.745   4.002  18.011  0.0957  0.8297  1.1186
  330TIP3   OH225184   4.744   5.949  20.474  0.0643  0.7623  0.4812
  330TIP3    H125185   4.707   6.029  20.437 -0.7701  0.2223  0.1064
  330TIP3    H225186   4.672   5.910  20.524 -0.9322 -1.8076 -2.6049
  331TIP3   OH225187   3.135   4.536  18.556  0.1834  1.1404 -0.4743
  331TIP3    H125188   3.160   4.602  18.621  1.3984 -1.2788  1.7096
  331TIP3    H225189   3.173   4.568  18.474  5.4815  0.8255  1.4410
  332TIP3   OH225190   6.069   0.450  19.306 -0.1028  0.1073 -0.2791
  332TIP3    H125191   6.032   0.397  19.376 -0.5517  0.8109  0.0280
  332TIP3    H225192   5.994   0.496  19.268  0.2314  0.2634 -0.7608
  333TIP3   OH225193   3.350   2.832  19.106 -0.1395 -0.4094  0.2012
  333TIP3    H125194   3.312   2.819  19.019  0.8611  0.0697 -0.3248
  333TIP3    H225195   3.384   2.922  19.104 -0.7756 -0.1250  1.3518
  334TIP3   OH225196   4.958   6.478  21.119 -0.6281  0.0201 -0.8567
  334TIP3    H125197   4.871   6.445  21.097 -0.2290 -1.0592 -0.8602
  334TIP3    H225198   4.984   6.429  21.197  0.3352 -0.3205 -1.3673
  335TIP3   OH225199   4.052   4.966  18.609  0.1213 -0.3287 -0.2380
  335TIP3    H125200   4.139   4.932  18.632  0.2805  0.2136 -0.0279
  335TIP3    H225201   4.069   5.024  18.534  0.1017  0.6056  0.4604
  336TIP3   OH225202   1.348   4.423  18.349  0.4396 -0.3167  0.7565
  336TIP3    H125203   1.264   4.379  18.368  0.2835  0.3452  1.6510
  336TIP3    H225204   1.323   4.505  18.306  0.6304 -0.1565  0.9495
  337TIP3   OH225205   0.162   5.585  20.849  0.5665 -0.7168 -0.2756
  337TIP3    H125206   0.148   5.598  20.755 -0.8418  1.7866  0.1919
  337TIP3    H225207   0.225   5.652  20.874  1.7322 -2.0325  0.4313
  338TIP3   OH225208   5.747   5.821  19.337 -0.2235 -0.2891  0.4011
  338TIP3    H125209   5.801   5.801  19.413 -0.5287 -1.0023  0.4368
  338TIP3    H225210   5.678   5.878  19.371  0.7488  1.0109  0.2629
  339TIP3   OH225211   4.969   3.126  20.538 -0.0683 -0.2182  0.0439
  339TIP3    H125212   4.932   3.097  20.621  0.6044 -2.6950 -0.4441
  339TIP3    H225213   5.057   3.089  20.536 -0.3447 -0.9277 -2.1041
  340TIP3   OH225214   1.412   1.118  21.610 -0.4519  0.2183 -0.6275
  340TIP3    H125215   1.400   1.212  21.623  0.1727  0.4894 -1.8311
  340TIP3    H225216   1.500   1.110  21.571 -0.9302 -0.7553 -1.5538
  341TIP3   OH225217   6.571   5.822  20.807 -0.2725 -0.2201 -0.1667
  341TIP3    H125218   6.634   5.860  20.746 -0.7908  0.6127 -0.1969
  341TIP3    H225219   6.598   5.855  20.893 -0.4412 -0.1677 -0.1342
  342TIP3   OH225220   0.772   1.393  17.821  0.2149  0.5563 -0.5380
  342TIP3    H125221   0.696   1.446  17.846  0.6809  1.2414 -0.5690
  342TIP3    H225222   0.847   1.452  17.830  0.7079 -0.0158 -0.8377
  343TIP3   OH225223   3.365   3.394  20.116  0.2225 -0.3685 -0.1516
  343TIP3    H125224   3.317   3.373  20.197  2.4014 -0.8124  1.1119
  343TIP3    H225225   3.319   3.345  20.048 -1.2868 -0.5303  0.9215
  344TIP3   OH225226   5.692   5.423  20.374  0.2218  0.2364 -0.4746
  344TIP3    H125227   5.745   5.499  20.351 -0.8409  0.6825 -1.5573
  344TIP3    H225228   5.607   5.439  20.331 -1.3793  0.3233  2.4685
  345TIP3   OH225229   2.280   2.695  18.885  0.0184 -0.1222  0.2355
  345TIP3    H125230   2.261   2.783  18.918 -1.3935  0.2697 -1.4760
  345TIP3    H225231   2.352   2.707  18.824  0.0942 -0.2207  0.3049
  346TIP3   OH225232   2.887   3.100  17.692 -0.3216  0.1750  0.4108
  346TIP3    H125233   2.825   3.144  17.634  0.7539  2.3610  0.7803
  346TIP3    H225234   2.955   3.066  17.634 -1.7567 -2.1952  0.0104
  347TIP3   OH225235   4.595   2.372  17.200  0.2593 -0.2631  0.8898
  347TIP3    H125236   4.644   2.448  17.231 -0.7513  1.2377 -0.9775
  347TIP3    H225237   4.630   2.298  17.251  2.5818  1.1324  1.4589
  348TIP3   OH225238   2.291   1.157  18.771 -0.0952 -0.0341 -0.0143
  348TIP3    H125239   2.272   1.235  18.823 -0.4622  0.3845 -0.7621
  348TIP3    H225240   2.274   1.183  18.681  2.9708  0.0401 -0.6706
  349TIP3   OH225241   5.565   6.170  20.290  0.0229 -0.0030 -0.1613
  349TIP3    H125242   5.531   6.081  20.292 -1.9304  0.7056  0.8147
  349TIP3    H225243   5.590   6.184  20.199 -0.9354 -1.0816 -0.6143
  350TIP3   OH225244   0.317   5.812  19.834 -0.5648  0.3243  0.2216
  350TIP3    H125245   0.313   5.908  19.840 -1.5058  0.1931  2.8839
  350TIP3    H225246   0.227   5.783  19.848 -0.1714 -1.0038  0.1361
  351TIP3   OH225247   0.873   4.463  21.223  0.0891  0.2740 -0.3203
  351TIP3    H125248   0.876   4.371  21.251 -0.8516  0.3029 -0.0772
  351TIP3    H225249   0.801   4.467  21.161 -0.6728  1.0743  0.5865
  352TIP3   OH225250   0.132   0.962  20.905  0.5548  0.5064  0.6368
  352TIP3    H125251   0.067   0.974  20.835  0.8444 -0.3052  0.2211
  352TIP3    H225252   0.211   0.933  20.860  0.2671 -1.6663  1.4389
  353TIP3   OH225253   0.316   0.510  21.281 -0.1298  0.0909 -0.5150
  353TIP3    H125254   0.268   0.525  21.200 -0.4273 -0.2729 -0.4115
  353TIP3    H225255   0.320   0.596  21.323 -1.4431 -0.0194 -0.1202
  354TIP3   OH225256   0.116   5.159  19.452  0.1058  0.8018  0.1596
  354TIP3    H125257   0.115   5.206  19.368 -0.9793  0.7763  0.1412
  354TIP3    H225258   0.026   5.128  19.463  0.6790 -0.8998  0.3886
  355TIP3   OH225259   2.077   2.856  21.178  0.7259 -0.3963 -0.4010
  355TIP3    H125260   2.149   2.816  21.129 -0.0900 -1.7587 -0.5495
  355TIP3    H225261   2.038   2.918  21.117  1.9981  0.6849 -0.1773
  356TIP3   OH225262   4.265   1.796  17.878  0.5181 -0.0906  0.5836
  356TIP3    H125263   4.209   1.719  17.887  1.5387 -0.6894  2.3127
  356TIP3    H225264   4.325   1.774  17.806 -1.8463  0.8735 -1.8246
  357TIP3   OH225265   0.008   3.755  20.295 -0.4765  0.0433  0.4017
  357TIP3    H125266   0.061   3.722  20.367 -0.9562  0.1252  0.7940
  357TIP3    H225267   0.035   3.846  20.286  1.2700 -0.5379 -1.0570
  358TIP3   OH225268   5.122   2.390  20.157 -0.6426 -0.1979 -0.6805
  358TIP3    H125269   5.114   2.419  20.248 -0.6365 -1.9633 -0.0798
  358TIP3    H225270   5.106   2.469  20.105 -1.2850  0.7103  0.8329
  359TIP3   OH225271   1.339   4.160  20.672 -0.2850  0.2431  0.3375
  359TIP3    H125272   1.398   4.162  20.747  0.1936 -0.3801 -0.0077
  359TIP3    H225273   1.397   4.159  20.595 -0.7662  0.9367 -0.0449
  360TIP3   OH225274   6.200   1.186  18.064 -0.1413  0.4867  0.0083
  360TIP3    H125275   6.293   1.162  18.060  0.3382  1.8112  1.9307
  360TIP3    H225276   6.199   1.281  18.060 -1.5845  0.4497 -1.7582
  361TIP3   OH225277   1.516   4.638  19.874 -0.0961 -0.4091 -0.6495
  361TIP3    H125278   1.484   4.717  19.830  0.9380  0.5540  0.2509
  361TIP3    H225279   1.442   4.609  19.928 -0.1421  0.6024 -0.1433
  362TIP3   OH225280   2.228   2.045  20.319 -0.4083 -0.4795  0.3843
  362TIP3    H125281   2.144   2.071  20.357  0.6342  0.9293  1.8510
  362TIP3    H225282   2.222   1.950  20.311 -1.7460 -0.5243  1.4656
  363TIP3   OH225283   0.731   4.946  20.587 -0.2444 -0.2122 -0.3323
  363TIP3    H125284   0.658   4.885  20.583  0.1630 -0.7748  0.5300
  363TIP3    H225285   0.706   5.017  20.528 -1.6761 -0.1896  0.2468
  364TIP3   OH225286   0.201   5.814  19.018 -0.0420  0.4349  0.3198
  364TIP3    H125287   0.190   5.882  18.952 -0.0018 -0.1276 -0.2843
  364TIP3    H225288   0.292   5.786  19.008  0.3773  1.2952  1.5624
  365TIP3   OH225289   1.862   2.228  18.950  0.2560  0.0706 -0.2484
  365TIP3    H125290   1.814   2.152  18.982 -0.2087  0.9941  1.4019
  365TIP3    H225291   1.924   2.249  19.020  0.7076  0.9262 -0.8784
  366TIP3   OH225292   4.154   2.808  20.076 -0.2175 -0.1995  0.1223
  366TIP3    H125293   4.065   2.795  20.043 -0.3663 -2.0682  1.1271
  366TIP3    H225294   4.143   2.866  20.152 -0.5465 -0.2745  0.1322
  367TIP3   OH225295   5.742   6.182  18.688 -0.0236  0.1024  0.3456
  367TIP3    H125296   5.833   6.201  18.711 -0.2318  2.4901 -0.5023
  367TIP3    H225297   5.693   6.259  18.719 -1.4952 -0.3541 -0.7185
  368TIP3   OH225298   1.485   2.326  18.256  0.7406  0.5656  0.1172
  368TIP3    H125299   1.420   2.315  18.187 -0.9989 -1.2000  1.8781
  368TIP3    H225300   1.530   2.408  18.235  0.5953 -0.1120 -3.2506
  369TIP3   OH225301   3.187   3.136  18.674  0.7680  0.0593 -0.1504
  369TIP3    H125302   3.186   3.081  18.752  0.2267  0.0284 -0.1728
  369TIP3    H225303   3.119   3.098  18.617 -0.6387  1.5858  0.4159
  370TIP3   OH225304   0.243   5.205  18.302 -0.2474 -0.3684 -0.0880
  370TIP3    H125305   0.329   5.170  18.278  0.3857  0.7560  0.4744
  370TIP3    H225306   0.183   5.130  18.291  0.7712 -1.1378 -0.5877
  371TIP3   OH225307   3.020   1.819  18.106  0.0306 -0.6028  0.1388
  371TIP3    H125308   2.967   1.867  18.171 -1.5468 -0.9916 -0.8062
  371TIP3    H225309   3.107   1.815  18.145 -0.3884  0.8866  1.3506
  372TIP3   OH225310   3.779   3.437  20.211 -0.7800 -0.1413 -0.0058
  372TIP3    H125311   3.697   3.480  20.185 -1.8121 -1.6708  0.5624
  372TIP3    H225312   3.788   3.364  20.150 -0.0139 -0.1902  0.1600
  373TIP3   OH225313   4.027   4.993  18.894 -0.1604  0.2623  0.3709
  373TIP3    H125314   4.040   4.986  18.799  0.8960  0.8360  0.4464
  373TIP3    H225315   4.054   4.908  18.928 -1.6684 -0.3594  0.0739
  374TIP3   OH225316   1.547   4.778  19.077  0.9735 -0.2818 -0.1021
  374TIP3    H125317   1.570   4.853  19.021 -0.2412 -0.0878 -0.3707
  374TIP3    H225318   1.453   4.788  19.093  0.7532 -1.8624 -0.2892
  375TIP3   OH225319   2.986   4.359  20.714 -0.4956 -0.1846  0.0961
  375TIP3    H125320   3.072   4.348  20.673 -0.1895 -0.6639  0.8524
  375TIP3    H225321   3.006   4.385  20.804 -1.1621  0.8230 -0.0315
  376TIP3   OH225322   3.186   5.234  18.668 -0.1963  0.4330 -0.2428
  376TIP3    H125323   3.116   5.222  18.732  0.4695  0.3422  0.4777
  376TIP3    H225324   3.267   5.232  18.719  0.3275  0.7908 -1.0276
  377TIP3   OH225325   4.040   3.872  18.443  0.1339 -0.2506 -0.0504
  377TIP3    H125326   3.961   3.900  18.489 -1.7215 -1.9086 -1.9831
  377TIP3    H225327   4.031   3.907  18.354  1.0985 -1.2269 -0.5716
  378TIP3   OH225328   4.179   1.255  19.637 -0.5231  0.0485  0.0842
  378TIP3    H125329   4.240   1.209  19.579  0.1547 -0.4344  1.1429
  378TIP3    H225330   4.135   1.318  19.581  0.2029 -0.3173 -0.9244
  379TIP3   OH225331   1.279   3.528  20.195 -0.0968  0.1262 -0.0303
  379TIP3    H125332   1.355   3.494  20.148  1.2891 -0.9674  2.7729
  379TIP3    H225333   1.270   3.618  20.163  1.3479 -0.2127 -1.5877
  380TIP3   OH225334   0.961   2.177  20.757  0.4135  0.1355 -0.2467
  380TIP3    H125335   1.032   2.138  20.706 -0.0650  0.5844 -1.2716
  380TIP3    H225336   1.005   2.237  20.817  0.8109  2.2314 -2.4812
  381TIP3   OH225337   6.608   0.101  18.751 -0.2866  0.2045  0.4265
  381TIP3    H125338   6.555   0.030  18.787 -0.5971  0.1636 -0.0891
  381TIP3    H225339   6.618   0.078  18.658 -0.3573  0.8103  0.2638
  382TIP3   OH225340   5.968   4.592  18.700  0.3327  0.3562 -0.1776
  382TIP3    H125341   5.990   4.507  18.662 -1.2529 -0.6928  1.0379
  382TIP3    H225342   6.049   4.623  18.739  0.7618 -1.0524  0.1211
  383TIP3   OH225343   0.284   4.169  18.632  0.1504 -0.0589 -0.6614
  383TIP3    H125344   0.258   4.260  18.614 -1.0395 -0.5660 -1.6682
  383TIP3    H225345   0.212   4.134  18.684  1.0220 -0.1932  0.4832
  384TIP3   OH225346   4.211   3.370  19.239 -0.9261 -0.7259  0.4248
  384TIP3    H125347   4.289   3.350  19.188 -0.9701 -0.2314  0.1606
  384TIP3    H225348   4.218   3.315  19.317  0.4446  0.4176  1.1440
  385TIP3   OH225349   2.812   0.509  19.467 -0.1974 -0.1124  0.0180
  385TIP3    H125350   2.730   0.557  19.471 -0.6341 -0.8474  0.1114
  385TIP3    H225351   2.879   0.576  19.454 -0.7075  0.6004  0.9373
  386TIP3   OH225352   3.924   3.660  20.278 -0.4149  0.0742 -0.0221
  386TIP3    H125353   3.995   3.629  20.222 -1.2157 -0.7374 -0.6237
  386TIP3    H225354   3.853   3.597  20.264 -0.5239 -0.3604  2.2136
  387TIP3   OH225355   1.155   1.088  20.736  0.3041 -0.6106  0.6050
  387TIP3    H125356   1.144   1.071  20.643  3.3553 -0.6311  0.1338
  387TIP3    H225357   1.225   1.028  20.763  1.3112  1.1987  2.2537
  388TIP3   OH225358   3.238   5.176  20.105  0.1789 -0.2290 -0.0659
  388TIP3    H125359   3.297   5.154  20.032  1.0211  0.1972  0.4731
  388TIP3    H225360   3.170   5.230  20.064 -0.0177 -0.9743 -0.7544
  389TIP3   OH225361   0.625   2.333  18.616  0.7487 -0.8496  0.1384
  389TIP3    H125362   0.640   2.338  18.710 -0.1106 -0.2200  0.2562
  389TIP3    H225363   0.534   2.302  18.607  0.1993  0.8267 -0.4387
  390TIP3   OH225364   0.411   3.333  21.226  0.9148 -0.6026 -0.1232
  390TIP3    H125365   0.444   3.285  21.302  1.6638  0.8703  0.5320
  390TIP3    H225366   0.438   3.424  21.242 -1.9933  0.4163 -0.4222
  391TIP3   OH225367   1.726   2.202  19.612 -0.0563  0.4907 -0.5131
  391TIP3    H125368   1.679   2.281  19.639 -1.9424 -0.6927 -0.1433
  391TIP3    H225369   1.814   2.233  19.593 -0.5247  2.5634  0.3095
  392TIP3   OH225370   2.713   4.143  20.997 -0.0296 -0.4388 -0.0598
  392TIP3    H125371   2.649   4.209  20.971 -1.4398 -1.0323  1.6768
  392TIP3    H225372   2.727   4.090  20.919 -2.4061 -0.8393 -0.2788
  393TIP3   OH225373   3.748   0.643  21.024  0.2818 -0.1135  0.1666
  393TIP3    H125374   3.659   0.611  21.011  0.3880 -1.0206  1.4967
  393TIP3    H225375   3.772   0.681  20.940 -1.1386 -0.3999 -0.3980
  394TIP3   OH225376   5.613   4.991  20.026 -0.1660 -0.6062 -0.7532
  394TIP3    H125377   5.670   4.947  19.963  0.7966 -1.2891  0.5493
  394TIP3    H225378   5.673   5.037  20.084 -0.9248 -1.3124  0.6232
  395TIP3   OH225379   3.913   0.798  19.415 -0.0281 -0.6057 -0.2219
  395TIP3    H125380   3.840   0.808  19.354  1.2890 -0.9686 -1.9238
  395TIP3    H225381   3.935   0.888  19.440  1.7656 -0.0946 -3.2472
  396TIP3   OH225382   1.412   4.413  21.209 -0.3852  0.1066 -0.0567
  396TIP3    H125383   1.431   4.320  21.202 -0.8227  0.1347 -2.1759
  396TIP3    H225384   1.321   4.422  21.182 -0.2836  1.1696 -0.1060
  397TIP3   OH225385   5.464   4.063  19.479  0.0828 -0.2857  0.3685
  397TIP3    H125386   5.420   3.980  19.498 -1.4668  0.5366  0.5851
  397TIP3    H225387   5.412   4.128  19.527  0.5117  0.9585 -0.7931
  398TIP3   OH225388   4.751   0.377  18.351 -0.3267 -0.1922 -0.6141
  398TIP3    H125389   4.831   0.382  18.298  0.3054 -1.6665  0.1484
  398TIP3    H225390   4.734   0.468  18.376  2.0795  0.0117  0.5873
  399TIP3   OH225391   3.290   5.419  19.639 -0.8615  0.3807 -0.1569
  399TIP3    H125392   3.349   5.467  19.582 -0.0597  0.6781  0.8903
  399TIP3    H225393   3.238   5.365  19.580 -0.1766  0.8057 -1.1703
  400TIP3   OH225394   6.285   3.851  19.161  0.1556 -0.3294 -0.4628
  400TIP3    H125395   6.292   3.759  19.188  2.9671 -0.2141 -0.5451
  400TIP3    H225396   6.274   3.848  19.066  0.5687 -0.5790 -0.5014
  401TIP3   OH225397   1.123   5.481  20.087  0.4082 -0.6872  0.1705
  401TIP3    H125398   1.179   5.467  20.010  0.0426 -0.0739 -0.2238
  401TIP3    H225399   1.076   5.562  20.067 -0.2427 -0.9189  0.7180
  402TIP3   OH225400   1.097   0.817  17.901 -0.1300 -0.6639  0.0889
  402TIP3    H125401   1.097   0.745  17.965 -2.5397 -4.2169 -3.4564
  402TIP3    H225402   1.005   0.842  17.894  0.5868  2.6365  0.8044
  403TIP3   OH225403   5.513   3.507  20.077 -0.0647 -0.6962 -0.2134
  403TIP3    H125404   5.593   3.526  20.028 -1.2429 -0.1473 -2.0017
  403TIP3    H225405   5.535   3.529  20.168  2.1904 -1.7884 -0.4322
  404TIP3   OH225406   3.213   4.764  18.346 -0.6465  0.0815  0.4440
  404TIP3    H125407   3.198   4.705  18.272  1.2586  0.2386 -0.1159
  404TIP3    H225408   3.154   4.837  18.331 -1.2251 -0.5069 -0.2003
  405TIP3   OH225409   5.257   2.676  18.937 -0.6496  0.3480  0.1652
  405TIP3    H125410   5.269   2.586  18.967  0.1252  0.5388  0.4468
  405TIP3    H225411   5.268   2.730  19.015 -2.1424  0.6362  0.1993
  406TIP3   OH225412   3.666   0.114  20.568 -0.1923 -0.4858  0.8635
  406TIP3    H125413   3.663   0.021  20.550 -0.0576 -0.5335  1.0786
  406TIP3    H225414   3.716   0.151  20.495 -0.8032 -0.4902  0.4370
  407TIP3   OH225415   6.303   3.924  18.887  0.1283 -0.3406 -0.1830
  407TIP3    H125416   6.360   3.993  18.921 -1.3543  0.9076 -0.0910
  407TIP3    H225417   6.234   3.972  18.839 -1.3950 -1.6856  0.5757
  408TIP3   OH225418   2.998   4.877  20.874  0.3774  0.1391 -0.1194
  408TIP3    H125419   2.922   4.935  20.873  0.4760  0.2891  0.5496
  408TIP3    H225420   3.025   4.875  20.966  0.8288 -0.3739 -0.2611
  409TIP3   OH225421   2.200   6.341  19.383  0.1507 -0.3046  0.3272
  409TIP3    H125422   2.244   6.405  19.438  2.7569 -1.7483  0.1365
  409TIP3    H225423   2.117   6.381  19.359  0.6896  2.0010  2.0176
  410TIP3   OH225424   0.832   3.745  21.203  0.7008  0.2110  0.4621
  410TIP3    H125425   0.870   3.660  21.181 -1.1277 -0.3675 -0.6249
  410TIP3    H225426   0.853   3.801  21.129 -0.6893 -0.1887 -0.2789
  411TIP3   OH225427   1.510   5.530  21.208 -0.0063 -0.0640 -0.3524
  411TIP3    H125428   1.457   5.609  21.217  1.0654  0.6183  0.1905
  411TIP3    H225429   1.450   5.458  21.229 -0.5294  0.7404  1.0300
  412TIP3   OH225430   5.283   5.995  19.902 -0.1909  0.2790  0.3704
  412TIP3    H125431   5.360   5.979  19.848 -0.8295 -0.6158 -0.2965
  412TIP3    H225432   5.241   6.071  19.862  0.3101  0.7366  0.7032
  413TIP3   OH225433   5.312   0.105  20.799  0.1546 -0.1762  0.0743
  413TIP3    H125434   5.360   0.046  20.741  0.1244 -0.1591  0.0325
  413TIP3    H225435   5.350   0.090  20.885 -0.2959 -0.7390  0.1813
  414TIP3   OH225436   2.424   3.684  17.881  0.2810  0.5634 -0.7396
  414TIP3    H125437   2.446   3.605  17.930  4.1538  0.4553 -2.2798
  414TIP3    H225438   2.332   3.701  17.902  0.2703 -2.3333  2.3525
  415TIP3   OH225439   4.734   1.072  18.417 -0.4924  0.4365  0.1421
  415TIP3    H125440   4.652   1.049  18.373  0.9351 -4.3767 -0.5418
  415TIP3    H225441   4.791   1.104  18.346 -0.3172 -0.8631 -0.3255
  416TIP3   OH225442   1.326   0.314  20.763 -0.1230 -0.6290  0.0119
  416TIP3    H125443   1.343   0.391  20.817  0.1182  0.8022 -1.9756
  416TIP3    H225444   1.398   0.254  20.782  1.4289  0.9472 -0.6156
  417TIP3   OH225445   5.918   0.098  19.510 -0.6164 -0.0746  0.4596
  417TIP3    H125446   5.838   0.120  19.462 -1.2132 -0.8607  1.0757
  417TIP3    H225447   5.969   0.045  19.448 -0.2381  0.9937 -0.1783
  418TIP3   OH225448   2.554   4.696  17.338 -0.0999  0.0750 -0.3234
  418TIP3    H125449   2.642   4.705  17.302 -0.7396  1.0304 -1.7593
  418TIP3    H225450   2.517   4.784  17.334 -0.1792  0.3132  2.9871
  419TIP3   OH225451   2.853   1.632  20.840  0.0646  0.0059  0.2388
  419TIP3    H125452   2.909   1.625  20.763 -2.6101  2.2181 -2.1580
  419TIP3    H225453   2.816   1.545  20.850  0.9757 -0.4972 -0.5785
  420TIP3   OH225454   3.036   5.374  20.045  0.6298 -0.2091  0.0362
  420TIP3    H125455   2.945   5.352  20.026  0.6686 -1.6221  1.2691
  420TIP3    H225456   3.062   5.432  19.974 -0.9222 -0.5943 -0.9001
  421TIP3   OH225457   2.189   0.451  20.022  0.5895 -0.0854 -0.2197
  421TIP3    H125458   2.149   0.364  20.027 -0.5011  0.3806 -0.7445
  421TIP3    H225459   2.249   0.445  19.948  2.7318 -1.2507  1.4780
  422TIP3   OH225460   6.333   0.178  18.583  0.3403  0.4835  0.4955
  422TIP3    H125461   6.353   0.125  18.659  0.5308 -0.0085  0.1111
  422TIP3    H225462   6.241   0.201  18.592  0.5882  1.1738  1.3180
  423TIP3   OH225463   2.619   1.673  20.263 -0.2208  0.0837 -0.3683
  423TIP3    H125464   2.604   1.621  20.342  0.0335  0.5144 -0.0298
  423TIP3    H225465   2.560   1.635  20.198  0.8173 -1.4231 -0.4927
  424TIP3   OH225466   1.128   3.281  19.381 -0.0489  0.4787 -0.0581
  424TIP3    H125467   1.133   3.201  19.433 -1.1231  0.5572  0.1991
  424TIP3    H225468   1.047   3.272  19.330 -0.8190  1.8560  0.8312
  425TIP3   OH225469   0.099   3.226  20.437 -0.1114  0.2665  0.6323
  425TIP3    H125470   0.123   3.146  20.483 -0.0118 -0.7938 -1.1714
  425TIP3    H225471   0.159   3.293  20.470  1.5547 -1.0177  0.2879
  426TIP3   OH225472   2.580   2.601  20.083 -0.9431  0.2510  0.7419
  426TIP3    H125473   2.560   2.584  20.175  0.1177 -1.1579  0.7605
  426TIP3    H225474   2.622   2.520  20.053 -4.4726 -0.8268 -2.0108
  427TIP3   OH225475   5.347   1.171  21.057 -0.3257 -0.1322 -0.4553
  427TIP3    H125476   5.259   1.180  21.093 -0.0297 -1.6301  0.7556
  427TIP3    H225477   5.369   1.259  21.024 -2.1800  0.3020 -0.6359
  428TIP3   OH225478   1.323   0.402  19.438  0.8193 -0.5022  0.4790
  428TIP3    H125479   1.374   0.483  19.440 -0.1359  0.1198  0.2900
  428TIP3    H225480   1.337   0.363  19.524 -0.2065  0.8417  1.3096
  429TIP3   OH225481   5.320   6.295  20.159 -0.2131 -0.4175 -0.9165
  429TIP3    H125482   5.385   6.319  20.226  1.3958 -0.4537 -2.3992
  429TIP3    H225483   5.240   6.338  20.188  0.5196 -0.0969  0.8154
  430TIP3   OH225484   3.196   2.972  20.954 -0.7309 -0.5516  0.0851
  430TIP3    H125485   3.172   3.026  20.879  1.2854  2.6479  1.5369
  430TIP3    H225486   3.119   2.977  21.012 -1.2951 -0.8855 -0.6208
  431TIP3   OH225487   2.682   3.057  19.731 -0.1134  0.1825 -0.0716
  431TIP3    H125488   2.682   3.044  19.636 -2.0639  2.6963 -0.5073
  431TIP3    H225489   2.737   2.986  19.764 -0.8976 -1.9256 -2.8906
  432TIP3   OH225490   1.062   4.032  18.512 -0.2002 -0.1930  0.0993
  432TIP3    H125491   1.084   4.093  18.582  1.7487 -1.8890  1.0531
  432TIP3    H225492   1.012   3.963  18.555  0.8486 -1.1517 -0.1746
  433TIP3   OH225493   6.161   6.137  18.513  0.8514  0.2489  0.1922
  433TIP3    H125494   6.138   6.146  18.421 -2.7425 -0.4140  0.8698
  433TIP3    H225495   6.194   6.048  18.522 -1.0078 -0.5359 -0.1802
  434TIP3   OH225496   5.869   5.374  20.795 -0.0285  0.1043 -0.5037
  434TIP3    H125497   5.923   5.442  20.837  0.8130 -1.0391  0.3589
  434TIP3    H225498   5.788   5.373  20.846 -1.0199  1.9560 -1.9151
  435TIP3   OH225499   2.785   4.889  20.116 -0.4780  0.0977 -0.0938
  435TIP3    H125500   2.819   4.808  20.078 -1.7948  0.1723 -1.5757
  435TIP3    H225501   2.861   4.933  20.153  0.6302 -0.7971 -1.2202
  436TIP3   OH225502   2.802   0.357  20.131  0.2763 -0.1566  0.0826
  436TIP3    H125503   2.767   0.276  20.168  0.3844 -0.7518 -1.0924
  436TIP3    H225504   2.858   0.392  20.201 -0.6897 -0.4681  1.0461
  437TIP3   OH225505   4.797   2.022  19.494  0.2643  1.1547 -0.6291
  437TIP3    H125506   4.852   2.052  19.566  0.7643  0.1216 -0.5661
  437TIP3    H225507   4.711   2.008  19.534  0.5437  0.5745 -0.2239
  438TIP3   OH225508   6.418   5.605  20.799  0.2926  0.2602 -0.0372
  438TIP3    H125509   6.438   5.691  20.836  0.8446 -0.2325  0.8204
  438TIP3    H225510   6.483   5.546  20.836 -1.8819 -1.1409  1.8579
  439TIP3   OH225511   4.506   6.188  19.282 -0.2938  0.0049  0.3888
  439TIP3    H125512   4.517   6.144  19.367  0.2141 -0.4607  0.0912
  439TIP3    H225513   4.561   6.266  19.288 -2.7704  1.8147  1.6948
  440TIP3   OH225514   2.482   6.155  19.305  0.0194 -0.1039 -0.2219
  440TIP3    H125515   2.507   6.114  19.388 -1.7086 -0.3126  0.2287
  440TIP3    H225516   2.565   6.170  19.260  0.9728 -0.3178  1.3825
  441TIP3   OH225517   3.472   6.279  18.034 -0.5386 -0.6811 -0.1380
  441TIP3    H125518   3.429   6.211  17.981 -0.3746 -0.5325 -0.4693
  441TIP3    H225519   3.465   6.359  17.981 -2.0126 -0.0972  0.8834
  442TIP3   OH225520   2.410   0.243  18.689  0.3001 -0.0430 -0.0155
  442TIP3    H125521   2.500   0.216  18.706  0.4635  0.1908 -0.4833
  442TIP3    H225522   2.418   0.309  18.620 -0.1667  0.5079  0.4448
  443TIP3   OH225523   1.215   2.077  18.897  0.4854 -0.0242 -0.4945
  443TIP3    H125524   1.203   2.030  18.980  1.1044 -1.1051 -1.0004
  443TIP3    H225525   1.139   2.052  18.845  0.2151  0.4744 -0.3454
  444TIP3   OH225526   4.625   3.397  17.966 -0.0007 -0.2268  0.4906
  444TIP3    H125527   4.643   3.326  17.904  0.2409  0.3676 -0.1323
  444TIP3    H225528   4.613   3.475  17.911  0.6108  0.3912  1.2090
  445TIP3   OH225529   3.461   5.945  17.932  0.6124  0.3226  0.4152
  445TIP3    H125530   3.442   5.866  17.881 -0.2398  0.1311  1.0153
  445TIP3    H225531   3.510   6.001  17.871  0.0009 -0.0827 -0.4714
  446TIP3   OH225532   0.606   4.016  20.488 -0.5029  0.1836 -0.1962
  446TIP3    H125533   0.695   4.050  20.502 -0.1436  0.6979 -3.1495
  446TIP3    H225534   0.557   4.045  20.565  1.4965  1.2803  0.7412
  447TIP3   OH225535   4.538   3.613  20.319 -0.8836 -0.5844 -0.5468
  447TIP3    H125536   4.521   3.662  20.238 -0.5724  0.0217 -0.2530
  447TIP3    H225537   4.467   3.549  20.324 -0.9324 -0.5956 -1.2750
  448TIP3   OH225538   5.302   2.429  19.027  0.0085  0.1247  0.0069
  448TIP3    H125539   5.308   2.354  18.968 -0.2654  1.4398 -1.7984
  448TIP3    H225540   5.221   2.415  19.076  0.0956 -0.8686 -0.1112
  449TIP3   OH225541   5.758   1.584  19.423  0.4626  0.6107 -0.4456
  449TIP3    H125542   5.765   1.595  19.518 -0.7907  0.3194 -0.3040
  449TIP3    H225543   5.779   1.671  19.388 -1.1003  1.2943  0.2253
  450TIP3   OH225544   6.182   0.933  19.485  0.2881  0.2874  0.5817
  450TIP3    H125545   6.183   0.838  19.478 -0.6254  0.3821 -2.0328
  450TIP3    H225546   6.272   0.957  19.507  0.2973 -1.1908  2.3841
  451TIP3   OH225547   4.976   6.024  19.289  0.1231  0.0268 -0.0694
  451TIP3    H125548   4.978   6.062  19.377  2.2642 -1.0137  0.3883
  451TIP3    H225549   4.895   5.973  19.287 -0.6539  1.1671  0.7797
  452TIP3   OH225550   2.254   2.299  18.540 -0.6183 -0.4323  0.1772
  452TIP3    H125551   2.316   2.247  18.591 -0.6862 -0.1703  0.5299
  452TIP3    H225552   2.255   2.260  18.453 -1.6756 -1.8845  0.7767
  453TIP3   OH225553   5.670   5.828  20.395  0.0779  0.4395  0.1728
  453TIP3    H125554   5.703   5.910  20.432 -1.5440  2.5886 -2.6796
  453TIP3    H225555   5.737   5.802  20.332  0.3742 -0.2344  0.7485
  454TIP3   OH225556   1.307   4.555  20.046  0.1375 -0.4872  0.2478
  454TIP3    H125557   1.283   4.552  20.139  0.0848  1.6895  0.3516
  454TIP3    H225558   1.227   4.533  19.999  0.2158 -1.8054  0.6902
  455TIP3   OH225559   3.433   2.708  19.697 -0.2028  0.3024 -0.0240
  455TIP3    H125560   3.362   2.653  19.665  0.1325  0.7802 -1.6427
  455TIP3    H225561   3.389   2.787  19.729 -0.4269  0.4421 -0.6759
  456TIP3   OH225562   0.247   5.122  18.690 -0.6944  0.1304 -0.4555
  456TIP3    H125563   0.251   5.061  18.616  2.1257  0.1654 -0.4629
  456TIP3    H225564   0.244   5.066  18.768 -2.0284  0.0749 -0.5304
  457TIP3   OH225565   0.990   4.718  20.927 -0.5289  0.1668 -0.9893
  457TIP3    H125566   1.072   4.707  20.880 -0.6875  1.5056 -1.6380
  457TIP3    H225567   0.944   4.788  20.880 -1.3231  0.5603  0.2935
  458TIP3   OH225568   4.929   0.031  19.301  0.0623 -0.3369 -0.1424
  458TIP3    H125569   4.883   0.001  19.222  1.6787 -0.4279 -1.0784
  458TIP3    H225570   4.937  -0.047  19.355 -0.3600 -0.4445 -0.2310
  459TIP3   OH225571   5.210   1.287  18.834  0.3496 -0.2055  0.3974
  459TIP3    H125572   5.231   1.324  18.748  1.2958 -2.2749 -0.3401
  459TIP3    H225573   5.295   1.263  18.871 -0.0567  0.5358  1.8925
  460TIP3   OH225574   4.936   2.250  19.337 -0.3858 -0.5024  0.2823
  460TIP3    H125575   4.883   2.313  19.387 -0.2220 -0.7695  0.8025
  460TIP3    H225576   4.892   2.166  19.352  0.1253 -0.7091  0.6313
  461TIP3   OH225577   2.446   4.827  18.747 -0.3312 -0.4141 -0.2414
  461TIP3    H125578   2.358   4.827  18.710  1.0038  0.6682 -3.8754
  461TIP3    H225579   2.498   4.777  18.685  1.7947 -0.4493  1.4410
  462TIP3   OH225580   3.869   5.765  18.427  0.3767 -0.3281 -0.3670
  462TIP3    H125581   3.847   5.851  18.391  1.6661 -0.1867 -0.8907
  462TIP3    H225582   3.937   5.731  18.368  1.0083 -1.0348  0.7236
  463TIP3   OH225583   4.866   0.713  20.752  0.0980  0.4779  0.2648
  463TIP3    H125584   4.925   0.769  20.701 -1.2977  4.0308  2.2082
  463TIP3    H225585   4.907   0.708  20.839 -1.4287  1.3958  1.0784
  464TIP3   OH225586   6.563   4.343  18.258 -0.1519 -0.0618 -0.2387
  464TIP3    H125587   6.638   4.402  18.251 -0.6068  0.4337 -0.9195
  464TIP3    H225588   6.603   4.256  18.265  0.5102  0.2804  0.4433
  465TIP3   OH225589   0.479   1.898  19.816  0.3929  0.1001  0.2587
  465TIP3    H125590   0.553   1.858  19.771 -0.2646  0.3078 -1.0633
  465TIP3    H225591   0.450   1.832  19.879 -0.8423 -1.7050 -2.0494
  466TIP3   OH225592   3.780   2.326  19.532  0.1937 -0.0423  0.1837
  466TIP3    H125593   3.711   2.383  19.564 -0.6522 -1.2696  0.6359
  466TIP3    H225594   3.852   2.385  19.510 -0.4479  1.1385  1.1208
  467TIP3   OH225595   1.156   0.255  20.371 -0.7332  0.2936  0.5323
  467TIP3    H125596   1.121   0.287  20.455  0.1401  1.5765  0.4252
  467TIP3    H225597   1.241   0.298  20.362 -0.0440 -1.1589 -0.2172
  468TIP3   OH225598   0.653   1.862  20.282  0.0569 -0.1007  0.4873
  468TIP3    H125599   0.602   1.899  20.210 -1.5659 -0.7249  1.2629
  468TIP3    H225600   0.731   1.917  20.287  0.7395 -0.6281 -2.3678
  469TIP3   OH225601   2.782   1.869  20.493 -0.5529 -0.3078 -0.1023
  469TIP3    H125602   2.725   1.918  20.552  0.7449  1.4706 -0.2422
  469TIP3    H225603   2.723   1.810  20.445 -2.2591  1.3662 -0.1643
  470TIP3   OH225604   3.331   0.537  20.341  0.4218  0.3872 -0.6422
  470TIP3    H125605   3.395   0.522  20.271 -0.1569  0.1670 -1.1343
  470TIP3    H225606   3.333   0.631  20.356  1.0652  0.3443 -0.4596
  471TIP3   OH225607   3.694   0.806  18.743 -0.3424 -0.3469 -0.2055
  471TIP3    H125608   3.649   0.868  18.800 -1.7402 -2.1676  0.7797
  471TIP3    H225609   3.691   0.847  18.656  0.1400  1.6105  0.6402
  472TIP3   OH225610   3.155   1.317  17.908 -0.5973 -0.1169  0.0379
  472TIP3    H125611   3.175   1.389  17.847  0.9669 -0.4862  0.0583
  472TIP3    H225612   3.179   1.238  17.860  0.3167 -0.4343  0.9863
  473TIP3   OH225613   2.754   1.728  19.150 -0.0244  0.2750 -0.4163
  473TIP3    H125614   2.667   1.743  19.187  0.6955 -0.2716  1.6417
  473TIP3    H225615   2.743   1.649  19.096 -1.0117  0.8137 -1.0282
  474TIP3   OH225616   2.699   1.928  19.427  0.4399  0.1654  0.0572
  474TIP3    H125617   2.765   1.984  19.469 -0.1385  1.4671 -0.6913
  474TIP3    H225618   2.678   1.973  19.345 -1.1361 -0.3762  0.1211
  475TIP3   OH225619   2.247   2.871  20.162  0.0101  0.7186  0.6412
  475TIP3    H125620   2.173   2.860  20.102  1.0786  1.7363 -0.9435
  475TIP3    H225621   2.207   2.888  20.247 -1.5695 -1.1260  0.3460
  476TIP3   OH225622   5.513   4.224  20.566 -0.0121  0.5604 -0.9798
  476TIP3    H125623   5.604   4.244  20.588  0.2463 -0.6298 -0.9160
  476TIP3    H225624   5.511   4.222  20.470  0.1716  0.0023 -0.9755
  477TIP3   OH225625   5.750   4.130  19.515  1.0853 -0.0221  0.0453
  477TIP3    H125626   5.662   4.149  19.482  1.8616  0.9121 -1.6504
  477TIP3    H225627   5.750   4.036  19.530  0.4560 -0.4262 -2.1278
  478TIP3   OH225628   1.127   2.265  20.413 -0.2446 -0.4686 -0.4119
  478TIP3    H125629   1.149   2.218  20.333 -0.3355 -0.1219 -0.6428
  478TIP3    H225630   1.164   2.353  20.401  0.3255 -0.6103  0.2066
  479TIP3   OH225631   1.216   1.528  21.629  0.2834  0.0766  0.0967
  479TIP3    H125632   1.281   1.594  21.654  1.8486 -0.6108 -1.9246
  479TIP3    H225633   1.136   1.579  21.614  0.4050  0.9943  2.1527
  480TIP3   OH225634   3.979   1.297  18.448  0.0975 -0.3978 -0.4162
  480TIP3    H125635   3.990   1.335  18.361 -0.4451 -2.0174 -1.2296
  480TIP3    H225636   4.045   1.228  18.453  0.5497  0.0917  0.7223
  481TIP3   OH225637   1.571   3.274  20.680 -0.0977  0.1656  0.0027
  481TIP3    H125638   1.578   3.368  20.661 -0.3534  0.4486  1.2433
  481TIP3    H225639   1.601   3.232  20.600  2.4879  1.2886  0.2756
  482TIP3   OH225640   3.993   3.479  19.033 -0.5836  0.1662 -0.6376
  482TIP3    H125641   4.018   3.450  19.120 -0.2302 -0.0969 -0.8210
  482TIP3    H225642   4.076   3.488  18.986 -0.4999  2.8943 -0.1847
  483TIP3   OH225643   1.418   0.847  20.469 -0.0174  0.2757 -0.4058
  483TIP3    H125644   1.445   0.799  20.547  0.4267 -0.9106 -1.2707
  483TIP3    H225645   1.427   0.939  20.494 -0.4279 -0.0582  1.1242
  484TIP3   OH225646   0.856   1.325  21.048 -0.0046 -0.4144  0.1421
  484TIP3    H125647   0.922   1.393  21.064  0.4127 -0.9698  0.8277
  484TIP3    H225648   0.795   1.333  21.121  0.0565 -0.7927  0.2337
  485TIP3   OH225649   4.344   5.068  19.826  0.4989 -0.5721  0.1350
  485TIP3    H125650   4.290   4.991  19.841  0.7941 -0.5994  1.0943
  485TIP3    H225651   4.378   5.056  19.737 -2.0030  0.0406 -0.9903
  486TIP3   OH225652   3.305   3.597  20.596  0.1521  0.7534 -0.4864
  486TIP3    H125653   3.374   3.663  20.587 -0.9714  1.7823 -1.9352
  486TIP3    H225654   3.256   3.602  20.514 -0.8331 -0.9032 -0.0395
  487TIP3   OH225655   6.363   0.092  20.977 -0.2749 -0.2184  0.0756
  487TIP3    H125656   6.303   0.111  20.904  1.3973  0.3713 -1.2230
  487TIP3    H225657   6.403   0.008  20.953 -1.3569 -1.2095  1.5170
  488TIP3   OH225658   3.050   5.585  19.238  0.0963  0.1787 -0.2781
  488TIP3    H125659   3.083   5.585  19.148  0.0427  3.6526 -0.4206
  488TIP3    H225660   2.987   5.657  19.241  1.4329  1.4177  2.9337
  489TIP3   OH225661   5.562   4.640  20.283 -0.8190  0.2220  0.2555
  489TIP3    H125662   5.608   4.718  20.315  1.1709 -0.5632 -0.5196
  489TIP3    H225663   5.493   4.675  20.226 -1.3952  1.4574  1.6298
  490TIP3   OH225664   0.022   0.416  20.497 -0.8735 -0.6109  0.5741
  490TIP3    H125665  -0.063   0.387  20.529 -1.1686 -1.0988 -0.6035
  490TIP3    H225666   0.045   0.491  20.553 -0.8980 -1.9999  2.5445
  491TIP3   OH225667   1.960   1.272  18.380 -0.1804 -0.3908 -0.8451
  491TIP3    H125668   1.931   1.349  18.430  2.1076  0.8119 -1.2359
  491TIP3    H225669   1.898   1.203  18.405 -1.0291  0.9859  1.1868
  492TIP3   OH225670   6.586   0.204  20.048 -0.1998  0.2893  1.0100
  492TIP3    H125671   6.537   0.229  19.970  0.4156 -0.0304  0.5095
  492TIP3    H225672   6.562   0.270  20.113 -2.0144 -0.4157  1.0837
  493TIP3   OH225673   5.975   5.340  18.777 -0.2762 -0.0185 -0.7722
  493TIP3    H125674   5.897   5.362  18.828 -0.5044 -1.8372 -0.2680
  493TIP3    H225675   5.946   5.347  18.686 -1.2641 -1.2881 -0.5911
  494TIP3   OH225676   1.073   3.728  19.034 -0.2868  0.2040  0.1753
  494TIP3    H125677   1.042   3.819  19.042 -1.2636 -0.1091  0.0091
  494TIP3    H225678   1.107   3.708  19.121 -2.4195 -0.0939  1.0174
  495TIP3   OH225679   4.664   3.102  17.840 -0.4174  0.1538 -0.2742
  495TIP3    H125680   4.677   3.105  17.745  0.5897  1.1837 -0.1249
  495TIP3    H225681   4.593   3.039  17.853 -1.3288  0.8272 -1.7783
  496TIP3   OH225682   4.187   1.558  17.746 -0.0883  0.7183 -0.0195
  496TIP3    H125683   4.225   1.502  17.814 -0.1183  2.6021  1.6500
  496TIP3    H225684   4.254   1.563  17.678  0.4377 -0.2599  0.4059
  497TIP3   OH225685   0.967   5.314  18.728 -0.2386  0.1022 -0.3649
  497TIP3    H125686   0.976   5.355  18.643  0.2935  0.6139 -0.0728
  497TIP3    H225687   1.015   5.372  18.788 -0.9994  0.0018  0.3608
  498TIP3   OH225688   1.214   2.891  21.449 -1.0588 -0.5286 -0.4337
  498TIP3    H125689   1.254   2.976  21.427  1.8194 -0.9283  2.4570
  498TIP3    H225690   1.258   2.829  21.391 -0.5290 -0.4495 -0.1246
  499TIP3   OH225691   1.679   3.181  20.454 -0.7192  0.1115  0.3289
  499TIP3    H125692   1.697   3.128  20.376 -0.1251 -0.1994  0.6780
  499TIP3    H225693   1.643   3.262  20.418  1.1827  0.6984 -0.4077
  500TIP3   OH225694   3.323   2.235  19.984 -0.4588 -0.5842  0.1418
  500TIP3    H125695   3.257   2.303  19.992 -0.9718 -0.7544 -2.0445
  500TIP3    H225696   3.387   2.255  20.052 -1.8048  0.6567  1.1025
  501TIP3   OH225697   3.786   4.591  20.016 -0.0545 -0.2121 -0.1017
  501TIP3    H125698   3.849   4.598  20.088  1.4595  0.2379 -1.3952
  501TIP3    H225699   3.747   4.505  20.026  1.0635 -0.6654  0.5282
  502TIP3   OH225700   3.125   4.908  19.256  0.4747 -0.1647  0.0160
  502TIP3    H125701   3.125   4.891  19.351  2.1567 -0.0767  0.0613
  502TIP3    H225702   3.058   4.848  19.221 -2.9462  2.3528  1.6005
  503TIP3   OH225703   6.548   0.298  19.647  0.4459 -0.4593  0.2137
  503TIP3    H125704   6.581   0.387  19.635 -2.6116  0.4760 -3.4540
  503TIP3    H225705   6.621   0.242  19.619  2.0074  0.8950  1.3778
  504TIP3   OH225706   3.366   0.886  21.025  0.4005 -0.0674  0.2658
  504TIP3    H125707   3.376   0.793  21.004  0.5572  0.1994 -0.9273
  504TIP3    H225708   3.279   0.893  21.063  0.1532 -0.6151 -0.1910
  505TIP3   OH225709   5.654   6.381  20.836 -0.2304  0.1816 -0.0415
  505TIP3    H125710   5.690   6.301  20.874 -0.7779 -0.3827 -0.6813
  505TIP3    H225711   5.726   6.445  20.842  0.4179 -0.5295 -0.0747
  506TIP3   OH225712   2.332   3.114  21.366 -0.6634 -0.5980  0.5883
  506TIP3    H125713   2.268   3.052  21.402  0.3286 -1.4149  0.9842
  506TIP3    H225714   2.349   3.081  21.278 -1.3303  0.0547  0.2002
  507TIP3   OH225715   3.188   3.892  18.583  0.5054  0.2505 -0.4003
  507TIP3    H125716   3.146   3.915  18.500 -0.2296 -0.4469 -0.2345
  507TIP3    H225717   3.232   3.809  18.566  0.0068 -0.1050  0.0093
  508TIP3   OH225718   3.664   3.780  20.340 -0.2981 -0.2129  0.0760
  508TIP3    H125719   3.693   3.863  20.302 -0.4575  0.3929  1.2335
  508TIP3    H225720   3.614   3.738  20.270  0.6013  0.2056 -0.8542
  509TIP3   OH225721   1.111   1.641  19.391 -0.7124  0.0313  0.3395
  509TIP3    H125722   1.037   1.630  19.450  0.6226 -1.0814  1.8959
  509TIP3    H225723   1.132   1.552  19.361 -0.2249  0.3676 -0.3644
  510TIP3   OH225724   5.377   2.366  19.735 -0.4921 -0.4945  0.2245
  510TIP3    H125725   5.381   2.344  19.828 -0.1775 -1.6780 -0.0459
  510TIP3    H225726   5.449   2.427  19.721 -0.0025 -0.9795  0.6023
  511TIP3   OH225727   4.180   2.560  18.768  0.4623 -0.6567  0.3423
  511TIP3    H125728   4.155   2.486  18.713  0.5224  0.1831 -0.8520
  511TIP3    H225729   4.118   2.558  18.841  0.6147 -2.0106  0.4457
  512TIP3   OH225730   0.464   0.865  19.657  0.0460  0.2808  0.1053
  512TIP3    H125731   0.414   0.805  19.713 -0.0444  0.4227  0.1766
  512TIP3    H225732   0.405   0.885  19.585  0.5363 -0.7305 -0.6055
  513TIP3   OH225733   3.552   3.511  19.023  0.0272 -0.0504  0.3075
  513TIP3    H125734   3.575   3.514  19.116  0.3784  0.3476  0.2173
  513TIP3    H225735   3.632   3.480  18.980 -0.9539 -2.8953  0.3737
  514TIP3   OH225736   1.559   0.156  21.675  0.2544 -0.1611  0.0263
  514TIP3    H125737   1.512   0.115  21.748 -1.2236 -0.9098 -1.2661
  514TIP3    H225738   1.498   0.222  21.642 -0.0327 -1.2737 -1.8069
  515TIP3   OH225739   0.822   2.211  18.296 -0.3153  0.2369  0.1680
  515TIP3    H125740   0.915   2.231  18.291 -0.1021 -0.9454 -1.6193
  515TIP3    H225741   0.800   2.219  18.389  2.3624 -2.7356  1.2132
  516TIP3   OH225742   2.372   0.430  20.760  0.5536 -0.0851  0.1479
  516TIP3    H125743   2.371   0.430  20.664  0.3617  1.2968  0.1271
  516TIP3    H225744   2.404   0.344  20.784  0.5785 -0.4573 -1.1641
  517TIP3   OH225745   6.435   4.856  20.793  0.2669 -0.4038  0.0320
  517TIP3    H125746   6.439   4.902  20.709  0.9898 -0.1840  0.1852
  517TIP3    H225747   6.342   4.833  20.802 -0.0200  0.5517 -0.2928
  518TIP3   OH225748   4.028   0.292  18.524  0.0054  0.1940 -0.1807
  518TIP3    H125749   4.077   0.374  18.528  1.3487 -0.6405  0.9869
  518TIP3    H225750   3.985   0.285  18.609  1.3052 -1.1201  0.4134
  519TIP3   OH225751   4.074   6.103  18.896 -0.1677  0.3089  0.7226
  519TIP3    H125752   4.007   6.118  18.829 -0.7369  2.7827  1.7179
  519TIP3    H225753   4.150   6.152  18.865  0.0648  0.2345  1.1597
  520TIP3   OH225754   0.642   0.000  18.235 -0.4570 -0.0306 -0.6913
  520TIP3    H125755   0.644   0.092  18.262  0.1786  0.3473 -1.9494
  520TIP3    H225756   0.734  -0.027  18.235 -0.4680 -0.1428 -1.9485
  521TIP3   OH225757   0.176   3.054  20.106 -0.2370 -0.3830  0.0841
  521TIP3    H125758   0.135   3.139  20.094  0.4013 -0.3020 -1.8664
  521TIP3    H225759   0.245   3.069  20.171 -1.7222 -0.0156  1.6283
  522TIP3   OH225760   2.285   3.851  18.427  0.1264  0.2559 -0.2316
  522TIP3    H125761   2.364   3.900  18.449  1.0692 -0.3101 -2.2027
  522TIP3    H225762   2.309   3.798  18.351 -1.8623 -0.6924 -0.2643
  523TIP3   OH225763   5.294   1.127  20.376 -0.1603 -0.0944  0.4895
  523TIP3    H125764   5.199   1.120  20.371 -0.0615 -0.8597 -0.5560
  523TIP3    H225765   5.327   1.047  20.334  0.9457  0.4475  0.2781
  524TIP3   OH225766   5.967   1.158  18.924 -0.0653  0.2008 -0.3009
  524TIP3    H125767   6.060   1.160  18.946  0.1899  0.9734 -1.3345
  524TIP3    H225768   5.945   1.065  18.919  0.7060  0.0129 -0.2483
  525TIP3   OH225769   5.176   0.043  19.031 -0.0537  0.2546  0.0572
  525TIP3    H125770   5.172   0.060  19.125 -2.4169 -1.6014  0.4089
  525TIP3    H225771   5.116   0.108  18.992  0.1974  0.4206 -0.0543
  526TIP3   OH225772   3.175   5.845  18.782 -0.0738  0.4174  0.6456
  526TIP3    H125773   3.087   5.811  18.769 -0.1016 -0.0072  1.7602
  526TIP3    H225774   3.204   5.804  18.864  1.8393 -0.8454 -0.5770
  527TIP3   OH225775   3.922   5.787  18.727 -0.0363 -0.2110  0.2470
  527TIP3    H125776   3.981   5.810  18.799 -0.2774 -0.8210  0.6433
  527TIP3    H225777   3.973   5.807  18.648 -0.7956  3.2587  0.4768
  528TIP3   OH225778   4.235   5.354  20.562 -0.8433  0.2487  0.1398
  528TIP3    H125779   4.269   5.437  20.594 -2.4023  1.0295 -0.1410
  528TIP3    H225780   4.197   5.311  20.639  1.9850 -1.3457  0.7926
  529TIP3   OH225781   5.637   6.427  19.818 -0.2668 -0.6020 -0.5049
  529TIP3    H125782   5.667   6.350  19.866 -0.0620 -0.1359  0.1292
  529TIP3    H225783   5.716   6.479  19.804 -0.4370 -0.4076 -0.7510
  530TIP3   OH225784   5.474   6.523  20.677 -0.4054 -0.0291 -0.1350
  530TIP3    H125785   5.440   6.448  20.627  0.0334  1.3759 -2.7362
  530TIP3    H225786   5.543   6.485  20.732 -0.9032 -1.6966 -0.5943
  531TIP3   OH225787   1.942   2.822  18.526  0.1501  0.0402 -0.0795
  531TIP3    H125788   1.865   2.853  18.574 -0.8250 -0.2894 -1.3808
  531TIP3    H225789   2.001   2.897  18.523 -0.2955  0.4225  0.5680
  532TIP3   OH225790   3.841   3.251  18.428 -0.4637 -0.3232 -0.2198
  532TIP3    H125791   3.910   3.249  18.361  2.0643  2.0873  2.1063
  532TIP3    H225792   3.776   3.312  18.394 -0.3761 -0.8675 -1.4283
  533TIP3   OH225793   3.605   6.091  18.527  0.2947  0.1787 -0.1643
  533TIP3    H125794   3.580   6.157  18.592  1.7715  1.6003 -0.9866
  533TIP3    H225795   3.542   6.101  18.456  0.4572  0.6390 -0.2429
  534TIP3   OH225796   4.391   1.608  20.855 -0.0118  0.4668 -0.4054
  534TIP3    H125797   4.382   1.675  20.788 -1.0641 -0.6260 -1.3958
  534TIP3    H225798   4.328   1.634  20.923  0.0909  0.8488 -0.4534
  535TIP3   OH225799   3.451   2.463  18.998 -0.4662  0.1862 -0.0033
  535TIP3    H125800   3.397   2.541  19.014  1.1962  1.0400  1.9052
  535TIP3    H225801   3.523   2.471  19.061  0.6711 -2.0470 -0.9302
  536TIP3   OH225802   1.930   6.117  19.133  0.7118 -0.0257  0.5859
  536TIP3    H125803   1.891   6.103  19.047 -0.0782  0.9910  0.7579
  536TIP3    H225804   2.007   6.171  19.116  1.0860 -0.5904  0.4348
  537TIP3   OH225805   3.085   0.112  18.447 -0.0507  0.0119 -0.1967
  537TIP3    H125806   3.028   0.183  18.416  0.0147  0.7847  1.3585
  537TIP3    H225807   3.027   0.036  18.456 -0.8089  0.6987  1.0312
  538TIP3   OH225808   0.248   0.807  20.032 -0.1474 -0.2159  0.4522
  538TIP3    H125809   0.171   0.852  20.067  0.8708  0.6088  1.7470
  538TIP3    H225810   0.320   0.836  20.088  0.8687 -2.1155  0.2341
  539TIP3   OH225811   3.968   3.606  21.066 -0.5738 -0.0295  0.1663
  539TIP3    H125812   4.061   3.624  21.078 -0.8373  1.5171  0.0690
  539TIP3    H225813   3.955   3.614  20.971 -1.0415  1.1401  0.3094
  540TIP3   OH225814   0.078   1.361  20.150 -0.5454  0.1631 -0.2042
  540TIP3    H125815   0.142   1.291  20.158 -0.4229  0.2334 -0.5570
  540TIP3    H225816   0.096   1.400  20.064 -1.0234  0.2150 -0.2826
  541TIP3   OH225817   1.939   0.868  20.037 -0.4105 -0.2923  0.9784
  541TIP3    H125818   1.988   0.822  19.968 -0.5819 -0.8074  1.1927
  541TIP3    H225819   2.006   0.909  20.091 -0.2274 -0.7046  1.0716
  542TIP3   OH225820   2.196   2.119  20.965  0.1864  0.3622 -0.3210
  542TIP3    H125821   2.147   2.074  20.896  0.8533 -0.1663 -0.4621
  542TIP3    H225822   2.272   2.063  20.980  0.1276  0.5534  0.7334
  543TIP3   OH225823   0.267   3.098  20.772 -0.2527 -0.7115  0.1623
  543TIP3    H125824   0.283   3.183  20.731 -3.0699  0.4330  1.1920
  543TIP3    H225825   0.298   3.108  20.862 -1.9720 -0.1874  0.7275
  544TIP3   OH225826   5.936   3.698  18.456  0.6772  0.2242 -0.5026
  544TIP3    H125827   5.888   3.658  18.383  1.0476 -0.1744 -0.5322
  544TIP3    H225828   6.010   3.639  18.471  1.4392  1.0841 -0.7867
  545TIP3   OH225829   0.740   5.955  21.270  0.0391 -0.0061  0.1344
  545TIP3    H125830   0.778   5.876  21.231 -0.4081 -0.5803  0.8346
  545TIP3    H225831   0.803   6.024  21.249  0.9745 -0.7515  0.4190
  546TIP3   OH225832   3.070   5.494  20.291  0.0728  0.5139  0.4200
  546TIP3    H125833   3.151   5.519  20.246  1.6287 -0.8772  2.2764
  546TIP3    H225834   3.039   5.417  20.244 -1.1725  1.9863 -1.3167
  547TIP3   OH225835   3.702   5.922  21.136  0.6900 -0.1632  0.1748
  547TIP3    H125836   3.738   5.834  21.130  0.0196 -0.4516  0.2567
  547TIP3    H225837   3.624   5.912  21.191 -0.6630  0.0576 -1.6252
  548TIP3   OH225838   4.443   1.387  19.253 -0.1113  0.3356 -0.4516
  548TIP3    H125839   4.360   1.431  19.234 -0.2801  0.3396  0.2913
  548TIP3    H225840   4.499   1.409  19.179 -0.5282  0.9533 -0.5860
  549TIP3   OH225841   4.344   1.691  20.027 -0.8405  0.1448 -0.4419
  549TIP3    H125842   4.257   1.716  19.997 -0.6027  1.3959 -0.1795
  549TIP3    H225843   4.396   1.683  19.947 -0.9534  0.4357 -0.5486
  550TIP3   OH225844   2.213   5.688  20.875  0.3103 -0.1892 -0.1023
  550TIP3    H125845   2.179   5.680  20.787 -0.1306 -2.3919  0.2188
  550TIP3    H225846   2.152   5.640  20.930  1.0784  0.3321  1.2839
  551TIP3   OH225847   6.271   6.223  19.749 -0.0597  0.5379  1.0418
  551TIP3    H125848   6.346   6.198  19.694 -1.2433 -0.5218 -0.1685
  551TIP3    H225849   6.217   6.277  19.691 -0.7157  0.4717  1.5863
  552TIP3   OH225850   0.691   1.196  21.403  0.4958  0.3761 -0.1242
  552TIP3    H125851   0.739   1.273  21.371  0.1087  0.1029 -1.4313
  552TIP3    H225852   0.602   1.208  21.371  1.0453 -1.9906 -3.0293
  553TIP3   OH225853   2.212   0.202  21.055 -0.5106  0.2964 -0.2791
  553TIP3    H125854   2.171   0.174  20.973  0.2825  0.7073 -0.8269
  553TIP3    H225855   2.281   0.137  21.071  1.3012  1.7969 -1.5290
  554TIP3   OH225856   6.380   2.365  18.660  0.2370 -0.3652 -0.3882
  554TIP3    H125857   6.386   2.387  18.567 -0.9793  1.4023 -0.1220
  554TIP3    H225858   6.298   2.317  18.667 -1.0911  1.8083  0.0640
  555TIP3   OH225859   6.227   2.840  20.171  0.2181 -0.5976 -0.2094
  555TIP3    H125860   6.254   2.756  20.208  1.3740  0.3695  1.2535
  555TIP3    H225861   6.237   2.903  20.243  0.0013  0.9125 -1.4404
  556TIP3   OH225862   2.348   1.379  18.464  0.5342 -0.3856 -0.0104
  556TIP3    H125863   2.337   1.349  18.374 -0.1442 -1.9750  0.5558
  556TIP3    H225864   2.273   1.435  18.481  0.7901  0.1100 -0.5035
  557TIP3   OH225865   5.077   0.844  20.647 -0.0711  0.6516 -0.2407
  557TIP3    H125866   5.165   0.865  20.680  1.1985 -1.3700 -2.1121
  557TIP3    H225867   5.055   0.918  20.590  0.8852  0.6912 -0.5816
  558TIP3   OH225868   4.503   2.813  18.955 -0.1235  0.0528  0.2701
  558TIP3    H125869   4.494   2.755  18.879 -0.0614 -0.1914  0.4514
  558TIP3    H225870   4.415   2.848  18.968  0.0505  0.8331 -0.4996
  559TIP3   OH225871   3.289   4.601  17.416 -0.0481 -0.5939 -0.0492
  559TIP3    H125872   3.194   4.590  17.419 -0.0503 -1.2099 -1.4519
  559TIP3    H225873   3.308   4.670  17.479 -1.5638  0.3627 -0.6032
  560TIP3   OH225874   6.189   1.026  20.464 -0.6049  0.2723 -0.0654
  560TIP3    H125875   6.196   1.088  20.391  0.6558 -1.3952 -1.4385
  560TIP3    H225876   6.266   1.042  20.517 -1.0566  0.8695  0.4275
  561TIP3   OH225877   2.076   6.060  20.966  0.1268 -0.0089 -0.3239
  561TIP3    H125878   2.031   5.980  20.994 -1.5594  0.1914 -2.1950
  561TIP3    H225879   2.165   6.033  20.947  0.5061 -0.7346  2.1505
  562TIP3   OH225880   4.358   3.668  19.126  0.2374  0.5895 -0.3244
  562TIP3    H125881   4.445   3.629  19.130  0.6209  1.4757  0.2060
  562TIP3    H225882   4.334   3.665  19.034  0.6596 -0.0161 -0.4173
  563TIP3   OH225883   1.909   6.365  19.567 -1.1998  0.2701  0.2879
  563TIP3    H125884   1.920   6.390  19.476 -1.6915  0.0787  0.1763
  563TIP3    H225885   1.874   6.277  19.564 -1.6334  0.4285  0.6592
  564TIP3   OH225886   3.433   4.016  18.491 -0.9413  0.2755 -0.5700
  564TIP3    H125887   3.462   3.941  18.440  0.3461 -0.0297  0.5536
  564TIP3    H225888   3.361   3.982  18.545  1.3642 -1.0242  1.9709
  565TIP3   OH225889   3.827   2.991  20.263  0.0790 -0.2563  0.1695
  565TIP3    H125890   3.809   3.017  20.353 -1.2211 -0.4904  0.0051
  565TIP3    H225891   3.914   2.953  20.265  1.0234  1.8120  0.8826
  566TIP3   OH225892   0.299   5.794  21.369  0.0090 -0.3819 -0.6609
  566TIP3    H125893   0.383   5.836  21.389  0.7494 -1.7212 -0.8916
  566TIP3    H225894   0.303   5.710  21.414 -0.6963 -0.9773 -1.6759
  567TIP3   OH225895   1.643   3.671  18.087  0.0950  0.1206  0.5526
  567TIP3    H125896   1.663   3.678  17.994  0.3290  0.7389  0.6495
  567TIP3    H225897   1.548   3.661  18.090  0.2813 -2.4668  0.1137
  568TIP3   OH225898   2.296   1.299  21.076 -0.1726  0.2110 -0.4415
  568TIP3    H125899   2.219   1.316  21.021  0.2548 -0.0354 -1.1186
  568TIP3    H225900   2.352   1.376  21.063 -0.0986  0.1806 -0.2992
  569TIP3   OH225901   1.682   2.400  18.858  0.1081 -0.3492 -0.3433
  569TIP3    H125902   1.747   2.337  18.890 -0.9630  0.4345  4.0723
  569TIP3    H225903   1.598   2.356  18.871 -0.4577  0.2324 -1.8514
  570TIP3   OH225904   4.313   1.956  20.392  0.0268 -0.2489 -0.4622
  570TIP3    H125905   4.240   1.897  20.378  0.7334 -0.6099 -3.0876
  570TIP3    H225906   4.323   1.961  20.487  0.2767 -4.7986 -0.0705
  571TIP3   OH225907   3.818   5.457  17.835  0.6286 -0.6242 -0.1545
  571TIP3    H125908   3.761   5.391  17.874  0.7454 -1.1536 -0.8573
  571TIP3    H225909   3.873   5.408  17.774  0.4476  0.1800 -0.9798
  572TIP3   OH225910   4.477   2.411  18.412 -0.2353 -0.4069 -0.7200
  572TIP3    H125911   4.399   2.382  18.364 -0.3354  0.5958 -1.1802
  572TIP3    H225912   4.490   2.502  18.385 -0.9192  0.5735  1.9208
  573TIP3   OH225913   5.269   4.637  18.691  0.3430 -0.0716  0.0347
  573TIP3    H125914   5.229   4.678  18.767 -0.5662 -1.1927  0.1969
  573TIP3    H225915   5.308   4.709  18.642 -1.2543  0.9980  0.2629
  574TIP3   OH225916   1.559   1.596  18.895  0.1824 -0.5181  0.1366
  574TIP3    H125917   1.510   1.657  18.839  1.8570 -0.3669 -1.2354
  574TIP3    H225918   1.520   1.511  18.878  0.8894 -0.5385 -1.6181
  575TIP3   OH225919   3.438   4.359  20.019 -0.4010 -0.4056 -0.4613
  575TIP3    H125920   3.438   4.343  19.925  1.3081 -1.2187 -0.3737
  575TIP3    H225921   3.530   4.378  20.040 -0.6899 -0.5613  1.0792
  576TIP3   OH225922   1.723   1.135  18.556 -0.2670 -0.7250 -0.1755
  576TIP3    H125923   1.808   1.152  18.594 -1.2333 -0.0571  1.7886
  576TIP3    H225924   1.699   1.047  18.587 -0.3239 -0.8856 -0.6635
  577TIP3   OH225925   6.339   1.455  19.866  0.0854 -0.3874 -0.3682
  577TIP3    H125926   6.258   1.476  19.911 -0.8174 -0.5070 -1.8494
  577TIP3    H225927   6.408   1.495  19.919 -1.0583  0.9107  0.2015
  578TIP3   OH225928   3.931   3.145  19.466 -0.0028 -0.2012  0.2744
  578TIP3    H125929   3.846   3.129  19.507 -0.2427 -0.6040 -0.3651
  578TIP3    H225930   3.934   3.083  19.393  1.4671 -1.2352  1.1591
  579TIP3   OH225931   3.377   5.187  19.842  0.1198  0.2669  0.1774
  579TIP3    H125932   3.373   5.092  19.843  0.7483  0.2183 -0.7607
  579TIP3    H225933   3.429   5.209  19.764  0.2881  1.3629  0.5713
  580TIP3   OH225934   1.498   6.069  18.473 -0.0523  0.0190 -0.2833
  580TIP3    H125935   1.533   6.129  18.408  0.0857 -1.2472 -1.4162
  580TIP3    H225936   1.406   6.095  18.483  0.1753  0.8386 -0.2336
  581TIP3   OH225937   4.289   5.108  18.237  0.5085  0.0398  0.1514
  581TIP3    H125938   4.358   5.062  18.190 -0.2241  0.3147 -1.2249
  581TIP3    H225939   4.276   5.190  18.189 -1.2660 -0.3315 -0.0896
  582TIP3   OH225940   5.614   0.701  20.583  0.0216  0.0012 -0.4384
  582TIP3    H125941   5.680   0.704  20.652  1.4090  1.3749 -1.7410
  582TIP3    H225942   5.546   0.644  20.618  1.6904 -1.1548  1.1388
  583TIP3   OH225943   5.771   4.340  20.632 -0.6698 -0.7862 -0.4213
  583TIP3    H125944   5.785   4.424  20.676  0.4235 -1.7438  1.1883
  583TIP3    H225945   5.813   4.350  20.546 -3.6248  1.4286 -1.7425
  584TIP3   OH225946   2.895   1.946  18.347  0.7137 -0.1991 -0.4805
  584TIP3    H125947   2.935   1.998  18.417  0.6979  2.3124 -2.1942
  584TIP3    H225948   2.802   1.964  18.354  0.8364  1.2276 -1.9275
  585TIP3   OH225949   1.289   5.483  20.563  0.1787  0.1772  0.1789
  585TIP3    H125950   1.266   5.451  20.476 -1.2134 -0.1021  0.6175
  585TIP3    H225951   1.321   5.406  20.609  1.3135  0.4081 -0.1925
  586TIP3   OH225952   4.682   3.389  21.070  0.3021 -0.1937 -0.2437
  586TIP3    H125953   4.706   3.377  21.162 -1.0967  0.3293  0.2198
  586TIP3    H225954   4.704   3.480  21.051 -0.4687  0.0413 -0.0627
  587TIP3   OH225955   2.628   1.409  18.479  0.1954 -0.6205 -0.1596
  587TIP3    H125956   2.536   1.385  18.489  0.1768 -2.1974 -3.1971
  587TIP3    H225957   2.625   1.502  18.456 -0.6846 -0.7531 -0.6479
  588TIP3   OH225958   5.817   1.906  20.739 -0.3577 -0.6441 -0.0114
  588TIP3    H125959   5.819   1.998  20.766  1.9079 -0.6276 -0.0929
  588TIP3    H225960   5.762   1.906  20.661  0.4870  0.8542 -0.6657
  589TIP3   OH225961   2.261   6.342  21.527  0.2245  0.0656 -0.0840
  589TIP3    H125962   2.222   6.362  21.612  0.2336 -1.5275  0.3286
  589TIP3    H225963   2.259   6.246  21.522  1.2982  0.0897 -1.3762
  590TIP3   OH225964   4.677   5.597  19.778 -0.2823 -0.4387  0.0779
  590TIP3    H125965   4.676   5.689  19.754  0.2585 -0.7260 -1.1094
  590TIP3    H225966   4.692   5.551  19.696 -0.5955 -1.5921  0.6505
  591TIP3   OH225967   4.874   0.269  19.425  0.5479  0.4863 -0.1097
  591TIP3    H125968   4.874   0.270  19.521 -1.3792  0.3066 -0.0620
  591TIP3    H225969   4.894   0.178  19.402  0.4389  0.3967  0.1423
  592TIP3   OH225970   5.598   3.674  19.703  0.2112 -0.1210 -0.3286
  592TIP3    H125971   5.598   3.578  19.702 -1.9886 -0.2141 -2.9144
  592TIP3    H225972   5.531   3.696  19.768  0.1508 -0.3506 -0.3096
  593TIP3   OH225973   0.784   0.337  20.881 -0.2862 -0.4663 -0.0872
  593TIP3    H125974   0.708   0.285  20.906  0.6871 -0.5463  3.0534
  593TIP3    H225975   0.793   0.402  20.951  1.4900  0.7229 -1.3270
  594TIP3   OH225976   0.412   6.333  19.555 -0.5356  0.4697 -0.4001
  594TIP3    H125977   0.469   6.297  19.623 -0.0388  1.3488 -0.3271
  594TIP3    H225978   0.326   6.340  19.597 -0.9424 -1.6340 -0.7623
  595TIP3   OH225979   0.119   3.401  18.799 -0.1045  0.2884  0.2339
  595TIP3    H125980   0.152   3.345  18.869  1.1464  2.0768  1.1438
  595TIP3    H225981   0.190   3.463  18.782 -0.6449  0.3598 -2.1559
  596TIP3   OH225982   2.591   4.494  18.398  0.9652  0.0813  0.6201
  596TIP3    H125983   2.671   4.535  18.431  2.4268  0.1006 -2.5496
  596TIP3    H225984   2.525   4.564  18.399  1.6957  0.7770  0.9168
  597TIP3   OH225985   3.615   0.483  17.767 -0.4169 -0.2119  0.5933
  597TIP3    H125986   3.669   0.537  17.709  0.1236 -1.3769 -0.0321
  597TIP3    H225987   3.583   0.412  17.711 -1.0861 -0.5589  1.3872
  598TIP3   OH225988   2.826   4.537  20.567  0.1812 -0.2772  0.8187
  598TIP3    H125989   2.892   4.587  20.517  1.2344 -0.6248  1.8269
  598TIP3    H225990   2.877   4.488  20.631 -1.1324  0.0489  2.1605
  599TIP3   OH225991   4.684   2.818  17.963 -0.1032 -0.0215 -0.1219
  599TIP3    H125992   4.609   2.860  17.920 -0.1885 -0.1536 -0.1047
  599TIP3    H225993   4.749   2.887  17.971  0.0409 -0.0788 -0.7631
  600TIP3   OH225994   4.556   1.409  18.602  0.0887 -0.0008  0.4154
  600TIP3    H125995   4.573   1.494  18.641  0.5437 -0.3309  0.9576
  600TIP3    H225996   4.643   1.372  18.586 -0.0368 -1.4077  2.5402
  601TIP3   OH225997   0.102   3.350  20.966  0.1943 -0.2979  0.7936
  601TIP3    H125998   0.147   3.427  20.932 -0.4378 -0.4829 -0.5207
  601TIP3    H225999   0.172   3.286  20.980  0.4922 -0.1787 -0.0853
  602TIP3   OH226000   3.593   1.708  20.706 -0.8632  0.2500  0.6952
  602TIP3    H126001   3.566   1.794  20.674 -0.3991  0.6840  1.4593
  602TIP3    H226002   3.683   1.699  20.675 -2.0254 -1.6213 -2.7405
  603TIP3   OH226003   2.041   5.475  18.352 -0.0925 -0.4053  0.2690
  603TIP3    H126004   1.956   5.448  18.386 -0.4978 -1.3931 -1.4248
  603TIP3    H226005   2.063   5.553  18.402 -1.7425 -0.4447  1.1198
  604TIP3   OH226006   4.927   5.115  20.281  0.0809  0.2570  0.2862
  604TIP3    H126007   4.928   5.096  20.187 -0.1814  0.1082  0.3124
  604TIP3    H226008   4.983   5.048  20.320  0.0248  0.1946  0.2589
  605TIP3   OH226009   1.990   1.883  20.093  0.4111  0.8579  0.1201
  605TIP3    H126010   1.989   1.788  20.089 -0.2731  0.8551  0.3186
  605TIP3    H226011   2.039   1.903  20.174 -0.3350  0.6555  0.6313
  606TIP3   OH226012   0.617   1.361  19.103 -0.3934  0.2728  0.2897
  606TIP3    H126013   0.575   1.288  19.150  0.1785 -0.2730 -0.0375
  606TIP3    H226014   0.657   1.320  19.026  1.2954  0.6599  0.9179
  607TIP3   OH226015   6.257   1.428  18.812  0.0794 -0.0541  0.0646
  607TIP3    H126016   6.318   1.390  18.875 -0.9293  0.6804  1.5143
  607TIP3    H226017   6.183   1.368  18.810 -0.0545  0.1139 -0.1645
  608TIP3   OH226018   0.253   6.592  19.773  0.3467  0.3058 -0.5060
  608TIP3    H126019   0.228   6.499  19.774  0.7218  0.1606 -1.9606
  608TIP3    H226020   0.255   6.617  19.865 -0.8334 -0.8316 -0.1350
  609TIP3   OH226021   5.552   4.277  19.086  0.8215 -0.5267  0.4214
  609TIP3    H126022   5.512   4.335  19.022  1.6108  0.9573  1.2288
  609TIP3    H226023   5.480   4.220  19.115 -0.2691  0.8116  0.4563
  610TIP3   OH226024   4.130   2.453  20.186 -0.5955  0.0038  0.0350
  610TIP3    H126025   4.036   2.466  20.176 -0.2433  2.3098 -0.8199
  610TIP3    H226026   4.142   2.358  20.179 -2.9928 -0.5254  1.7075
  611TIP3   OH226027   2.642   0.939  20.746  0.2436 -0.1267 -0.7105
  611TIP3    H126028   2.547   0.941  20.730  0.1142 -0.6404 -0.0381
  611TIP3    H226029   2.650   0.920  20.839  1.0032  1.5028 -0.4199
  612TIP3   OH226030   5.312   3.389  18.757 -0.1835  0.4440  0.5901
  612TIP3    H126031   5.326   3.370  18.664 -3.0740  0.1858  0.1261
  612TIP3    H226032   5.321   3.484  18.764 -2.8486  0.8780 -0.6375
  613TIP3   OH226033   0.884   1.303  19.382  0.2745  0.0354 -0.2133
  613TIP3    H126034   0.966   1.349  19.364  0.5850 -0.0153  0.9760
  613TIP3    H226035   0.910   1.213  19.398 -0.0786 -0.0884 -0.3250
  614TIP3   OH226036   6.350   5.520  19.790  0.0669  0.2392 -0.1669
  614TIP3    H126037   6.353   5.573  19.711 -1.4744  0.1194 -0.3441
  614TIP3    H226038   6.261   5.532  19.823  0.1903 -0.9569  0.6659
  615TIP3   OH226039   2.936   4.902  18.536 -0.0934  0.0444  0.0366
  615TIP3    H126040   2.846   4.935  18.538  0.0232  0.3849 -0.2224
  615TIP3    H226041   2.963   4.911  18.445  0.8050  1.6318  0.4123
  616TIP3   OH226042   2.626   3.175  21.379  0.4234 -0.5414 -0.0001
  616TIP3    H126043   2.533   3.162  21.400  0.0061 -0.9976 -1.8841
  616TIP3    H226044   2.629   3.262  21.338  1.2375  0.4253  1.9726
  617TIP3   OH226045   2.819   2.925  20.396  0.0954  0.1820 -0.2223
  617TIP3    H126046   2.857   2.917  20.309 -2.0299 -1.4937 -1.0868
  617TIP3    H226047   2.868   2.862  20.449 -0.6554 -1.1086 -1.0233
  618TIP3   OH226048   3.457   2.528  21.301  0.3189  0.2665 -0.1536
  618TIP3    H126049   3.396   2.564  21.237  0.5120  0.2256 -0.3621
  618TIP3    H226050   3.449   2.433  21.291  0.1624  0.2544  0.0645
  619TIP3   OH226051   1.663   0.920  18.264  0.6339  0.1828  0.2951
  619TIP3    H126052   1.728   0.939  18.197  0.4914 -2.0029 -0.5453
  619TIP3    H226053   1.580   0.949  18.227  0.9726  2.3466  1.0906
  620TIP3   OH226054   4.153   0.094  18.417 -0.6708  0.0261 -0.2947
  620TIP3    H126055   4.212   0.071  18.489 -0.2671  1.1741 -0.2387
  620TIP3    H226056   4.097   0.163  18.452 -0.7242  0.3304 -0.9653
  621TIP3   OH226057   6.210   6.583  18.255 -0.2318  0.2368 -0.0025
  621TIP3    H126058   6.244   6.499  18.225  0.2482  0.2843  0.3862
  621TIP3    H226059   6.259   6.648  18.204 -0.0207  0.2937  0.2657
  622TIP3   OH226060   0.653   2.334  21.470 -0.0311 -0.4373  0.1212
  622TIP3    H126061   0.704   2.283  21.406 -0.7186 -0.8480 -0.1063
  622TIP3    H226062   0.562   2.321  21.444 -0.2369  0.6841  0.2281
  623TIP3   OH226063   5.680   5.458  18.340  0.6098  0.5737  0.3253
  623TIP3    H126064   5.749   5.524  18.326  0.5413  0.6927  0.5473
  623TIP3    H226065   5.688   5.400  18.265  0.9713  0.5728  0.3609
  624TIP3   OH226066   3.887   4.021  20.814  0.6524 -0.4274 -0.3916
  624TIP3    H126067   3.981   4.037  20.818  0.6533 -0.6547  1.0170
  624TIP3    H226068   3.870   3.957  20.883 -0.4562 -0.8469 -1.0137
  625TIP3   OH226069   3.051   3.981  19.865 -0.9804  0.1420 -0.0232
  625TIP3    H126070   2.974   3.926  19.851 -1.8103  1.1022  0.6003
  625TIP3    H226071   3.015   4.068  19.884  0.2243  0.3562  1.4551
  626TIP3   OH226072   0.211   3.555  20.835 -0.0439  0.0467 -0.0105
  626TIP3    H126073   0.232   3.535  20.743 -0.2502 -1.4121  0.2381
  626TIP3    H226074   0.219   3.650  20.841 -0.2216  0.1874 -1.5907
  627TIP3   OH226075   6.284   5.433  21.108 -0.5247 -0.1837  0.5701
  627TIP3    H126076   6.289   5.487  21.186  0.3781 -0.2531  0.5641
  627TIP3    H226077   6.368   5.445  21.064 -1.3222  0.5599 -0.8666
  628TIP3   OH226078   2.587   2.877  20.524 -0.1226 -0.2817 -0.1731
  628TIP3    H126079   2.668   2.906  20.482 -0.4636 -2.1981 -2.3495
  628TIP3    H226080   2.543   2.824  20.458 -2.4840 -0.5039  1.4449
  629TIP3   OH226081   0.266   0.697  19.770  0.9950  0.6786  0.0757
  629TIP3    H126082   0.274   0.602  19.763 -1.4861  0.4845 -1.5100
  629TIP3    H226083   0.244   0.713  19.862 -0.6680 -0.5479 -0.0588
  630TIP3   OH226084   6.199   1.071  19.067  0.3314 -0.3282  0.5132
  630TIP3    H126085   6.204   1.018  19.147 -0.4400 -1.3364 -0.0751
  630TIP3    H226086   6.245   1.019  19.001 -1.4756 -0.8747 -0.3678
  631TIP3   OH226087   1.335   0.610  21.541  0.2583  0.3050 -0.2161
  631TIP3    H126088   1.409   0.568  21.496  0.0690  0.9619 -1.1801
  631TIP3    H226089   1.311   0.549  21.610  1.2243 -0.2666 -0.3681
  632TIP3   OH226090   4.053   3.659  20.759  0.6001  0.0550 -0.3962
  632TIP3    H126091   4.075   3.567  20.772  1.4682  0.2525 -0.4141
  632TIP3    H226092   3.958   3.660  20.751  0.5708 -0.8203 -0.2406
  633TIP3   OH226093   3.613   4.949  21.042 -0.2918  0.0494  0.1604
  633TIP3    H126094   3.532   4.907  21.011 -1.1643  0.6851  1.4711
  633TIP3    H226095   3.599   4.960  21.136  0.3596  2.2387  0.0494
  634TIP3   OH226096   1.763   0.719  18.767  0.1370 -0.4447  0.0084
  634TIP3    H126097   1.856   0.740  18.760  0.1456 -0.4715  0.0454
  634TIP3    H226098   1.743   0.667  18.689  0.0206  0.0559 -0.3008
  635TIP3   OH226099   0.591   1.440  20.623 -0.3072 -0.5208 -0.0781
  635TIP3    H126100   0.679   1.443  20.586 -0.0666 -2.3476  0.2405
  635TIP3    H226101   0.591   1.506  20.691  1.1129 -1.0731  0.4964
  636TIP3   OH226102   6.006   3.619  19.729  0.4161 -0.7070  0.0768
  636TIP3    H126103   5.981   3.529  19.751  0.7367 -0.5584  1.0795
  636TIP3    H226104   5.947   3.643  19.657  1.2171 -2.1787 -1.1383
  637TIP3   OH226105   0.556   5.048  19.913  0.5301  0.5684  0.2999
  637TIP3    H126106   0.472   5.019  19.948  0.0589  2.3234  0.6848
  637TIP3    H226107   0.610   5.067  19.990  1.7553 -1.6418  0.0926
  638TIP3   OH226108   4.826   3.191  19.109  0.3790 -0.1231  0.6395
  638TIP3    H126109   4.904   3.146  19.077  0.0671 -0.3869  0.2482
  638TIP3    H226110   4.791   3.236  19.032 -0.6849 -1.2054  0.4658
  639TIP3   OH226111   3.614   5.353  20.056 -0.5059  0.1429  0.0026
  639TIP3    H126112   3.700   5.393  20.064 -0.0263 -0.8554  0.0340
  639TIP3    H226113   3.627   5.279  19.997 -1.3196 -0.0729  0.0734
  640TIP3   OH226114   3.629   1.046  20.417  0.0140 -0.2570 -0.1118
  640TIP3    H126115   3.637   1.001  20.501  2.9246 -0.4326 -0.3647
  640TIP3    H226116   3.593   0.980  20.358 -0.5430 -0.6445  0.6422
  641TIP3   OH226117   3.307   6.039  18.420  0.1137 -0.6023 -0.5246
  641TIP3    H126118   3.292   6.106  18.353  2.2137  1.4702  0.9111
  641TIP3    H226119   3.312   5.957  18.370  0.5634  0.7028 -2.8029
  642TIP3   OH226120   4.088   2.008  18.769  0.5522 -0.2487  0.1682
  642TIP3    H126121   4.053   1.975  18.686  0.0042  0.9750 -0.1084
  642TIP3    H226122   4.010   2.039  18.817  0.9563 -0.1387  0.7602
  643TIP3   OH226123   3.616   1.220  20.887  0.5754 -0.2659  0.3528
  643TIP3    H126124   3.663   1.295  20.850  1.9784 -0.6168  1.3629
  643TIP3    H226125   3.545   1.258  20.937 -1.0364  0.2472 -2.1546
  644TIP3   OH226126   2.849   0.937  19.694 -1.0058  0.0020 -0.2762
  644TIP3    H126127   2.877   0.901  19.610 -1.6653  0.0742 -0.5384
  644TIP3    H226128   2.918   0.912  19.756 -1.1324 -1.1620 -0.5784
  645TIP3   OH226129   2.328   2.679  19.930 -0.6441 -0.1740 -0.6456
  645TIP3    H126130   2.346   2.736  20.005 -1.6116  1.3230 -1.4816
  645TIP3    H226131   2.359   2.593  19.957  0.5939  0.6721  0.8035
  646TIP3   OH226132   3.377   3.502  18.556  0.5525  0.2864  0.0059
  646TIP3    H126133   3.390   3.564  18.484 -0.3145 -0.6095 -0.9602
  646TIP3    H226134   3.392   3.416  18.517 -3.2050 -0.5190 -0.0717
  647TIP3   OH226135   1.222   5.518  20.821 -0.0853 -0.2170 -0.3643
  647TIP3    H126136   1.279   5.463  20.875 -0.8043 -0.9251 -0.3156
  647TIP3    H226137   1.281   5.555  20.755  0.6802  0.1679  0.5240
  648TIP3   OH226138   0.068   2.236  18.413 -0.3913  0.3004  0.6807
  648TIP3    H126139   0.134   2.209  18.477 -0.1166  1.2652  0.8260
  648TIP3    H226140   0.118   2.271  18.340 -0.6292 -2.3541 -0.8893
  649TIP3   OH226141   4.975   3.626  21.329 -0.8918 -1.0837 -0.5025
  649TIP3    H126142   5.063   3.608  21.297 -0.5302 -0.6269  0.2105
  649TIP3    H226143   4.979   3.716  21.361 -0.6468 -2.1102  2.6962
  650TIP3   OH226144   5.271   3.560  20.581  0.2102  0.0044  0.0838
  650TIP3    H126145   5.315   3.551  20.497  0.1727  1.3693 -0.1080
  650TIP3    H226146   5.274   3.654  20.600  3.1906 -0.5178  3.2247
  651TIP3   OH226147   4.855   4.774  18.767  0.0761 -0.2960 -0.6460
  651TIP3    H126148   4.843   4.859  18.810 -1.0608  0.5812 -2.5487
  651TIP3    H226149   4.934   4.785  18.715  0.4622 -0.7331 -0.1488
  652TIP3   OH226150   0.526   6.515  20.195  0.3183 -0.4062  0.3216
  652TIP3    H126151   0.605   6.464  20.211  2.0652  1.5040 -1.5385
  652TIP3    H226152   0.544   6.562  20.113 -2.1056  1.3237  0.6715
  653TIP3   OH226153   1.962   0.343  19.101 -0.0285  0.3143  0.3987
  653TIP3    H126154   2.025   0.404  19.062 -0.0525  0.9095  1.2580
  653TIP3    H226155   1.943   0.281  19.031  0.1642  1.1684 -0.4449
  654TIP3   OH226156   1.119   3.016  19.969  0.4679  0.1480 -0.3983
  654TIP3    H126157   1.164   3.029  20.053  1.1409 -0.7950 -0.5951
  654TIP3    H226158   1.028   2.998  19.992  0.7830 -0.7559  0.1725
  655TIP3   OH226159   2.134   5.085  19.682 -1.0729  0.0589  0.3459
  655TIP3    H126160   2.158   5.098  19.773  0.7212 -1.0294  0.0711
  655TIP3    H226161   2.061   5.023  19.685 -1.7103  0.8139  1.0573
  656TIP3   OH226162   4.815   1.360  18.540 -0.0609 -0.2503 -0.1557
  656TIP3    H126163   4.847   1.445  18.572 -0.4246  0.0033 -0.4571
  656TIP3    H226164   4.878   1.297  18.574 -0.6701 -0.0407  1.4364
  657TIP3   OH226165   6.580   6.344  20.694  0.0292  0.2042 -0.3028
  657TIP3    H126166   6.573   6.318  20.602 -2.3768  1.1414 -0.4365
  657TIP3    H226167   6.564   6.263  20.743  1.4853 -0.3350 -0.6599
  658TIP3   OH226168   5.076   5.341  18.890  0.4474  0.5712  0.4766
  658TIP3    H126169   4.997   5.290  18.909 -0.2705  1.0441 -1.1381
  658TIP3    H226170   5.065   5.422  18.940 -0.2095  0.7334  0.0804
  659TIP3   OH226171   6.608   5.610  18.851  0.0686  0.4642  0.0284
  659TIP3    H126172   6.589   5.634  18.761 -0.7510 -1.4967 -0.3703
  659TIP3    H226173   6.693   5.565  18.847  0.4822  1.1927  0.3953
  660TIP3   OH226174   2.138   3.680  19.059  0.6283 -0.0919  0.2033
  660TIP3    H126175   2.113   3.638  19.141  1.6219 -2.1696 -0.4950
  660TIP3    H226176   2.074   3.751  19.048 -2.4351 -2.5785  0.4997
  661TIP3   OH226177   3.158   0.970  18.005 -0.2055  0.6594 -0.1814
  661TIP3    H126178   3.063   0.980  18.011 -0.4815 -1.8264  0.7013
  661TIP3    H226179   3.171   0.920  17.924  0.3716  1.1131 -0.3700
  662TIP3   OH226180   1.974   1.707  21.418  0.2165 -0.0877 -0.2122
  662TIP3    H126181   2.067   1.706  21.440  0.8584  1.2989 -2.4879
  662TIP3    H226182   1.969   1.757  21.337 -2.6971  1.1658  0.5850
  663TIP3   OH226183   0.074   3.890  18.855  0.2806 -0.2910  0.0894
  663TIP3    H126184   0.139   3.821  18.849 -0.2480 -0.7364 -0.9179
  663TIP3    H226185   0.085   3.927  18.942  2.5797  0.3607 -0.4234
  664TIP3   OH226186   1.552   2.263  19.195 -0.2918  0.8925 -0.1693
  664TIP3    H126187   1.494   2.264  19.271  1.8320  0.4118  1.5414
  664TIP3    H226188   1.627   2.211  19.222  0.5283  0.6418 -2.6424
  665TIP3   OH226189   0.113   2.326  19.640  0.1742  0.2041  0.2339
  665TIP3    H126190   0.031   2.279  19.654 -0.0789  0.0456 -1.5324
  665TIP3    H226191   0.130   2.371  19.723 -0.5362 -1.5026  1.3601
  666TIP3   OH226192   1.587   2.859  20.991  0.7541 -0.1222 -0.3968
  666TIP3    H126193   1.641   2.901  20.923  0.3732  2.2995  0.6687
  666TIP3    H226194   1.628   2.887  21.074  0.2123 -1.5955  0.4057
  667TIP3   OH226195   2.716   0.260  20.611 -0.5402  0.5686 -0.5463
  667TIP3    H126196   2.695   0.167  20.603 -1.5861  0.6616  0.7393
  667TIP3    H226197   2.649   0.305  20.559 -1.6448  0.7004  0.9231
  668TIP3   OH226198   0.591   6.111  20.210  0.0582 -0.4641 -0.1824
  668TIP3    H126199   0.621   6.180  20.269 -1.1082  0.5970 -0.7664
  668TIP3    H226200   0.670   6.063  20.186  1.1959  1.7096 -1.0673
  669TIP3   OH226201   4.129   1.974  18.302 -0.0492  0.1654 -0.6872
  669TIP3    H126202   4.151   2.067  18.305  0.2406  0.1163  2.7024
  669TIP3    H226203   4.214   1.930  18.303 -0.1897 -0.0995 -0.1121
  670TIP3   OH226204   3.287   3.496  21.205 -0.1141  0.1756 -0.1103
  670TIP3    H126205   3.280   3.424  21.143 -2.3381  1.2978 -1.3064
  670TIP3    H226206   3.233   3.468  21.280 -1.1131  0.6139 -0.6449
  671TIP3   OH226207   2.933   2.902  19.860 -0.0460 -0.2342  0.2171
  671TIP3    H126208   2.868   2.897  19.930  0.2321 -1.1492  0.4248
  671TIP3    H226209   2.927   2.817  19.816  1.9232 -0.8821  1.0841
  672TIP3   OH226210   0.333   4.369  20.101  0.3313  0.2025  0.0484
  672TIP3    H126211   0.370   4.441  20.152 -0.1538 -0.0222  0.7332
  672TIP3    H226212   0.248   4.401  20.072 -0.5231 -0.5868  1.5672
  673TIP3   OH226213   5.501   1.460  17.477 -0.4145 -0.5324  0.4746
  673TIP3    H126214   5.462   1.513  17.546 -1.0220 -1.2086  0.6694
  673TIP3    H226215   5.447   1.381  17.475 -0.2514 -0.6281 -0.6044
  674TIP3   OH226216   2.270   3.645  21.117 -0.5964 -0.3806  0.1037
  674TIP3    H126217   2.175   3.635  21.124 -0.7691  0.0928 -1.2217
  674TIP3    H226218   2.296   3.580  21.051  0.2243 -1.5108  1.4933
  675TIP3   OH226219   1.861   3.462  17.996  0.1929  0.2969 -0.2161
  675TIP3    H126220   1.781   3.410  17.999  0.1275  0.4308  0.3922
  675TIP3    H226221   1.838   3.538  17.942  0.3896 -0.4546 -1.3963
  676TIP3   OH226222   4.674   4.919  19.819  0.3634 -0.0799  0.3102
  676TIP3    H126223   4.692   4.870  19.739 -0.1856 -0.4963  0.4308
  676TIP3    H226224   4.725   4.999  19.811  0.3710 -0.1529 -0.4229
  677TIP3   OH226225   0.997   5.692  19.453  0.7789  0.0149 -0.2763
  677TIP3    H126226   1.018   5.684  19.360 -0.1680 -0.2861 -0.4779
  677TIP3    H226227   0.902   5.705  19.455  0.8638  0.5861  0.6209
  678TIP3   OH226228   4.467   3.406  17.684  0.4700 -0.0329 -0.4433
  678TIP3    H126229   4.536   3.457  17.726  0.5859  0.0808 -0.7716
  678TIP3    H226230   4.510   3.362  17.610 -0.4520  2.7335 -2.8167
  679TIP3   OH226231   3.382   3.239  18.521 -0.4706 -0.2312 -0.0154
  679TIP3    H126232   3.314   3.188  18.565 -0.5452  0.7650  1.0592
  679TIP3    H226233   3.436   3.173  18.477  0.6924 -1.5012  3.0483
  680TIP3   OH226234   3.065   6.410  17.250 -0.0458  0.3439 -0.2651
  680TIP3    H126235   3.006   6.423  17.175 -0.0119  1.4023 -0.1322
  680TIP3    H226236   3.109   6.327  17.233 -0.6119  0.1936 -1.0300
  681TIP3   OH226237   0.152   3.135  18.631  0.3728  0.1978  0.1905
  681TIP3    H126238   0.075   3.083  18.609  0.6892  0.6062 -2.1024
  681TIP3    H226239   0.154   3.136  18.727 -1.5753 -1.1038  0.2915
  682TIP3   OH226240   4.288   6.205  18.731  0.3542  0.1429  0.0351
  682TIP3    H126241   4.263   6.210  18.638  3.0385  0.5904 -0.7294
  682TIP3    H226242   4.307   6.296  18.755  1.6566 -0.2265  0.4328
  683TIP3   OH226243   5.571   3.218  19.950 -0.0317 -0.4212  0.2767
  683TIP3    H126244   5.549   3.299  19.996  0.6571  0.4873 -0.9377
  683TIP3    H226245   5.487   3.183  19.921 -0.2749  0.4698 -0.1453
  684TIP3   OH226246   4.224   1.074  20.586 -0.4297  0.3615 -0.1997
  684TIP3    H126247   4.226   1.064  20.681 -0.8303  0.7634 -0.1417
  684TIP3    H226248   4.228   0.985  20.551 -1.7084  0.1070  0.2284
  685TIP3   OH226249   2.147   6.432  19.732 -0.0106 -0.0586 -0.1560
  685TIP3    H126250   2.186   6.350  19.701 -0.1324  0.8078 -2.8668
  685TIP3    H226251   2.053   6.421  19.721 -0.1704 -0.1216  1.0812
  686TIP3   OH226252   1.279   4.661  18.681  0.0723 -0.4373  0.1149
  686TIP3    H126253   1.274   4.736  18.739  0.2505 -0.0868 -0.3220
  686TIP3    H226254   1.244   4.692  18.598  0.5240 -0.7253 -0.1832
  687TIP3   OH226255   4.383   2.219  19.656 -0.4963  0.2860 -0.0249
  687TIP3    H126256   4.375   2.124  19.646 -0.6086  0.2836  0.0799
  687TIP3    H226257   4.470   2.232  19.693 -1.5447  0.0015  2.7965
  688TIP3   OH226258   3.873   5.409  21.117  0.6524  0.4983 -0.0230
  688TIP3    H126259   3.827   5.351  21.056 -0.0275  0.5249  0.4484
  688TIP3    H226260   3.959   5.423  21.078 -0.1558  1.4337 -1.5421
  689TIP3   OH226261   4.073   1.696  18.112 -0.5484  0.5027 -0.5346
  689TIP3    H126262   4.060   1.629  18.045 -1.3720  0.8920 -0.7666
  689TIP3    H226263   3.990   1.700  18.160 -0.0342  0.3590  0.4017
  690TIP3   OH226264   3.848   0.844  21.157  0.0193  0.0976  0.4187
  690TIP3    H126265   3.820   0.761  21.119 -0.2107 -0.0495  0.9046
  690TIP3    H226266   3.770   0.900  21.152  0.5150  0.6970 -1.0351
  691TIP3   OH226267   0.391   2.124  19.297 -0.0479 -0.5672 -0.3121
  691TIP3    H126268   0.459   2.057  19.297  0.2218 -0.3217  0.7782
  691TIP3    H226269   0.362   2.129  19.388 -0.1006  0.7471 -0.3722
  692TIP3   OH226270   4.005   2.780  18.394 -0.0396 -0.3338 -0.1973
  692TIP3    H126271   3.911   2.784  18.376 -0.1358 -1.8649 -0.1258
  692TIP3    H226272   4.039   2.861  18.355 -1.4930  0.7138  0.5742
  693TIP3   OH226273   4.239   4.764  20.968  0.4462  0.0354 -0.1636
  693TIP3    H126274   4.272   4.721  21.047  0.1158  0.2965  0.1183
  693TIP3    H226275   4.227   4.856  20.994  1.4910  0.3952 -0.8595
  694TIP3   OH226276   0.571   6.513  20.553 -0.1301 -0.3440  0.2325
  694TIP3    H126277   0.521   6.556  20.483 -0.3944  0.1758  0.7318
  694TIP3    H226278   0.656   6.557  20.551  0.1564 -0.9140 -0.3149
  695TIP3   OH226279   0.353   6.155  20.107 -0.3950  0.3447 -0.5535
  695TIP3    H126280   0.335   6.233  20.159  1.6747  0.0343  0.7410
  695TIP3    H226281   0.446   6.137  20.121 -0.1368 -0.7434 -3.0665
  696TIP3   OH226282   2.080   3.455  18.551  0.2381 -0.5514  0.1544
  696TIP3    H126283   2.128   3.534  18.576  0.1037 -0.5449  0.3958
  696TIP3    H226284   1.993   3.487  18.527  0.6046 -0.4501 -1.1456
  697TIP3   OH226285   1.269   3.009  18.605  0.3306  0.3152 -0.1394
  697TIP3    H126286   1.190   3.022  18.553  1.7176  3.0601 -1.7652
  697TIP3    H226287   1.272   3.084  18.664  0.9093 -0.6384  1.1148
  698TIP3   OH226288   1.765   1.022  19.597 -0.1775 -0.3299 -0.4036
  698TIP3    H126289   1.729   0.966  19.666  0.1051  0.5960  0.5147
  698TIP3    H226290   1.826   0.966  19.549 -0.4225 -0.9979  0.0610
  699TIP3   OH226291   0.418   4.755  18.216  0.7461  0.1647  0.1609
  699TIP3    H126292   0.329   4.747  18.183  0.3777  0.7100  0.9947
  699TIP3    H226293   0.471   4.705  18.154 -0.0407  0.4008 -0.7249
  700TIP3   OH226294   4.188   5.986  21.235 -0.0651  0.2768 -0.0849
  700TIP3    H126295   4.099   6.001  21.203 -0.2249  1.5821  0.8789
  700TIP3    H226296   4.178   5.922  21.305 -0.4852  1.4565  0.9827
  701TIP3   OH226297   0.904   5.653  20.014 -0.2518 -0.6330 -0.1449
  701TIP3    H126298   0.888   5.748  20.014 -0.3983 -0.5182 -3.5680
  701TIP3    H226299   0.817   5.615  20.006 -0.0749 -0.9342 -0.6870
  702TIP3   OH226300   4.596   0.860  20.880  0.4301 -0.6465  0.4296
  702TIP3    H126301   4.662   0.925  20.905 -1.0517  0.9740  0.3136
  702TIP3    H226302   4.646   0.780  20.866  2.3893  0.5477  0.1863
  703TIP3   OH226303   0.167   6.573  20.569 -0.1184 -0.0386 -0.0138
  703TIP3    H126304   0.141   6.481  20.573 -1.5790  0.4051  1.9291
  703TIP3    H226305   0.149   6.599  20.478 -0.9817 -1.3306 -0.2406
  704TIP3   OH226306   1.894   6.431  21.353 -0.2616  0.5533  0.2166
  704TIP3    H126307   1.987   6.438  21.334 -0.7115 -0.3589 -3.0483
  704TIP3    H226308   1.855   6.508  21.312 -1.0968  0.0138 -0.0347
  705TIP3   OH226309   4.658   0.176  18.548  0.1757  0.1540  0.4973
  705TIP3    H126310   4.622   0.136  18.468 -0.6222  0.8092  0.5129
  705TIP3    H226311   4.709   0.251  18.516  1.1047 -0.4519  0.5134
  706TIP3   OH226312   3.217   6.419  20.463  0.0582 -0.0273 -0.7548
  706TIP3    H126313   3.137   6.398  20.414 -0.1810  0.1305 -0.4388
  706TIP3    H226314   3.279   6.448  20.397 -0.8351  1.9530 -0.7962
  707TIP3   OH226315   3.745   0.663  17.619 -0.4786  0.0221  0.1763
  707TIP3    H126316   3.768   0.715  17.541  2.0749  0.3126  1.0172
  707TIP3    H226317   3.730   0.729  17.687  1.7073 -0.2152  0.9748
  708TIP3   OH226318   2.805   0.459  19.186 -0.1342  0.4081  0.0046
  708TIP3    H126319   2.737   0.408  19.231 -0.9692  1.0911 -0.4583
  708TIP3    H226320   2.838   0.519  19.253 -2.7367  2.7918 -0.6846
  709TIP3   OH226321   5.980   5.442  19.078 -0.1006  0.9638  0.4682
  709TIP3    H126322   5.901   5.430  19.025 -0.2466  2.6904  0.2180
  709TIP3    H226323   5.953   5.504  19.146  1.0380  1.5836  0.3736
  710TIP3   OH226324   4.773   6.030  18.756 -0.2066 -0.3162 -0.4426
  710TIP3    H126325   4.683   6.003  18.736  0.6507 -3.4668 -0.4819
  710TIP3    H226326   4.824   6.002  18.681  1.0243  0.3431  0.1206
  711TIP3   OH226327   4.741   5.486  19.539 -0.0326 -0.1609  0.2244
  711TIP3    H126328   4.671   5.424  19.520 -1.5092  0.9281  1.8624
  711TIP3    H226329   4.734   5.553  19.470  1.5737 -1.6988 -1.5550
  712TIP3   OH226330   3.065   0.815  19.844 -0.2424  0.0286 -0.3296
  712TIP3    H126331   3.099   0.779  19.926  0.3748  0.4515 -0.3938
  712TIP3    H226332   3.127   0.883  19.820 -0.7095  0.2745 -0.8738
  713TIP3   OH226333   5.623   3.846  20.626 -0.2975  0.2021 -0.1199
  713TIP3    H126334   5.626   3.851  20.722  2.3739  0.4526 -0.1609
  713TIP3    H226335   5.687   3.910  20.597  0.0072 -0.9337 -2.0585
  714TIP3   OH226336   5.220   6.583  20.477  0.4933 -0.1965  0.0729
  714TIP3    H126337   5.230   6.603  20.384  1.1700  0.5546  0.2983
  714TIP3    H226338   5.304   6.545  20.503 -0.0265 -1.3083  0.1614
  715TIP3   OH226339   3.808   6.240  18.086 -0.2943  0.5772  0.1924
  715TIP3    H126340   3.784   6.154  18.118 -0.9586 -0.1471 -2.0224
  715TIP3    H226341   3.733   6.268  18.033  0.0083  2.4079  0.6538
  716TIP3   OH226342   1.210   6.193  21.235  0.4071  0.4649  0.0357
  716TIP3    H126343   1.277   6.227  21.294  0.0852  0.5554  0.3554
  716TIP3    H226344   1.221   6.098  21.237  1.1368  0.5289 -0.6520
  717TIP3   OH226345   0.254   0.375  19.457 -0.3617  0.0943 -0.1684
  717TIP3    H126346   0.223   0.286  19.474 -0.1710 -0.2060 -1.2769
  717TIP3    H226347   0.193   0.409  19.391  0.7930 -0.0053 -1.3348
  718TIP3   OH226348   5.001   6.303  21.334  0.5242  0.6332  0.2853
  718TIP3    H126349   4.921   6.253  21.346  0.9083 -0.6748 -1.9755
  718TIP3    H226350   5.069   6.237  21.317  1.6183  1.7951 -0.0424
  719TIP3   OH226351   4.067   1.449  20.105 -0.8314  0.2324  0.0146
  719TIP3    H126352   4.073   1.389  20.030 -1.0479 -1.0285  0.9745
  719TIP3    H226353   4.146   1.431  20.156 -1.7127 -0.4871  1.1840
  720TIP3   OH226354   2.548   1.818  19.608  0.2680  0.1390  0.3807
  720TIP3    H126355   2.599   1.848  19.534 -0.6675  1.5158  0.2614
  720TIP3    H226356   2.463   1.861  19.598 -0.2722 -0.5775  1.6081
  721TIP3   OH226357   5.333   3.653  19.911  0.0181  0.1236  0.3713
  721TIP3    H126358   5.384   3.616  19.983  1.4647  1.2952  0.0097
  721TIP3    H226359   5.314   3.579  19.854  0.3225 -0.5346  1.1029
  722TIP3   OH226360   2.487   5.507  19.881 -0.1085  0.0715  0.1884
  722TIP3    H126361   2.392   5.497  19.872 -0.0602  1.1631 -2.4210
  722TIP3    H226362   2.499   5.599  19.904  0.3413 -0.1512  0.8875
  723TIP3   OH226363   4.388   4.240  20.820 -0.2056  0.3751  0.2452
  723TIP3    H126364   4.348   4.270  20.902 -0.0245  2.6650 -0.4345
  723TIP3    H226365   4.475   4.280  20.820  1.6884 -3.3108  0.9870
  724TIP3   OH226366   3.701   0.800  19.594  0.3032 -0.0081 -0.2490
  724TIP3    H126367   3.793   0.809  19.571 -0.1173 -0.0248 -2.0678
  724TIP3    H226368   3.665   0.888  19.584 -0.1266 -0.2380 -0.7654
  725TIP3   OH226369   2.074   3.284  19.859 -0.1122  0.4521  0.2945
  725TIP3    H126370   2.085   3.367  19.813  0.1265  0.1905 -0.1261
  725TIP3    H226371   1.989   3.251  19.829  0.4259 -0.1331 -0.6395
  726TIP3   OH226372   1.418   5.653  19.434 -0.1066 -0.3354  0.0389
  726TIP3    H126373   1.343   5.625  19.487 -0.2726  0.0568  0.0136
  726TIP3    H226374   1.494   5.618  19.481 -0.2763 -0.3137  0.3343
  727TIP3   OH226375   6.586   1.907  17.496 -0.2815 -0.1780 -0.8841
  727TIP3    H126376   6.617   1.817  17.491 -0.7424 -0.3928 -0.0218
  727TIP3    H226377   6.666   1.959  17.510 -0.1871 -0.6511  0.5533
  728TIP3   OH226378   2.026   2.384  18.305 -0.3831  0.1939  0.5219
  728TIP3    H126379   2.097   2.341  18.258  0.0709 -1.1411  2.2942
  728TIP3    H226380   1.946   2.345  18.270 -0.1188 -0.0177  0.1448
  729TIP3   OH226381   0.423   2.924  21.459  0.0562 -0.3970 -0.2845
  729TIP3    H126382   0.333   2.949  21.477 -0.4442 -0.7245 -2.1909
  729TIP3    H226383   0.420   2.829  21.444  1.0600 -0.7702  1.4605
  730TIP3   OH226384   6.536   0.361  19.042 -0.6594 -0.4534  0.5276
  730TIP3    H126385   6.535   0.395  18.952  0.5780 -0.7501  0.3757
  730TIP3    H226386   6.448   0.326  19.055 -0.6591 -1.0593 -0.8413
  731TIP3   OH226387   2.037   1.682  18.307 -0.3960  0.3226  0.0994
  731TIP3    H126388   1.955   1.719  18.271 -1.0692 -1.5623 -0.4172
  731TIP3    H226389   2.080   1.757  18.348 -0.4666  2.2727 -3.0231
  732TIP3   OH226390   4.917   0.758  19.227  0.0194 -0.2750  0.4951
  732TIP3    H126391   4.921   0.807  19.309  0.6340 -1.0406  0.9436
  732TIP3    H226392   4.872   0.677  19.250  3.2340 -2.0769  0.9722
  733TIP3   OH226393   2.059   1.512  17.861 -0.3076 -0.0352 -0.0195
  733TIP3    H126394   2.070   1.498  17.955 -1.5356 -0.3159  0.0968
  733TIP3    H226395   2.032   1.427  17.827  2.4931 -0.5999 -1.0605
  734TIP3   OH226396   3.271   2.990  17.316  0.1405 -0.8891  0.6198
  734TIP3    H126397   3.271   3.035  17.232  0.0103 -0.2324  0.9622
  734TIP3    H226398   3.339   2.924  17.308 -0.6535 -1.6103 -0.4025
  735TIP3   OH226399   0.962   5.791  18.982  0.5751  0.3429 -0.5512
  735TIP3    H126400   0.867   5.800  18.972  0.4767  1.0550  0.6748
  735TIP3    H226401   0.995   5.881  18.974  1.1547  0.0913 -1.0250
  736TIP3   OH226402   2.941   4.109  21.143  0.6846 -0.1845 -0.0734
  736TIP3    H126403   2.850   4.123  21.117  0.0175 -1.3529  1.4820
  736TIP3    H226404   2.953   4.014  21.136  1.6821 -0.0741  0.0715
  737TIP3   OH226405   0.163   1.560  19.474  0.1378 -0.5932 -0.0363
  737TIP3    H126406   0.201   1.644  19.450  3.5868 -1.2842  2.2665
  737TIP3    H226407   0.086   1.583  19.526  0.0484  1.0619 -0.8355
  738TIP3   OH226408   3.116   5.546  19.829 -0.0356  0.0158 -0.7983
  738TIP3    H126409   3.185   5.490  19.794 -0.6650 -1.4322  0.1756
  738TIP3    H226410   3.078   5.589  19.752  0.9046 -0.3808 -1.4981
  739TIP3   OH226411   2.058   0.705  18.712  0.1687 -0.0266 -0.6178
  739TIP3    H126412   2.137   0.732  18.757 -0.4887  0.4523  0.2843
  739TIP3    H226413   2.065   0.744  18.625  1.2081 -0.5170 -0.7614
  740TIP3   OH226414   3.349   4.008  20.628 -0.6841  0.0439  0.4078
  740TIP3    H126415   3.255   3.994  20.626 -0.5045 -1.1325 -1.3219
  740TIP3    H226416   3.362   4.098  20.596 -1.1801  0.0575  0.2522
  741TIP3   OH226417   4.606   4.557  20.477  0.3413  0.3640  0.5839
  741TIP3    H126418   4.556   4.481  20.448 -0.2283  0.4399  1.3632
  741TIP3    H226419   4.698   4.533  20.460  0.1019 -0.0987 -0.0777
  742TIP3   OH226420   1.740   6.496  18.938 -0.5444  0.2222 -0.2847
  742TIP3    H126421   1.687   6.517  18.861 -0.6369  1.3853  0.0835
  742TIP3    H226422   1.823   6.464  18.901 -1.6022 -2.0921 -0.8727
  743TIP3   OH226423   5.416   3.494  20.357  0.0738 -0.2013  0.3723
  743TIP3    H126424   5.340   3.454  20.316  0.0914 -0.8328  0.9264
  743TIP3    H226425   5.462   3.420  20.399  1.5228  0.0034 -0.7649
  744TIP3   OH226426   1.083   0.428  18.289 -0.0548 -0.0542  0.4918
  744TIP3    H126427   1.146   0.361  18.263  2.7002  2.4397  0.2138
  744TIP3    H226428   1.066   0.412  18.382  1.4585 -0.4851  0.7118
  745TIP3   OH226429   0.966   2.516  21.399 -0.7159 -0.2687 -0.5749
  745TIP3    H126430   0.962   2.427  21.434  1.2675 -0.5694 -1.0137
  745TIP3    H226431   1.010   2.507  21.314 -0.9085  1.0706 -0.8447
  746TIP3   OH226432   5.990   5.448  19.437  0.3099 -0.2043  0.2509
  746TIP3    H126433   5.901   5.471  19.461 -0.2696 -0.8885 -1.1399
  746TIP3    H226434   6.017   5.518  19.377  0.4398 -0.3846  0.0985
  747TIP3   OH226435   3.540   0.598  19.606 -0.5932  0.1745 -0.7028
  747TIP3    H126436   3.611   0.662  19.612 -0.0214 -0.5254  0.3128
  747TIP3    H226437   3.531   0.582  19.512  0.3317  0.5533 -0.8728
  748TIP3   OH226438   6.425   2.155  19.311 -0.3231 -0.3943  0.3405
  748TIP3    H126439   6.512   2.196  19.310 -0.5527  0.1372  1.0531
  748TIP3    H226440   6.429   2.093  19.384 -0.4333 -0.6068  0.1637
  749TIP3   OH226441   0.461   5.829  18.890  0.1814  0.3119  0.0106
  749TIP3    H126442   0.428   5.790  18.808 -0.0729 -0.5008  0.4866
  749TIP3    H226443   0.427   5.918  18.889 -0.1152  0.2004 -0.6054
  750TIP3   OH226444   4.324   6.063  19.113 -0.2758 -0.4709  0.4344
  750TIP3    H126445   4.374   6.111  19.180  0.3571 -2.4610  1.4590
  750TIP3    H226446   4.256   6.017  19.162  0.2359 -2.0224 -0.2668
  751TIP3   OH226447   4.962   4.794  20.332  0.0548 -0.1673  0.4958
  751TIP3    H126448   5.012   4.837  20.402  0.2493  0.2345  0.1130
  751TIP3    H226449   4.942   4.707  20.368  0.5884 -0.1518  0.8545
  752TIP3   OH226450   0.314   2.476  20.797  0.6441  0.5500 -0.1159
  752TIP3    H126451   0.368   2.552  20.821 -0.1182  1.4451 -1.1249
  752TIP3    H226452   0.272   2.450  20.879  1.9222  0.3645  0.5150
  753TIP3   OH226453   3.555   3.592  20.127  0.1687  0.1641 -0.0403
  753TIP3    H126454   3.506   3.511  20.114  1.0727 -0.4506  0.2821
  753TIP3    H226455   3.496   3.661  20.097 -1.1238 -0.4971  0.8735
  754TIP3   OH226456   5.080   0.101  21.231  0.0860  0.1133  0.2241
  754TIP3    H126457   5.154   0.055  21.272  0.2031  1.8468  2.0921
  754TIP3    H226458   5.010   0.037  21.230  1.0663 -0.9975  0.1084
  755TIP3   OH226459   6.517   2.681  17.453  0.4838  0.3981  0.3589
  755TIP3    H126460   6.547   2.673  17.543  1.2412  1.7584  0.2593
  755TIP3    H226461   6.594   2.715  17.405  0.0386 -0.1104 -0.7500
  756TIP3   OH226462   5.066   6.398  20.238 -0.3207  0.1585  0.1495
  756TIP3    H126463   5.049   6.489  20.215 -0.9469  0.1881  0.7125
  756TIP3    H226464   5.016   6.383  20.318  0.8438 -0.2962  0.8271
  757TIP3   OH226465   4.472   2.901  17.818  0.1264 -0.4554  0.1230
  757TIP3    H126466   4.418   2.943  17.751  1.1460  0.6006 -0.0557
  757TIP3    H226467   4.410   2.846  17.867 -1.0659  0.4769 -0.2796
  758TIP3   OH226468   6.516   0.657  19.484  0.1385 -0.0409 -0.6049
  758TIP3    H126469   6.547   0.598  19.552 -1.1637 -0.2971 -0.2152
  758TIP3    H226470   6.592   0.668  19.426  0.4684 -2.0058 -0.6317
  759TIP3   OH226471   4.413   2.801  20.382 -0.0022 -0.2937 -0.4890
  759TIP3    H126472   4.416   2.730  20.317  0.0210 -0.3752 -0.4010
  759TIP3    H226473   4.415   2.881  20.330  2.4293 -0.3086 -0.5397
  760TIP3   OH226474   1.001   0.563  19.689  0.0456  0.2177  0.4641
  760TIP3    H126475   1.012   0.639  19.745  1.9746  1.9465 -2.0628
  760TIP3    H226476   1.088   0.523  19.684 -0.1717 -0.1379 -0.9272
  761TIP3   OH226477   3.782   2.958  20.764 -0.0545  0.1718 -0.1428
  761TIP3    H126478   3.740   2.900  20.827 -1.2242 -0.5627 -1.5497
  761TIP3    H226479   3.874   2.959  20.790 -0.1428 -1.7291  0.3668
  762TIP3   OH226480   3.035   3.021  17.486  0.1251  0.6085 -0.1539
  762TIP3    H126481   3.125   3.029  17.456 -0.0648  1.8379 -0.4802
  762TIP3    H226482   3.002   2.942  17.443  1.6992 -1.1981  1.8047
  763TIP3   OH226483   1.258   2.078  19.656  0.5652  0.3989  0.1841
  763TIP3    H126484   1.211   2.000  19.628 -0.1442  0.0699  2.1301
  763TIP3    H226485   1.343   2.072  19.612  1.6060 -2.9461  2.2594
  764TIP3   OH226486   6.568   2.381  20.310 -0.1410  0.1699 -0.0624
  764TIP3    H126487   6.527   2.296  20.323  0.3920  0.0496  0.8278
  764TIP3    H226488   6.588   2.384  20.216  0.3755 -0.9172  0.0101
  765TIP3   OH226489   4.155   6.467  17.369 -0.0357 -0.1054 -0.2480
  765TIP3    H126490   4.249   6.486  17.376 -0.0329 -0.4730  1.2375
  765TIP3    H226491   4.151   6.384  17.320  0.4242 -0.1008 -0.3014
  766TIP3   OH226492   5.041   5.955  18.926 -0.3349  0.1975 -0.0384
  766TIP3    H126493   4.969   5.988  18.979 -0.7080  0.8517 -0.9285
  766TIP3    H226494   5.036   6.005  18.844  0.8954 -0.0152 -0.2615
  767TIP3   OH226495   1.831   0.247  20.761 -0.3482 -0.0804  0.5113
  767TIP3    H126496   1.859   0.191  20.833  0.2546 -1.1669 -0.5374
  767TIP3    H226497   1.906   0.304  20.744 -0.3277 -0.1305  0.4366
  768TIP3   OH226498   0.438   4.240  19.554  0.1941 -0.2886 -0.1519
  768TIP3    H126499   0.484   4.193  19.485 -0.3801  1.6069 -1.9052
  768TIP3    H226500   0.363   4.185  19.575  0.3962 -0.9001 -1.0090
  769TIP3   OH226501   2.942   3.754  18.443  0.4028  1.0042  0.2343
  769TIP3    H126502   2.991   3.835  18.432  0.6725  0.9704  1.0690
  769TIP3    H226503   2.855   3.772  18.407  1.5749  0.4282 -3.1643
  770TIP3   OH226504   1.148   3.806  20.931 -0.7190 -0.5249 -0.1359
  770TIP3    H126505   1.180   3.806  21.021 -0.5581  0.7266 -0.1778
  770TIP3    H226506   1.158   3.715  20.902 -0.8479 -0.9583  1.1240
  771TIP3   OH226507   6.259   5.329  21.568  0.4816  0.1958  0.2748
  771TIP3    H126508   6.233   5.386  21.639 -0.1196  0.6845 -0.3222
  771TIP3    H226509   6.352   5.314  21.582  0.4566  0.6126  0.9297
  772TIP3   OH226510   0.298   2.663  19.622 -0.0146 -0.1233 -0.2349
  772TIP3    H126511   0.355   2.591  19.651 -0.6638 -0.3635  0.4759
  772TIP3    H226512   0.359   2.735  19.603  0.6872 -1.0219 -1.4835
  773TIP3   OH226513   0.815   2.638  20.589  0.1125 -0.5613 -0.0717
  773TIP3    H126514   0.854   2.725  20.579 -1.7803  0.3049 -0.4411
  773TIP3    H226515   0.792   2.632  20.682  0.1604 -0.6214 -0.0634
  774TIP3   OH226516   3.255   1.939  17.874 -0.2017  0.3380 -0.0757
  774TIP3    H126517   3.314   2.003  17.834 -1.0870  1.1249 -0.1636
  774TIP3    H226518   3.236   1.877  17.804 -2.4941  2.2316 -1.2671
  775TIP3   OH226519   2.940   5.727  20.655 -0.1760  0.3979  0.1709
  775TIP3    H126520   2.860   5.675  20.650 -0.1780  0.4220 -0.0596
  775TIP3    H226521   2.928   5.783  20.732 -0.2758  0.2287  0.2779
  776TIP3   OH226522   4.792   3.063  21.224  0.0956  0.0436 -0.0894
  776TIP3    H126523   4.837   3.147  21.220 -0.6620  0.4421 -0.3361
  776TIP3    H226524   4.776   3.039  21.133  1.9324 -1.2761 -0.1269
  777TIP3   OH226525   3.502   5.718  19.406 -0.4115 -0.2408 -0.2463
  777TIP3    H126526   3.523   5.629  19.437 -1.4000 -0.8832 -1.3630
  777TIP3    H226527   3.578   5.743  19.354 -0.0908 -0.3924  0.1413
  778TIP3   OH226528   4.424   3.375  20.959 -0.3185  0.0035  0.2390
  778TIP3    H126529   4.498   3.342  21.011  0.3197 -0.0544 -0.6867
  778TIP3    H226530   4.455   3.372  20.869 -0.9933  1.1905 -0.0503
  779TIP3   OH226531   6.510   3.306  19.815 -0.2959  0.4326  0.4875
  779TIP3    H126532   6.519   3.229  19.873  2.3462  1.5615  1.7799
  779TIP3    H226533   6.584   3.299  19.755  0.1700  2.0739  0.8208
  780TIP3   OH226534   3.068   1.657  20.301 -0.1182  1.0267  0.9626
  780TIP3    H126535   3.009   1.587  20.273  0.0035  1.0144  0.7292
  780TIP3    H226536   3.022   1.738  20.279  0.5107  1.0347 -0.5016
  781TIP3   OH226537   4.598   0.375  20.760  0.2822 -0.3749  0.0903
  781TIP3    H126538   4.624   0.438  20.693  0.3329 -1.3066 -0.7805
  781TIP3    H226539   4.668   0.309  20.759 -1.2220 -2.0499 -1.1445
  782TIP3   OH226540   6.284   2.600  20.295 -0.5563  0.1492  0.3612
  782TIP3    H126541   6.335   2.639  20.366  0.5851 -1.3175  0.3847
  782TIP3    H226542   6.299   2.506  20.303  1.4426 -0.0029 -3.1136
  783TIP3   OH226543   4.942   5.214  21.392  0.9573 -0.6678  0.0178
  783TIP3    H126544   4.918   5.173  21.475 -0.7656 -0.8466 -0.5372
  783TIP3    H226545   4.899   5.299  21.394 -0.2336 -1.2077 -1.2366
  784TIP3   OH226546   0.259   6.562  18.336 -0.0440 -0.0025  0.0957
  784TIP3    H126547   0.330   6.618  18.367 -0.3792  0.1634  0.5648
  784TIP3    H226548   0.289   6.473  18.354 -0.6013  0.1099  1.7253
  785TIP3   OH226549   5.399   5.198  19.742 -0.5518  0.0354 -0.1587
  785TIP3    H126550   5.444   5.114  19.741  0.6181  0.6389 -0.1256
  785TIP3    H226551   5.469   5.263  19.731 -1.4415  0.9979 -0.3223
  786TIP3   OH226552   5.953   0.962  19.298  0.2756  0.0451 -0.4642
  786TIP3    H126553   6.047   0.944  19.303  0.3474  0.4828 -0.2431
  786TIP3    H226554   5.919   0.939  19.384  0.1625 -0.2000 -0.5733
  787TIP3   OH226555   2.195   2.930  20.674  0.2119  0.0427  0.0597
  787TIP3    H126556   2.206   2.867  20.603 -2.0416 -0.8240  0.3994
  787TIP3    H226557   2.275   2.983  20.671  0.8779 -0.9476 -2.1013
  788TIP3   OH226558   1.658   4.305  20.553  0.3539 -0.8384 -0.3807
  788TIP3    H126559   1.738   4.332  20.508  0.9630 -0.4493  0.8948
  788TIP3    H226560   1.641   4.375  20.615 -1.0264 -0.8933 -0.6719
  789TIP3   OH226561   5.182   5.370  19.275 -0.1387  0.1516 -0.2020
  789TIP3    H126562   5.139   5.309  19.336 -0.1494 -0.1178 -0.4745
  789TIP3    H226563   5.169   5.456  19.314  0.3260 -0.0641  0.4602
  790TIP3   OH226564   2.296   1.185  21.344  0.3892  0.1701 -0.5939
  790TIP3    H126565   2.377   1.159  21.390  0.5112  0.9244 -0.3634
  790TIP3    H226566   2.327   1.227  21.264  0.1840 -0.7366 -1.1589
  791TIP3   OH226567   4.628   1.458  17.921  0.3728  0.3235  0.4075
  791TIP3    H126568   4.705   1.441  17.975  0.3477  0.7167  0.5675
  791TIP3    H226569   4.576   1.521  17.971 -0.8398 -1.1052  1.0432
  792TIP3   OH226570   3.108   5.628  18.379  0.1478  0.0819 -0.2198
  792TIP3    H126571   3.029   5.576  18.395 -0.2009  0.1862 -1.5544
  792TIP3    H226572   3.149   5.587  18.303 -0.4093  2.0492 -1.6356
  793TIP3   OH226573   4.778   4.824  20.123 -0.2534  0.1134  0.1625
  793TIP3    H126574   4.829   4.801  20.045 -1.8367 -2.0967 -0.3131
  793TIP3    H226575   4.844   4.844  20.190  1.1582  0.5428 -1.2770
  794TIP3   OH226576   4.241   0.432  19.231  0.1430  0.3983 -0.3115
  794TIP3    H126577   4.328   0.396  19.244  0.7245  1.8364 -0.0094
  794TIP3    H226578   4.181   0.364  19.263  1.1236 -0.7000 -0.7283
  795TIP3   OH226579   1.650   2.067  20.121 -0.4008  0.6370 -0.3689
  795TIP3    H126580   1.562   2.101  20.137 -0.7983  0.0301 -1.1885
  795TIP3    H226581   1.708   2.135  20.153 -1.1733  1.0989  0.0785
  796TIP3   OH226582   5.962   6.286  20.705  0.6418 -0.0048 -0.0233
  796TIP3    H126583   5.980   6.224  20.635 -1.0278 -0.2628 -0.2708
  796TIP3    H226584   5.888   6.248  20.753 -2.2768  2.9139 -1.7767
  797TIP3   OH226585   2.931   3.151  19.458 -0.2270  0.0773 -0.0199
  797TIP3    H126586   2.998   3.090  19.491  2.6042  2.3243 -1.1175
  797TIP3    H226587   2.982   3.226  19.426 -3.4565  3.1595  1.4676
  798TIP3   OH226588   0.389   4.271  19.125 -0.5081  0.0791  0.0251
  798TIP3    H126589   0.470   4.296  19.168 -0.1084  0.6608 -1.0296
  798TIP3    H226590   0.321   4.322  19.170 -0.2360 -0.0563  0.5996
  799TIP3   OH226591   1.327   6.469  19.725  0.0470  0.1859  0.1392
  799TIP3    H126592   1.338   6.375  19.710 -0.4867 -0.1271  1.4984
  799TIP3    H226593   1.414   6.506  19.710 -0.2296 -0.1175 -2.7564
  800TIP3   OH226594   2.410   0.003  17.764 -0.0490  0.0364 -0.2938
  800TIP3    H126595   2.319   0.018  17.788  0.1309  0.3178  0.2281
  800TIP3    H226596   2.440  -0.066  17.824  0.6228  1.2771  0.8559
  801TIP3   OH226597   2.328   2.799  19.663  0.2699  0.2417  0.3874
  801TIP3    H126598   2.335   2.753  19.747  0.1074  0.9041  0.7747
  801TIP3    H226599   2.413   2.789  19.622  0.4433  0.1615  0.7663
  802TIP3   OH226600   3.586   2.814  17.885 -0.5337  0.2019 -0.0718
  802TIP3    H126601   3.524   2.880  17.854 -0.7469  0.2884  0.5149
  802TIP3    H226602   3.616   2.770  17.806 -1.6380 -0.0972 -0.3497
  803TIP3   OH226603   5.481   1.563  18.616  0.2140  0.3547 -0.3332
  803TIP3    H126604   5.461   1.644  18.568 -1.2062  0.3128  0.1489
  803TIP3    H226605   5.510   1.593  18.702 -1.7360  0.3842  0.3748
  804TIP3   OH226606   5.333   1.502  20.631  0.2677 -0.0762  0.2931
  804TIP3    H126607   5.335   1.418  20.675 -0.3233 -0.5005 -0.4629
  804TIP3    H226608   5.240   1.525  20.627  0.5088  1.6404  2.3596
  805TIP3   OH226609   3.380   4.599  18.146 -0.1296 -0.2629  0.0594
  805TIP3    H126610   3.439   4.649  18.204  1.9996 -0.8547 -1.4523
  805TIP3    H226611   3.417   4.510  18.146 -2.6900 -1.4256  1.1539
  806TIP3   OH226612   4.206   3.422  20.792  0.0126 -0.1558  0.3508
  806TIP3    H126613   4.271   3.405  20.861  2.0482 -1.4953 -1.7516
  806TIP3    H226614   4.223   3.356  20.726 -2.1233  0.8191 -1.3080
  807TIP3   OH226615   0.425   3.703  19.131 -0.1550 -0.1096 -0.3221
  807TIP3    H126616   0.413   3.609  19.145 -0.7999 -0.1993 -1.3388
  807TIP3    H226617   0.516   3.712  19.105  0.7015 -0.0944  2.3756
  808TIP3   OH226618   4.582   5.506  21.224  0.1241  0.0829 -0.1585
  808TIP3    H126619   4.599   5.418  21.191  0.5974 -0.0273  0.3703
  808TIP3    H226620   4.498   5.530  21.184 -0.2891 -0.8208  0.1334
  809TIP3   OH226621   6.552   0.363  18.770  0.7651  0.2715 -0.5365
  809TIP3    H126622   6.647   0.371  18.779  1.1839 -0.1754 -3.3557
  809TIP3    H226623   6.538   0.271  18.747 -0.2492  0.4925 -0.8391
  810TIP3   OH226624   2.161   5.049  11.404 -0.1647  0.0032 -0.0151
  810TIP3    H126625   2.168   4.962  11.442 -2.2034 -0.6232 -0.9564
  810TIP3    H226626   2.070   5.075  11.418 -0.1133  1.1412 -1.4864
  811TIP3   OH226627   5.530   2.936  19.080  0.1936  0.0025 -0.1465
  811TIP3    H126628   5.544   2.861  19.022 -0.0446  0.5213 -0.8979
  811TIP3    H226629   5.435   2.936  19.096 -0.2820  1.7371 -2.4425
  812TIP3   OH226630   5.308   2.065  19.757 -0.1444  0.4650 -0.1384
  812TIP3    H126631   5.359   2.145  19.750  0.7814 -0.0226  0.7247
  812TIP3    H226632   5.300   2.049  19.851 -1.7884  0.4441 -0.2463
  813TIP3   OH226633   2.571   3.733  19.528 -0.2386  0.2073  0.1562
  813TIP3    H126634   2.550   3.646  19.493 -2.2787  0.5545  0.3974
  813TIP3    H226635   2.646   3.718  19.585  1.8897 -0.7301 -2.6182
  814TIP3   OH226636   1.498   2.714  19.291 -0.0510  0.4143 -0.3209
  814TIP3    H126637   1.431   2.782  19.275  1.1542  1.3017 -1.8512
  814TIP3    H226638   1.473   2.642  19.233 -0.4421  0.1743  0.1372
  815TIP3   OH226639   0.879   4.635  20.588 -0.0734  0.2829  0.2654
  815TIP3    H126640   0.861   4.722  20.624 -0.2446  1.1431 -1.7573
  815TIP3    H226641   0.966   4.613  20.620  0.2739  1.5313  0.2043
  816TIP3   OH226642   5.688   6.553  20.094 -0.2797  0.2387  0.2630
  816TIP3    H126643   5.730   6.639  20.095 -1.0454  0.6251 -0.0669
  816TIP3    H226644   5.660   6.541  20.003  0.4218 -0.6719  0.1454
  817TIP3   OH226645   0.506   5.667  19.712 -0.2887  0.9616 -0.1189
  817TIP3    H126646   0.495   5.672  19.617 -0.9290 -0.9632 -0.1898
  817TIP3    H226647   0.436   5.723  19.746  0.3884  2.2414 -0.7649
  818TIP3   OH226648   3.297   2.982  18.242 -0.4510  0.0683  0.0271
  818TIP3    H126649   3.213   2.968  18.199  0.1020  1.4006 -1.5983
  818TIP3    H226650   3.359   2.930  18.192 -0.1149 -0.0417  0.5477
  819TIP3   OH226651   5.274   1.629  21.373  0.7634  0.1917 -0.1741
  819TIP3    H126652   5.248   1.719  21.356 -0.7511  0.1525  1.5854
  819TIP3    H226653   5.348   1.636  21.434 -0.0767  0.2829  0.8710
  820TIP3   OH226654   4.849   2.355  17.854 -0.0713 -0.7779 -0.4952
  820TIP3    H126655   4.788   2.285  17.830 -0.2939 -0.9100  0.4139
  820TIP3    H226656   4.810   2.394  17.932  0.7597 -0.5400 -0.1926
  821TIP3   OH226657   1.527   4.215  19.954  0.2877 -0.0021  0.2339
  821TIP3    H126658   1.585   4.272  19.904  1.7915 -0.2957  1.5611
  821TIP3    H226659   1.548   4.233  20.046 -1.2281 -0.6448  0.7482
  822TIP3   OH226660   4.672   1.506  19.915  0.4276  0.1502  0.1750
  822TIP3    H126661   4.707   1.591  19.943 -1.3339  0.9849 -0.0548
  822TIP3    H226662   4.616   1.525  19.840 -0.4436 -1.1285  0.4545
  823TIP3   OH226663   0.502   1.363  19.880 -0.4582  0.2382 -0.0131
  823TIP3    H126664   0.451   1.426  19.830  0.4098  0.3649 -0.7556
  823TIP3    H226665   0.497   1.282  19.828 -0.7130 -0.0189  0.4079
  824TIP3   OH226666   4.321   4.605  20.738  0.0074 -0.4201 -0.2855
  824TIP3    H126667   4.298   4.594  20.646 -0.7245  3.0584 -0.6441
  824TIP3    H226668   4.236   4.607  20.783  0.2824 -0.5143  0.2384
  825TIP3   OH226669   2.505   3.828  20.546  0.3791 -0.6160 -0.2251
  825TIP3    H126670   2.554   3.781  20.478 -1.3929  0.1472 -2.1671
  825TIP3    H226671   2.497   3.917  20.512  0.0847  0.0048  1.3956
  826TIP3   OH226672   4.809   2.707  18.658  0.5946  0.5688 -0.7182
  826TIP3    H126673   4.719   2.739  18.650  0.0390 -0.3004  1.3843
  826TIP3    H226674   4.836   2.734  18.746  1.3539 -1.6396 -0.2183
  827TIP3   OH226675   2.475   6.580  20.134  0.4990  0.2709  0.2684
  827TIP3    H126676   2.538   6.544  20.196  2.1055 -0.8421 -1.8917
  827TIP3    H226677   2.395   6.590  20.185  1.2367 -2.1810  2.1147
  828TIP3   OH226678   4.404   5.856  20.028  0.2342 -0.4509 -0.5657
  828TIP3    H126679   4.352   5.913  20.084  3.1612  0.4765  1.4925
  828TIP3    H226680   4.364   5.770  20.035 -1.9702  0.5265 -0.5372
  829TIP3   OH226681   5.644   4.151  18.758  0.8686 -0.1290  0.5800
  829TIP3    H126682   5.686   4.113  18.680  1.0660 -0.3551  0.7950
  829TIP3    H226683   5.621   4.075  18.812 -0.0018 -0.0261  0.3794
  830TIP3   OH226684   6.073   4.807  19.366 -0.1633  0.3245  0.2832
  830TIP3    H126685   6.083   4.791  19.459  1.0132 -0.1707  0.0921
  830TIP3    H226686   6.046   4.722  19.330 -0.8577  0.5750  0.1961
  831TIP3   OH226687   4.869   2.402  20.596  0.0779  0.0386 -0.0606
  831TIP3    H126688   4.900   2.349  20.670 -1.4615 -0.7014  0.0913
  831TIP3    H226689   4.884   2.347  20.519  2.4694  1.1420 -0.4650
  832TIP3   OH226690   4.295   0.040  20.735 -0.4754 -0.6065  0.6668
  832TIP3    H126691   4.371   0.035  20.793 -1.4444  0.3278  2.0737
  832TIP3    H226692   4.328   0.081  20.656  1.0767 -2.6695  0.1443
  833TIP3   OH226693   5.223   1.497  18.516 -0.3622 -0.3750  0.5875
  833TIP3    H126694   5.145   1.454  18.482  0.4287 -0.4621 -1.1922
  833TIP3    H226695   5.280   1.425  18.543  0.8283 -0.5159 -2.0939
  834TIP3   OH226696   1.383   1.339  21.226  0.2190  0.4469  0.0195
  834TIP3    H126697   1.367   1.389  21.146 -2.2825 -0.9069 -0.4525
  834TIP3    H226698   1.345   1.253  21.207  1.1028 -0.4494  2.0807
  835TIP3   OH226699   5.769   3.573  18.271  0.1243  0.0248 -0.0316
  835TIP3    H126700   5.724   3.490  18.259 -0.2420  0.0862  0.7949
  835TIP3    H226701   5.737   3.629  18.200  1.8749 -1.1201 -1.8074
  836TIP3   OH226702   5.921   3.068  20.226  0.9095 -1.0375 -0.3303
  836TIP3    H126703   5.980   3.075  20.150 -1.1269  2.8192 -1.8394
  836TIP3    H226704   5.834   3.055  20.188  0.0333 -0.6335  1.4260
  837TIP3   OH226705   1.651   3.979  19.932 -0.1222 -0.1400  0.2138
  837TIP3    H126706   1.582   4.044  19.918 -1.9908 -2.2686 -1.0606
  837TIP3    H226707   1.668   3.943  19.845  0.0481 -2.1252  1.0220
  838TIP3   OH226708   3.245   4.928  19.622 -0.2286  0.3594 -0.1880
  838TIP3    H126709   3.166   4.894  19.580  0.5648 -0.8693 -0.7387
  838TIP3    H226710   3.252   4.878  19.703  0.6300 -0.4126 -0.7203
  839TIP3   OH226711   0.021   1.271  19.729 -0.0937 -0.2812 -0.4866
  839TIP3    H126712   0.064   1.263  19.644  0.2830  0.5211 -0.3826
  839TIP3    H226713  -0.071   1.282  19.708 -0.1370 -1.0770 -0.7476
  840TIP3   OH226714   1.170   4.470  21.118  0.8537  0.1640  0.0803
  840TIP3    H126715   1.127   4.460  21.033  1.0285 -0.6954  0.0855
  840TIP3    H226716   1.111   4.526  21.168 -1.3885 -2.6045  0.8066
  841TIP3   OH226717   0.520   3.537  18.110  0.6872  0.3014 -0.7291
  841TIP3    H126718   0.446   3.590  18.079  0.5518 -0.6435 -2.1003
  841TIP3    H226719   0.577   3.600  18.154 -0.5163  1.1989 -0.3726
  842TIP3   OH226720   0.021   3.421  18.533  0.0284 -0.1093  0.3150
  842TIP3    H126721   0.099   3.472  18.512 -0.8403  1.1273  0.0407
  842TIP3    H226722   0.046   3.372  18.612  0.8870  0.7084  0.5670
  843TIP3   OH226723   2.847   1.386  17.859 -0.2057 -0.6642 -0.3821
  843TIP3    H126724   2.905   1.458  17.884 -1.2342  0.3767 -0.8762
  843TIP3    H226725   2.774   1.392  17.921 -0.9199 -0.4633 -1.2227
  844TIP3   OH226726   4.173   1.351  17.472 -0.5068  0.1501  0.3118
  844TIP3    H126727   4.245   1.307  17.428 -1.8820 -1.4776 -0.4177
  844TIP3    H226728   4.163   1.434  17.425  0.2275 -0.0597 -0.2332
  845TIP3   OH226729   1.399   1.337  19.522 -0.1073  0.4981  0.3945
  845TIP3    H126730   1.451   1.399  19.471 -0.4940  0.8256  0.3976
  845TIP3    H226731   1.398   1.373  19.610 -1.3668  1.1469  0.1322
  846TIP3   OH226732   3.904   2.830  19.969  0.0308 -0.2945  0.2602
  846TIP3    H126733   3.830   2.789  19.925 -0.3537  0.6445  0.0181
  846TIP3    H226734   3.865   2.897  20.025  0.7475  1.2639 -1.0081
  847TIP3   OH226735   3.689   4.814  18.163  0.1851  0.1864 -0.1201
  847TIP3    H126736   3.701   4.814  18.068 -0.2134 -0.5783 -0.1744
  847TIP3    H226737   3.774   4.839  18.198 -0.0561  1.9585 -0.7141
  848TIP3   OH226738   5.562   0.416  20.559  0.1676 -0.4831  0.0747
  848TIP3    H126739   5.479   0.369  20.554  0.0222 -0.2757  0.5432
  848TIP3    H226740   5.597   0.411  20.470 -0.4601 -0.3577 -0.1851
  849TIP3   OH226741   4.006   2.218  21.039  0.0559  0.5043  0.4419
  849TIP3    H126742   4.084   2.274  21.033 -0.2813  0.9411  0.0764
  849TIP3    H226743   3.939   2.265  20.990 -0.4405  0.1265  0.7482
  850TIP3   OH226744   4.485   1.694  18.105 -0.6115  0.1461  0.3087
  850TIP3    H126745   4.469   1.740  18.187 -0.5814  0.0181  0.3862
  850TIP3    H226746   4.412   1.720  18.048 -0.7917  0.0015  0.4724
  851TIP3   OH226747   3.645   2.208  18.731  0.4127  0.6659  0.2325
  851TIP3    H126748   3.635   2.154  18.652 -0.2949  0.3175  0.5422
  851TIP3    H226749   3.588   2.283  18.715  0.7051  0.8757  0.1771
  852TIP3   OH226750   0.903   3.790  20.639 -0.5557 -0.0166  0.1460
  852TIP3    H126751   0.895   3.843  20.559 -1.3505  0.4918  0.5534
  852TIP3    H226752   0.848   3.714  20.623  1.1004 -1.1001 -0.7062
  853TIP3   OH226753   2.234   0.973  19.917  0.0464 -0.6109 -0.2471
  853TIP3    H126754   2.319   1.015  19.913 -0.0966 -0.2781  0.0921
  853TIP3    H226755   2.205   0.987  20.008 -0.0640 -1.3197 -0.1655
  854TIP3   OH226756   2.075   2.605  19.157 -0.0856 -0.5657 -0.0613
  854TIP3    H126757   2.090   2.542  19.087 -2.0174 -1.6857  0.4677
  854TIP3    H226758   2.028   2.677  19.115  2.6857  0.9680 -0.8094
  855TIP3   OH226759   2.731   2.057  21.068 -0.3087 -0.1797  0.0059
  855TIP3    H126760   2.763   2.145  21.049  1.2942 -0.6347  0.4834
  855TIP3    H226761   2.810   2.004  21.081 -1.2459 -1.2749  1.5928
  856TIP3   OH226762   3.672   4.332  18.528  0.2768  0.4679  0.1697
  856TIP3    H126763   3.672   4.273  18.603 -0.3623 -2.2895 -1.8523
  856TIP3    H226764   3.589   4.378  18.533 -0.0536 -0.1777  0.7793
  857TIP3   OH226765   0.173   1.121  21.614 -0.2493  0.3820 -1.0019
  857TIP3    H126766   0.106   1.173  21.569  0.9966  1.3079 -1.8508
  857TIP3    H226767   0.255   1.166  21.595  0.5436 -0.2621  0.6958
  858TIP3   OH226768   3.034   3.678  19.895 -0.4971  0.6005  0.6223
  858TIP3    H126769   2.985   3.738  19.839 -0.6334  1.6380  1.8047
  858TIP3    H226770   3.029   3.594  19.850  0.6707  1.6662 -1.6845
  859TIP3   OH226771   5.126   5.043  18.143  0.9159  0.0264  0.1145
  859TIP3    H126772   5.158   4.966  18.191 -0.2750  0.1936  1.2258
  859TIP3    H226773   5.205   5.091  18.119  1.5928  0.9051  3.5512
  860TIP3   OH226774   2.878   6.506  20.775 -0.1757 -0.1955 -0.2498
  860TIP3    H126775   2.962   6.471  20.746  1.0442  3.6936 -2.1156
  860TIP3    H226776   2.900   6.559  20.852 -0.6622  1.4351 -1.1768
  861TIP3   OH226777   5.174   5.806  19.270 -0.1468  0.0128  0.0321
  861TIP3    H126778   5.122   5.885  19.255 -1.8322 -1.1697 -0.6299
  861TIP3    H226779   5.201   5.780  19.182 -2.0708 -1.7103 -0.1228
  862TIP3   OH226780   4.327   5.315  21.096 -0.3907 -0.2536  0.1925
  862TIP3    H126781   4.395   5.313  21.029  1.5366 -1.0879  2.0658
  862TIP3    H226782   4.310   5.409  21.111  0.3846 -0.0347 -0.2637
  863TIP3   OH226783   0.475   1.472  20.118 -0.0460 -0.1526  1.0548
  863TIP3    H126784   0.423   1.422  20.181 -0.1344  0.6306  1.6154
  863TIP3    H226785   0.491   1.411  20.046 -1.2454 -0.5884  1.1400
  864TIP3   OH226786   0.450   4.624  17.684 -0.3696 -0.2665 -0.1922
  864TIP3    H126787   0.546   4.618  17.680 -0.4461 -1.8507 -0.3931
  864TIP3    H226788   0.420   4.545  17.638 -1.7376 -0.9999  1.8224
  865TIP3   OH226789   0.762   3.072  21.108  0.4561  0.6151 -0.5608
  865TIP3    H126790   0.668   3.057  21.101  0.6364  0.2236 -2.5587
  865TIP3    H226791   0.770   3.143  21.171 -1.0290 -0.7618  1.3319
  866TIP3   OH226792   0.489   5.048  18.247  0.4338  0.0761 -0.3672
  866TIP3    H126793   0.515   4.956  18.248 -1.4051 -0.5002 -0.5902
  866TIP3    H226794   0.411   5.050  18.190 -1.2763  1.2455  1.8475
  867TIP3   OH226795   0.019   6.516  19.176 -0.5554  0.0054 -0.2704
  867TIP3    H126796   0.058   6.578  19.114 -0.5272  0.6068  0.3311
  867TIP3    H226797  -0.075   6.526  19.163 -0.6794  2.0414  1.5171
  868TIP3   OH226798   1.008   3.779  17.611  0.0803  0.0260 -0.4311
  868TIP3    H126799   0.971   3.706  17.561 -2.9977  1.5805 -0.6716
  868TIP3    H226800   0.955   3.855  17.586  0.3330  1.4989  2.9372
  869TIP3   OH226801   1.837   5.856  18.836  0.6411  0.5146  0.3040
  869TIP3    H126802   1.878   5.808  18.907  1.6750 -0.5398 -0.9582
  869TIP3    H226803   1.910   5.884  18.780 -0.2050  0.3533 -0.9209
  870TIP3   OH226804   0.875   4.114  19.941 -0.0449  0.2375  0.1389
  870TIP3    H126805   0.796   4.168  19.933 -0.0872 -0.0338 -1.8422
  870TIP3    H226806   0.930   4.162  20.003 -1.5651  0.6386  1.2553
  871TIP3   OH226807   4.216   2.637  17.805  0.4177 -0.3548 -0.4687
  871TIP3    H126808   4.171   2.697  17.864  0.3094 -1.3029  0.4481
  871TIP3    H226809   4.185   2.660  17.718 -1.3774 -0.5822  0.0788
  872TIP3   OH226810   0.225   4.887  18.518 -0.5760 -0.3194  0.2608
  872TIP3    H126811   0.203   4.913  18.428 -0.0438 -0.3457  0.1196
  872TIP3    H226812   0.187   4.800  18.527 -1.6846  0.1663  0.4721
  873TIP3   OH226813   5.423   5.730  20.744  0.1137  0.2589  0.4615
  873TIP3    H126814   5.436   5.671  20.670 -1.3802  3.0828 -2.2268
  873TIP3    H226815   5.329   5.729  20.760  0.1294  1.4770  0.7302
  874TIP3   OH226816   3.733   5.973  20.267  0.2523  0.1178  0.4426
  874TIP3    H126817   3.794   5.984  20.194  0.4159  1.0187  0.7100
  874TIP3    H226818   3.706   6.062  20.290 -1.3305 -0.2551  0.2033
  875TIP3   OH226819   0.508   1.144  19.267  0.2467  0.5214 -0.0292
  875TIP3    H126820   0.472   1.150  19.355  0.8453 -2.2190  0.4922
  875TIP3    H226821   0.457   1.073  19.226  3.4866 -2.0991  0.0568
  876TIP3   OH226822   6.041   1.039  18.668 -0.3467  0.2873 -0.0490
  876TIP3    H126823   6.122   0.992  18.650  0.4041  1.2390  0.7401
  876TIP3    H226824   6.069   1.124  18.702 -1.6542  1.4262 -1.6614
  877TIP3   OH226825   5.433   2.790  21.296 -0.4361  0.0014  0.9535
  877TIP3    H126826   5.499   2.848  21.334 -0.7834  1.0454 -0.0136
  877TIP3    H226827   5.475   2.754  21.218 -1.5315  1.9695 -0.6266
  878TIP3   OH226828   4.989   0.265  20.073  0.1974 -0.2186  0.0435
  878TIP3    H126829   5.024   0.229  20.155 -2.1418  0.5583  1.4480
  878TIP3    H226830   4.895   0.271  20.087 -0.0191  2.1713 -1.8476
  879TIP3   OH226831   1.787   6.508  19.791  0.0657 -0.1577 -0.0138
  879TIP3    H126832   1.703   6.500  19.747  0.5903 -1.8638 -0.7884
  879TIP3    H226833   1.843   6.443  19.748  1.2564 -0.2965  1.6488
  880TIP3   OH226834   0.348   0.884  20.770 -0.7664 -0.6726  0.4667
  880TIP3    H126835   0.368   0.799  20.730 -1.5485 -0.5660 -0.1727
  880TIP3    H226836   0.434   0.918  20.797 -0.4522 -1.6824  0.7891
  881TIP3   OH226837   2.332   6.048  18.041  0.1262 -0.7908 -0.2468
  881TIP3    H126838   2.427   6.047  18.047  0.0897  0.9928  2.8056
  881TIP3    H226839   2.312   6.127  17.990  0.2672 -0.7486 -0.2371
  882TIP3   OH226840   4.381   1.870  18.360 -0.6566 -0.0366  0.0600
  882TIP3    H126841   4.440   1.883  18.435  0.4304 -0.7771 -0.6234
  882TIP3    H226842   4.348   1.781  18.372 -0.1533 -0.3124 -0.5383
  883TIP3   OH226843   5.760   0.968  21.211  0.1090 -0.8203  0.2075
  883TIP3    H126844   5.674   0.929  21.228 -0.8550  1.4391  0.9314
  883TIP3    H226845   5.758   0.988  21.117 -0.3874 -0.3509  0.3058
  884TIP3   OH226846   5.602   3.871  19.346  0.3357 -0.3507  0.7185
  884TIP3    H126847   5.643   3.901  19.265  1.1359 -1.1302  0.8132
  884TIP3    H226848   5.572   3.951  19.389 -1.6116 -0.0288 -1.0856
  885TIP3   OH226849   1.412   1.259  20.817  0.2920 -0.5591 -0.0910
  885TIP3    H126850   1.364   1.331  20.859  0.1492 -1.2139  0.9181
  885TIP3    H226851   1.417   1.284  20.725 -1.0819  0.0230 -0.0351
  886TIP3   OH226852   1.739   4.929  19.253  0.0644  0.7432 -0.2984
  886TIP3    H126853   1.671   4.861  19.251  1.4067 -0.6515 -1.1265
  886TIP3    H226854   1.773   4.931  19.163  1.6084  0.8729  0.2647
  887TIP3   OH226855   2.335   5.292  19.676 -0.6654 -0.1420 -0.0910
  887TIP3    H126856   2.263   5.233  19.651 -0.8118 -0.1138  0.2591
  887TIP3    H226857   2.319   5.372  19.625  0.3744 -0.9160 -1.7230
  888TIP3   OH226858   1.503   2.156  19.879  0.1533  0.4766 -0.2423
  888TIP3    H126859   1.523   2.064  19.897 -2.2727  0.1426  1.2031
  888TIP3    H226860   1.473   2.157  19.788 -0.8542 -0.3763  0.0687
  889TIP3   OH226861   4.001   5.086  21.338 -0.3886  0.3216 -0.2652
  889TIP3    H126862   3.906   5.096  21.328 -0.4158  0.1677 -0.1769
  889TIP3    H226863   4.034   5.175  21.348 -0.6125  0.3280  0.4564
  890TIP3   OH226864   4.080   0.390  19.013  0.2400  0.0885  0.2360
  890TIP3    H126865   4.146   0.410  19.078  1.2212 -0.2069 -0.6370
  890TIP3    H226866   4.129   0.355  18.938 -0.7529  1.1718 -0.9781
  891TIP3   OH226867   6.069   0.181  18.656 -0.4608 -0.7029 -0.2909
  891TIP3    H126868   6.010   0.184  18.581 -0.1059  0.4543 -0.5511
  891TIP3    H226869   6.037   0.250  18.715  0.1335 -0.6035 -0.0681
  892TIP3   OH226870   0.839   6.453  20.628  0.3158 -0.0912 -0.2784
  892TIP3    H126871   0.924   6.446  20.584  0.7711 -0.4729  0.6409
  892TIP3    H226872   0.830   6.547  20.646 -1.1025  0.5222 -3.4921
  893TIP3   OH226873   5.992   2.952  21.130 -0.1866 -0.0191 -0.2879
  893TIP3    H126874   6.050   2.995  21.193 -0.7103 -0.9823  0.8770
  893TIP3    H226875   6.016   2.991  21.045  0.8351  0.9727  0.4281
  894TIP3   OH226876   2.991   5.157  19.616  0.3782 -0.1294 -0.1781
  894TIP3    H126877   2.900   5.140  19.592  0.4704 -1.6137  0.4244
  894TIP3    H226878   2.989   5.168  19.712  0.7054  0.8728 -0.2677
  895TIP3   OH226879   3.582   2.101  21.230 -0.2471  0.4919  0.6025
  895TIP3    H126880   3.607   2.011  21.252 -0.4487 -0.0479 -1.2550
  895TIP3    H226881   3.506   2.119  21.285 -0.0127 -0.3550  1.2243
  896TIP3   OH226882   6.444   1.321  19.288 -0.3000 -0.0640  0.5058
  896TIP3    H126883   6.501   1.248  19.266 -1.3884  0.0589 -3.4140
  896TIP3    H226884   6.357   1.282  19.295 -0.4302  0.4120  2.0549
  897TIP3   OH226885   5.270   2.302  18.476  0.3054  0.1292 -0.1470
  897TIP3    H126886   5.188   2.252  18.478 -0.0656  0.5786  3.7810
  897TIP3    H226887   5.243   2.392  18.457 -0.3331  0.4528  2.0639
  898TIP3   OH226888   3.872   1.979  20.909 -0.1456  0.1586  0.0678
  898TIP3    H126889   3.909   1.941  20.988  0.8234  0.6231 -0.1341
  898TIP3    H226890   3.793   2.024  20.938 -0.1549 -0.2306  0.6535
  899TIP3   OH226891   4.072   5.965  19.866 -0.0915  0.0358  0.4674
  899TIP3    H126892   3.988   6.010  19.852 -0.0604 -0.0728 -0.0883
  899TIP3    H226893   4.136   6.019  19.819 -0.4336 -1.9586 -2.5780
  900TIP3   OH226894   6.154   0.639  18.462  0.2385 -0.5665  0.1104
  900TIP3    H126895   6.068   0.606  18.486 -0.9965  0.8834 -1.9807
  900TIP3    H226896   6.197   0.565  18.419  0.5042 -1.6182  2.0923
  901TIP3   OH226897   5.743   3.884  21.235 -0.5363  0.1871  0.0514
  901TIP3    H126898   5.775   3.815  21.176  0.1165 -0.6472  1.3263
  901TIP3    H226899   5.650   3.864  21.246 -0.5637  0.0835 -0.3228
  902TIP3   OH226900   6.406   5.397  18.889 -0.6647 -0.2060 -0.4076
  902TIP3    H126901   6.473   5.329  18.887 -1.6875 -1.2574  0.1971
  902TIP3    H226902   6.447   5.469  18.937 -0.1196 -1.0140  0.3714
  903TIP3   OH226903   1.159   0.165  19.547 -0.3637 -0.6234 -0.6114
  903TIP3    H126904   1.217   0.145  19.474 -0.5652 -0.3231 -0.8537
  903TIP3    H226905   1.113   0.244  19.520  0.4268  0.1913  0.3334
  904TIP3   OH226906   6.273   0.465  18.307 -0.8688 -0.0427 -0.0647
  904TIP3    H126907   6.325   0.396  18.349  0.1644 -0.2254 -1.5584
  904TIP3    H226908   6.288   0.452  18.214 -0.0425  2.6684 -0.3753
  905TIP3   OH226909   2.247   5.882  19.725  0.3220 -0.5749 -0.7119
  905TIP3    H126910   2.316   5.921  19.779 -0.3038  1.6991 -1.4256
  905TIP3    H226911   2.291   5.815  19.675  1.7158 -0.1603 -0.0959
  906TIP3   OH226912   4.543   3.354  20.699 -0.5001 -0.2859 -0.3625
  906TIP3    H126913   4.511   3.423  20.640  0.0666  1.4378  1.2474
  906TIP3    H226914   4.635   3.375  20.714 -0.8276 -0.1299  1.7927
  907TIP3   OH226915   0.240   3.353  18.270  0.1822  0.8614 -0.2054
  907TIP3    H126916   0.235   3.380  18.179 -2.4954  0.3841 -0.2988
  907TIP3    H226917   0.187   3.418  18.317 -1.3194 -0.7206  0.4258
  908TIP3   OH226918   6.065   4.355  18.548 -0.0592  0.1387 -0.1452
  908TIP3    H126919   6.121   4.357  18.471 -0.1444  1.8482 -0.1926
  908TIP3    H226920   5.992   4.299  18.522 -0.3535  1.0944 -1.5278
  909TIP3   OH226921   3.417   4.334  19.699 -0.3194 -0.3965 -0.1718
  909TIP3    H126922   3.434   4.242  19.718 -1.0912 -0.6032 -0.4370
  909TIP3    H226923   3.429   4.342  19.604  0.5412 -0.0342 -0.0476
  910TIP3   OH226924   4.251   5.525  19.292  0.1699 -0.0596 -0.7303
  910TIP3    H126925   4.320   5.461  19.272  0.1100 -0.2040 -0.4848
  910TIP3    H226926   4.260   5.592  19.225  2.2670  1.3054  0.8260
  911TIP3   OH226927   1.372   5.316  19.832 -0.1406  0.2970  0.3642
  911TIP3    H126928   1.281   5.294  19.812  0.2621 -1.0968 -0.0190
  911TIP3    H226929   1.422   5.281  19.758  0.4745  3.6966 -1.0056
  912TIP3   OH226930   1.800   5.660  19.369  0.4347 -0.5672  0.1304
  912TIP3    H126931   1.767   5.736  19.321 -0.7137 -1.4181 -0.5033
  912TIP3    H226932   1.893   5.677  19.380  0.6657 -0.0847 -2.0023
  913TIP3   OH226933   2.693   4.299  18.763 -0.3887  0.1435 -0.0864
  913TIP3    H126934   2.600   4.280  18.778 -0.6518  2.0002  1.1250
  913TIP3    H226935   2.736   4.271  18.844 -0.3460  1.6615  0.4626
  914TIP3   OH226936   0.547   3.185  19.181 -0.4123  0.3699 -0.1280
  914TIP3    H126937   0.512   3.178  19.270  1.9859  0.4337  0.8910
  914TIP3    H226938   0.591   3.102  19.166  0.2134  0.8110 -0.7944
  915TIP3   OH226939   3.063   2.646  18.803 -0.0531  0.3097  0.2222
  915TIP3    H126940   3.090   2.569  18.853 -1.3433 -0.0245  0.4286
  915TIP3    H226941   3.134   2.708  18.816  0.5036 -0.4477  0.9413
  916TIP3   OH226942   0.641   4.615  20.448  0.2495 -0.1655 -0.2527
  916TIP3    H126943   0.654   4.524  20.475  0.5108  0.0588  0.3810
  916TIP3    H226944   0.720   4.660  20.478  0.3759  0.1641 -1.0564
  917TIP3   OH226945   2.254   1.787  20.253 -0.0167  0.1073  0.0224
  917TIP3    H126946   2.314   1.771  20.180 -0.5782  0.3453 -0.4998
  917TIP3    H226947   2.198   1.710  20.255 -0.9636  0.7488 -0.7600
  918TIP3   OH226948   1.686   5.500  20.939  0.5112  0.7097 -0.0367
  918TIP3    H126949   1.673   5.514  21.032 -0.9436 -0.4932 -0.0161
  918TIP3    H226950   1.629   5.564  20.896 -1.2343 -0.7746 -0.0249
  919TIP3   OH226951   1.421   2.127  21.027  0.3319 -0.2700 -0.2356
  919TIP3    H126952   1.425   2.214  20.987  0.7386  0.6484  1.6752
  919TIP3    H226953   1.493   2.126  21.090 -1.0960 -1.1052  1.4523
  920TIP3   OH226954   3.564   0.399  19.880  0.4161 -0.9461 -0.4545
  920TIP3    H126955   3.491   0.338  19.866  0.4948 -0.9019 -1.0919
  920TIP3    H226956   3.554   0.464  19.810  0.2628 -0.1577  0.2896
  921TIP3   OH226957   4.165   5.993  19.345 -0.2642 -0.1803  0.2614
  921TIP3    H126958   4.196   5.906  19.370  0.6348  0.4169  1.3169
  921TIP3    H226959   4.181   6.048  19.422  0.1950  1.1532 -0.7435
  922TIP3   OH226960   4.686   6.373  21.030  0.4430 -0.5190  0.0178
  922TIP3    H126961   4.667   6.279  21.035 -0.4488 -0.6197 -3.1241
  922TIP3    H226962   4.619   6.414  21.084  1.2615 -1.6640  1.9947
  923TIP3   OH226963   5.309   3.039  19.298 -0.3744  0.3158 -0.7378
  923TIP3    H126964   5.285   2.959  19.252 -0.6101 -0.1627  0.1930
  923TIP3    H226965   5.300   3.017  19.391 -0.8359  1.5446 -0.4733
  924TIP3   OH226966   0.592   0.193  19.218 -0.1197 -0.0770  0.7544
  924TIP3    H126967   0.505   0.170  19.185  0.9204  1.1024 -3.2992
  924TIP3    H226968   0.599   0.287  19.203  2.3493 -0.3792 -0.3639
  925TIP3   OH226969   6.562   4.365  20.292  0.7181 -0.7197  0.2077
  925TIP3    H126970   6.586   4.409  20.373  1.7984 -0.4370 -0.2494
  925TIP3    H226971   6.467   4.354  20.297  0.5298  0.9404  0.6782
  926TIP3   OH226972   1.918   4.435  20.771 -0.0955  0.7896 -0.0083
  926TIP3    H126973   1.984   4.402  20.709 -0.4586 -0.9748  0.4863
  926TIP3    H226974   1.931   4.383  20.850 -2.1225  0.3480  0.0853
  927TIP3   OH226975   0.363   0.577  20.768 -0.0101  0.5419  0.0587
  927TIP3    H126976   0.289   0.526  20.802  0.4450 -0.1182  0.0906
  927TIP3    H226977   0.380   0.540  20.681  3.2051 -2.6242  1.7501
  928TIP3   OH226978   4.569   1.779  18.537 -0.1169 -0.2171 -0.2898
  928TIP3    H126979   4.636   1.846  18.547  1.3316 -1.7904  1.3577
  928TIP3    H226980   4.605   1.719  18.472  0.2774 -1.2354  0.8282
  929TIP3   OH226981   0.385   4.697  20.375  0.0438  0.0609  0.0801
  929TIP3    H126982   0.456   4.659  20.425 -0.7085 -0.0499  1.0999
  929TIP3    H226983   0.392   4.791  20.390 -0.7545 -0.0384  1.2247
  930TIP3   OH226984   5.741   4.130  20.396 -0.0222 -0.5877  0.0354
  930TIP3    H126985   5.785   4.124  20.480 -3.0059  1.5039  1.9317
  930TIP3    H226986   5.675   4.060  20.398 -0.3795 -0.2671 -0.3795
  931TIP3   OH226987   0.697   4.652  19.033  0.9998 -0.2382  0.3381
  931TIP3    H126988   0.746   4.700  18.966  1.2687 -0.2292  0.5400
  931TIP3    H226989   0.674   4.569  18.991  0.7106 -0.0179  0.0553
  932TIP3   OH226990   3.153   3.669  20.380  0.0834 -0.5326 -0.3122
  932TIP3    H126991   3.063   3.691  20.406  0.7532  1.4233  0.5910
  932TIP3    H226992   3.149   3.658  20.285 -1.4212 -2.3164 -0.0939
  933TIP3   OH226993   2.945   6.135  18.952 -0.4218  0.8330 -0.3432
  933TIP3    H126994   2.917   6.159  19.040  0.8209  1.9081 -0.2154
  933TIP3    H226995   3.027   6.089  18.964 -1.5041 -1.3208 -0.7961
  934TIP3   OH226996   1.557   3.079  20.148  0.1019 -0.1110  0.3362
  934TIP3    H126997   1.598   3.003  20.189 -1.1542 -1.0558 -0.0762
  934TIP3    H226998   1.463   3.059  20.148 -0.1729  1.0204 -0.6230
  935TIP3   OH226999   1.879   2.458  18.064 -0.1589 -0.3030 -0.3397
  935TIP3    H127000   1.964   2.501  18.059  0.3249 -1.1043  0.5967
  935TIP3    H227001   1.872   2.407  17.984  0.7735 -1.1700  0.1230
  936TIP3   OH227002   4.689   0.560  18.090 -0.7442  0.2730  0.9788
  936TIP3    H127003   4.679   0.636  18.146  0.6188  0.5132  0.9230
  936TIP3    H227004   4.781   0.536  18.097 -0.1012  1.2312 -2.2945
  937TIP3   OH227005   4.576   3.690  20.046 -0.4096  0.3790 -0.9188
  937TIP3    H127006   4.666   3.695  20.014  0.5487 -1.4277  1.2034
  937TIP3    H227007   4.546   3.603  20.020  0.1102 -0.8170  2.1052
  938TIP3   OH227008   6.509   4.575  19.697 -0.6286 -0.2351 -0.1065
  938TIP3    H127009   6.484   4.606  19.784 -1.0049  0.0310 -0.3066
  938TIP3    H227010   6.426   4.549  19.657 -0.3389 -1.4234  0.0267
  939TIP3   OH227011   4.581   0.283  18.958  0.0663  0.1287  1.0325
  939TIP3    H127012   4.527   0.329  18.893 -0.4360  0.4259  1.6596
  939TIP3    H227013   4.648   0.346  18.983  0.5288 -0.1361  0.4825
  940TIP3   OH227014   0.615   1.941  19.280  0.4560  0.1670  0.0695
  940TIP3    H127015   0.619   1.850  19.252 -0.2580  0.2051 -0.2015
  940TIP3    H227016   0.706   1.968  19.288  0.6955 -0.9362  1.3897
  941TIP3   OH227017   2.772   5.286  19.969 -0.0372  0.2467  0.0770
  941TIP3    H127018   2.727   5.249  19.894  0.5885 -1.8756  0.6937
  941TIP3    H227019   2.702   5.327  20.021 -0.4857  1.6459 -1.5355
  942TIP3   OH227020   3.842   5.361  19.175  0.3674  0.0950 -0.6361
  942TIP3    H127021   3.909   5.426  19.197 -0.7455  0.9623  0.3292
  942TIP3    H227022   3.769   5.383  19.233  0.2737 -2.5844  0.3813
  943TIP3   OH227023   0.114   3.823  21.244 -0.2691  0.0798  0.0760
  943TIP3    H127024   0.030   3.783  21.266 -0.3046 -1.0848 -1.9367
  943TIP3    H227025   0.174   3.749  21.236  1.2357  0.9605  2.4121
  944TIP3   OH227026   5.543   3.105  21.132  0.1046 -0.1536  0.2736
  944TIP3    H127027   5.555   3.010  21.136  1.3660 -0.0859 -0.8818
  944TIP3    H227028   5.620   3.136  21.085  0.4349  1.6125  1.8746
  945TIP3   OH227029   2.110   1.543  18.555  0.4568  0.3190  0.0186
  945TIP3    H127030   2.036   1.516  18.609  1.6070  3.5118  3.5834
  945TIP3    H227031   2.071   1.567  18.471 -2.6758  2.1286  1.8211
  946TIP3   OH227032   1.491   3.796  20.222 -0.1203  0.6152 -0.8422
  946TIP3    H127033   1.502   3.727  20.157  1.2270 -1.2677  1.2245
  946TIP3    H227034   1.559   3.778  20.287 -0.8227  2.9245  0.6446
  947TIP3   OH227035   2.807   0.054  18.637 -0.1824 -0.0717  0.0165
  947TIP3    H127036   2.747   0.070  18.564 -0.2372  0.3064  0.1406
  947TIP3    H227037   2.756   0.074  18.715 -0.3675 -1.2183  0.2107
  948TIP3   OH227038   5.213   4.915  19.280 -0.2335 -0.0232 -0.0761
  948TIP3    H127039   5.288   4.928  19.221  0.7489 -1.0572  0.9190
  948TIP3    H227040   5.223   4.825  19.312 -1.8902 -0.1616  0.1021
  949TIP3   OH227041   0.548   3.216  20.671 -0.2025  0.0002  0.1190
  949TIP3    H127042   0.633   3.241  20.635  0.7424  0.4409  2.4475
  949TIP3    H227043   0.558   3.123  20.693 -0.2351  0.1103  0.6051
  950TIP3   OH227044   0.982   4.991  17.732 -0.0505  0.2247 -0.1244
  950TIP3    H127045   1.037   5.009  17.655  1.3660 -0.1321  0.7547
  950TIP3    H227046   0.936   5.073  17.748 -1.2341 -0.0286 -1.9980
  951TIP3   OH227047   2.242   5.907  20.178  0.0053 -0.0400  0.5950
  951TIP3    H127048   2.183   5.857  20.121  0.1448  1.0438 -0.5263
  951TIP3    H227049   2.207   5.892  20.266 -1.1003 -0.5666  0.0935
  952TIP3   OH227050   5.945   4.744  20.594 -0.2720  0.3334 -0.3334
  952TIP3    H127051   5.954   4.840  20.594 -1.4679  0.4506 -0.1883
  952TIP3    H227052   6.027   4.713  20.555  0.6603  1.3586  0.7073
  953TIP3   OH227053   5.610   6.040  20.701 -0.0961 -0.1927 -0.0214
  953TIP3    H127054   5.588   6.073  20.789  0.4832  1.3406 -0.4106
  953TIP3    H227055   5.623   5.946  20.713 -1.1472 -0.2016  1.3052
  954TIP3   OH227056   2.658   3.644  18.177  0.5729 -0.8063 -0.2824
  954TIP3    H127057   2.669   3.571  18.115  0.7608 -1.1464  0.1504
  954TIP3    H227058   2.694   3.720  18.130 -0.2051 -0.8611 -0.9842
  955TIP3   OH227059   0.124   2.359  20.985  0.6183 -0.1913  0.8793
  955TIP3    H127060   0.071   2.310  20.923  1.3800  0.3260 -0.2209
  955TIP3    H227061   0.061   2.401  21.043 -0.1568 -0.0747 -0.0234
  956TIP3   OH227062   6.240   0.654  19.471  0.1106 -0.3454  0.2268
  956TIP3    H127063   6.215   0.572  19.430  0.0900  0.1378 -0.7484
  956TIP3    H227064   6.334   0.644  19.490 -0.1811 -1.1041  1.3836
  957TIP3   OH227065   0.224   5.914  20.111 -0.1624 -0.2453 -0.1538
  957TIP3    H127066   0.254   6.004  20.099 -1.1494  0.0484 -0.5666
  957TIP3    H227067   0.303   5.864  20.132  0.5915  0.5009 -1.1022
  958TIP3   OH227068   4.331   2.492  19.680 -0.1578 -0.0269  0.3652
  958TIP3    H127069   4.322   2.400  19.656 -0.5339 -0.1160  0.8413
  958TIP3    H227070   4.342   2.491  19.775  1.3401  0.3236  0.2162
  959TIP3   OH227071   4.546   5.296  18.038  0.0168  0.0145  0.4864
  959TIP3    H127072   4.638   5.320  18.034 -0.3023  1.2465 -0.0419
  959TIP3    H227073   4.546   5.201  18.050  1.3457  0.2268  2.4507
  960TIP3   OH227074   1.684   5.860  20.036 -0.6358 -0.0461 -0.4193
  960TIP3    H127075   1.703   5.766  20.032 -0.4573 -0.0262 -0.0360
  960TIP3    H227076   1.750   5.896  20.095 -2.1634 -0.0547  1.3730
  961TIP3   OH227077   1.515   1.208  19.943  0.3263 -0.3079 -0.0865
  961TIP3    H127078   1.444   1.241  19.998 -1.5410 -0.5826 -2.2023
  961TIP3    H227079   1.571   1.160  20.004  0.4888  2.4850  2.2301
  962TIP3   OH227080   4.791   4.314  18.716 -0.4196 -0.0132  0.8183
  962TIP3    H127081   4.723   4.290  18.653 -1.2672  2.5869  0.6100
  962TIP3    H227082   4.864   4.346  18.663  0.2792 -1.0868  1.0975
  963TIP3   OH227083   5.783   0.746  19.756  0.4361 -0.0349 -0.8542
  963TIP3    H127084   5.766   0.688  19.830 -0.7812  0.6587 -0.5681
  963TIP3    H227085   5.857   0.705  19.711  0.1130 -1.3865 -0.2250
  964TIP3   OH227086   3.996   3.957  18.189  0.0470  0.2883  0.1649
  964TIP3    H127087   3.927   4.011  18.151 -1.1554 -1.5215 -0.3359
  964TIP3    H227088   4.076   4.009  18.177 -1.2472  2.6877  1.2683
  965TIP3   OH227089   1.097   2.058  10.653 -0.6958  0.2261  0.3061
  965TIP3    H127090   1.059   2.015  10.577 -1.5685  1.9238 -0.2427
  965TIP3    H227091   1.040   2.132  10.671  0.3151  0.7159  1.7250
  966TIP3   OH227092   1.881   5.373  19.558 -0.3556  0.0968 -0.1945
  966TIP3    H127093   1.885   5.291  19.509 -2.0884 -1.6192  2.2945
  966TIP3    H227094   1.811   5.423  19.516 -1.4546 -1.1066  0.1436
  967TIP3   OH227095   5.779   1.974  18.802  0.3710 -0.4102  0.6726
  967TIP3    H127096   5.789   2.026  18.723  0.0825 -0.8234  0.3651
  967TIP3    H227097   5.685   1.966  18.815  0.3783  1.0398  1.9776
  968TIP3   OH227098   5.649   3.145  19.482 -0.0043 -0.4388 -0.1228
  968TIP3    H127099   5.588   3.206  19.523  0.6274  0.1232 -0.0035
  968TIP3    H227100   5.645   3.067  19.536  0.8966  0.3269  1.0997
  969TIP3   OH227101   2.760   2.217  20.739  0.3336  0.1665  0.0475
  969TIP3    H127102   2.839   2.163  20.745 -1.3718 -2.3127  1.6575
  969TIP3    H227103   2.737   2.236  20.830 -1.7530 -0.5005 -0.2993
  970TIP3   OH227104   1.608   2.714  21.318 -0.7670 -0.4596  0.2337
  970TIP3    H127105   1.610   2.807  21.337 -2.9708 -0.1883 -0.5086
  970TIP3    H227106   1.632   2.671  21.400  3.0504  0.6766 -0.1050
  971TIP3   OH227107   4.935   0.921  19.478 -0.1759  0.0539 -0.4981
  971TIP3    H127108   4.877   0.992  19.508  2.1880  1.1725  1.8672
  971TIP3    H227109   5.016   0.966  19.452  0.7506 -1.6491 -0.6745
  972TIP3   OH227110   2.741   3.931  18.337  0.0363 -0.0028  0.2795
  972TIP3    H127111   2.774   4.011  18.378 -1.4249  1.3254 -0.9887
  972TIP3    H227112   2.744   3.950  18.243 -1.8856 -0.7885  0.0178
  973TIP3   OH227113   3.753   5.263  20.479 -0.4584  0.5852  0.7573
  973TIP3    H127114   3.684   5.301  20.424 -1.5183 -0.1911  1.4948
  973TIP3    H227115   3.835   5.293  20.440 -1.1353 -0.5398 -1.6827
  974TIP3   OH227116   0.052   2.494  18.533  0.3128 -0.2923  0.4155
  974TIP3    H127117   0.033   2.573  18.482 -0.5445 -0.0012  1.1650
  974TIP3    H227118   0.031   2.422  18.474  1.3467  0.0231 -0.3672
  975TIP3   OH227119   2.699   1.322  20.130 -0.0847  0.0159 -0.4807
  975TIP3    H127120   2.646   1.355  20.059 -1.9580 -1.2821  0.2347
  975TIP3    H227121   2.735   1.240  20.097  0.3375  0.1952 -0.4709
  976TIP3   OH227122   0.817   0.361  20.107 -0.1436 -0.0064  0.2441
  976TIP3    H127123   0.882   0.382  20.173  1.1908  1.5966 -1.4544
  976TIP3    H227124   0.859   0.294  20.053 -0.5436 -0.1077  0.0568
  977TIP3   OH227125   4.765   4.987  21.016  0.3316 -0.8457 -0.2490
  977TIP3    H127126   4.820   4.947  21.084  1.3280  0.1465 -0.4239
  977TIP3    H227127   4.826   5.041  20.966 -0.9373  0.9310  0.0219
  978TIP3   OH227128   1.953   6.423  19.292  0.2235 -0.5809 -0.2919
  978TIP3    H127129   1.941   6.516  19.274  0.8591 -0.6191 -0.9697
  978TIP3    H227130   1.878   6.380  19.250  1.1450 -0.5723 -2.0223
  979TIP3   OH227131   1.850   2.228  21.447 -0.5950  0.0705 -0.0847
  979TIP3    H127132   1.924   2.253  21.392 -0.0428 -1.1893  0.0434
  979TIP3    H227133   1.842   2.300  21.510 -0.8752  1.2586 -1.4153
  980TIP3   OH227134   4.177   6.501  18.143 -0.4210  0.2865  0.1566
  980TIP3    H127135   4.262   6.480  18.181 -0.1567 -0.6350 -0.9128
  980TIP3    H227136   4.189   6.586  18.100 -0.3748  0.7061  0.9662
  981TIP3   OH227137   4.127   0.495  19.540 -0.4777  0.5500 -0.8642
  981TIP3    H127138   4.140   0.439  19.463 -0.7650  1.4670 -1.5888
  981TIP3    H227139   4.032   0.506  19.545 -0.4227  0.9487 -0.7025
  982TIP3   OH227140   0.820   0.836  17.870  0.1054  0.2165  0.0592
  982TIP3    H127141   0.744   0.779  17.883  0.0822  0.2961  0.2770
  982TIP3    H227142   0.783   0.923  17.854  0.1536  0.3358  0.5580
  983TIP3   OH227143   1.208   0.836  19.681 -0.6833  0.8055  0.1290
  983TIP3    H127144   1.270   0.907  19.668 -2.1684  1.9690 -0.9138
  983TIP3    H227145   1.261   0.762  19.711  0.7907  2.6058  2.2167
  984TIP3   OH227146   1.323   6.180  20.038  0.1148  0.7216 -0.4819
  984TIP3    H127147   1.340   6.140  19.953  1.0800 -0.9922  0.4503
  984TIP3    H227148   1.403   6.164  20.089 -1.6931 -1.6147  1.9100
  985TIP3   OH227149   2.560   4.834  17.927 -0.6456 -0.0372 -0.1027
  985TIP3    H127150   2.472   4.835  17.890 -0.6449  2.5492 -0.2227
  985TIP3    H227151   2.618   4.854  17.853 -0.1353  0.0496  0.3123
  986TIP3   OH227152   4.666   2.140  18.770 -0.1727  0.1263 -0.2218
  986TIP3    H127153   4.619   2.204  18.715  0.1644  0.9257  0.3941
  986TIP3    H227154   4.656   2.174  18.859  0.8026 -0.1805  0.0134
  987TIP3   OH227155   3.242   0.020  20.848 -0.2694  0.9137 -0.2546
  987TIP3    H127156   3.240   0.095  20.789 -2.5130  0.4245 -0.8715
  987TIP3    H227157   3.314   0.039  20.908  0.9665  2.2427 -2.0596
  988TIP3   OH227158   1.393   5.806  19.815 -0.0992 -0.7660  0.7302
  988TIP3    H127159   1.352   5.769  19.737 -1.1028  0.9565  0.4033
  988TIP3    H227160   1.320   5.836  19.869  0.6552  1.1302  0.7613
  989TIP3   OH227161   3.867   3.210  18.903  0.3620  0.9742 -0.4007
  989TIP3    H127162   3.907   3.153  18.838  1.9898  0.3378  1.0766
  989TIP3    H227163   3.907   3.296  18.888  1.2329  0.6733  0.1630
  990TIP3   OH227164   1.504   1.697  19.161 -0.4015 -0.0578 -0.7401
  990TIP3    H127165   1.554   1.699  19.079 -0.6469  1.3143 -0.8853
  990TIP3    H227166   1.522   1.611  19.198  4.1097  1.1441  0.4970
  991TIP3   OH227167   6.319   1.184  18.564  0.2607 -0.0028  0.8295
  991TIP3    H127168   6.369   1.172  18.645  1.7166 -1.1846 -0.1691
  991TIP3    H227169   6.355   1.118  18.505 -1.0522  0.5557 -0.6544
  992TIP3   OH227170   3.669   0.559  18.847  0.5164 -0.0529  0.3429
  992TIP3    H127171   3.578   0.549  18.820 -0.2990 -1.0893  3.0993
  992TIP3    H227172   3.696   0.643  18.811 -1.3277  0.0071 -1.0330
  993TIP3   OH227173   0.754   4.344  20.794 -0.3677 -0.1473 -0.2954
  993TIP3    H127174   0.664   4.315  20.780 -0.6032  0.7512 -0.7268
  993TIP3    H227175   0.784   4.295  20.871 -0.4733 -2.0580 -1.4162
  994TIP3   OH227176   1.455   2.033  18.623 -0.5932  0.4003 -0.1495
  994TIP3    H127177   1.445   2.089  18.700 -0.1267  1.2397 -0.6805
  994TIP3    H227178   1.544   1.997  18.631 -0.5782  0.4166 -0.2406
  995TIP3   OH227179   2.343   1.092  19.351  0.4232 -0.1965  0.0973
  995TIP3    H127180   2.430   1.124  19.325  0.1142  0.0901 -0.6099
  995TIP3    H227181   2.293   1.171  19.369  0.5395 -0.3848  1.3114
  996TIP3   OH227182   4.877   1.382  19.707  0.1136 -0.3255  0.7311
  996TIP3    H127183   4.846   1.328  19.780  0.9076  0.1266  1.4267
  996TIP3    H227184   4.879   1.471  19.743  0.5185 -0.0954  0.1492
  997TIP3   OH227185   6.395   4.224  19.458 -0.2548  0.1776  0.6103
  997TIP3    H127186   6.461   4.197  19.522 -0.0322  0.0875  0.3463
  997TIP3    H227187   6.422   4.181  19.376 -0.6663  0.1015  0.5114
  998TIP3   OH227188   0.313   3.171  21.029 -0.2105 -0.9942 -0.1132
  998TIP3    H127189   0.304   3.078  21.048  1.4022 -0.9815  0.8311
  998TIP3    H227190   0.355   3.208  21.106  0.8512  0.1889 -1.2139
  999TIP3   OH227191   4.071   4.802  20.073  0.4071  0.6507 -0.2744
  999TIP3    H127192   4.037   4.724  20.117  0.1218  0.7656 -0.2834
  999TIP3    H227193   4.013   4.813  19.998  0.3482  0.9636 -0.1819
 1000TIP3   OH227194   3.763   6.404  18.521  0.0561  0.0092 -0.2774
 1000TIP3    H127195   3.678   6.403  18.477  0.6007 -1.2921 -1.3557
 1000TIP3    H227196   3.827   6.397  18.451  1.0238 -0.1473  0.5962
 1001TIP3   OH227197   2.632   1.791  21.147 -0.4656  0.8489 -0.0299
 1001TIP3    H127198   2.654   1.878  21.181  1.1597  0.0784  1.0113
 1001TIP3    H227199   2.674   1.788  21.061 -0.8216  1.1876 -0.2245
 1002TIP3   OH227200   1.965   2.024  19.412  0.1998 -0.4966 -0.0716
 1002TIP3    H127201   2.018   2.104  19.415  0.0617 -0.4140  0.1720
 1002TIP3    H227202   1.976   1.985  19.499 -2.0331  0.7454  0.8352
 1003TIP3   OH227203   5.226   3.238  18.028 -0.0505  0.2134  0.0006
 1003TIP3    H127204   5.156   3.286  17.985  1.3601  0.6525 -1.9255
 1003TIP3    H227205   5.205   3.146  18.013  0.1945  0.3566 -1.3303
 1004TIP3   OH227206   2.633   4.837  18.351 -0.1807 -0.9249  0.1497
 1004TIP3    H127207   2.619   4.767  18.415  1.5355 -2.1894 -0.7808
 1004TIP3    H227208   2.662   4.912  18.404  2.6426 -2.3621  0.8659
 1005TIP3   OH227209   4.506   0.091  20.936 -0.4552 -0.8421  0.2505
 1005TIP3    H127210   4.589   0.133  20.956 -0.3222 -1.4219  0.9875
 1005TIP3    H227211   4.449   0.162  20.907  0.1810 -0.3815  0.1191
 1006TIP3   OH227212   5.580   5.874  18.366 -0.2462 -0.4382  0.1140
 1006TIP3    H127213   5.523   5.947  18.341  0.0636 -0.7120 -1.4762
 1006TIP3    H227214   5.520   5.800  18.378 -0.5399  0.0110  1.5473
 1007TIP3   OH227215   4.040   1.263  20.471  0.0181  0.2475  0.2267
 1007TIP3    H127216   4.108   1.197  20.487 -0.6155 -0.2576  0.8431
 1007TIP3    H227217   3.969   1.214  20.430 -1.1327  0.1976  2.2007
 1008TIP3   OH227218   1.777   3.708  20.807  0.2769 -0.3798  0.1948
 1008TIP3    H127219   1.848   3.746  20.754 -0.5978 -1.0264 -1.5309
 1008TIP3    H227220   1.811   3.623  20.835  1.2643  0.5229  1.9009
 1009TIP3   OH227221   1.232   0.692  19.409  0.0690 -0.2403  0.5136
 1009TIP3    H127222   1.220   0.745  19.488 -0.0287 -0.7624  0.8490
 1009TIP3    H227223   1.327   0.676  19.405  0.0621 -0.2951  0.5747
 1010TIP3   OH227224   5.609   5.693  19.110 -0.2547 -0.7042  0.2932
 1010TIP3    H127225   5.671   5.740  19.166  0.7259 -1.1068 -0.4311
 1010TIP3    H227226   5.590   5.755  19.039  0.6148 -1.1895 -0.3706
 1011TIP3   OH227227   3.852   5.433  18.911  0.1403  0.1199 -0.0050
 1011TIP3    H127228   3.828   5.399  18.997 -0.1228 -0.6468 -0.3729
 1011TIP3    H227229   3.899   5.514  18.929 -0.3079  0.1951  0.8368
 1012TIP3   OH227230   4.951   2.194  20.779  0.4162 -0.1090 -0.2918
 1012TIP3    H127231   4.966   2.107  20.816 -0.0239 -0.0683 -0.0154
 1012TIP3    H227232   4.994   2.254  20.841  0.1683 -0.0827 -0.1455
 1013TIP3   OH227233   1.977   4.661  20.890  0.6541  0.4658  0.1420
 1013TIP3    H127234   1.932   4.578  20.874  1.5332  0.1799 -0.9482
 1013TIP3    H227235   2.037   4.671  20.816  0.3746  2.2137  0.1053
 1014TIP3   OH227236   1.165   4.161  21.217 -0.1574  0.6767  0.1491
 1014TIP3    H127237   1.255   4.160  21.249 -0.3456  0.0706  0.6727
 1014TIP3    H227238   1.165   4.227  21.147  0.9915 -0.2155 -0.7307
 1015TIP3   OH227239   4.450   5.957  19.742  0.4414  0.1244  0.2450
 1015TIP3    H127240   4.388   5.887  19.759  1.1867 -0.1935  1.8443
 1015TIP3    H227241   4.524   5.914  19.699  1.1905 -0.2380  1.8325
 1016TIP3   OH227242   5.026   1.527  21.283  0.3351 -0.0879  0.4206
 1016TIP3    H127243   4.977   1.508  21.363 -0.7486  1.6877  0.2052
 1016TIP3    H227244   5.113   1.553  21.315  0.6353 -1.5331  0.8795
 1017TIP3   OH227245   5.596   2.492  21.214  0.2645 -0.2161 -0.3047
 1017TIP3    H127246   5.524   2.487  21.277 -0.0186 -1.1328 -0.6737
 1017TIP3    H227247   5.551   2.491  21.129  0.6890 -0.0770 -0.5290
 1018TIP3   OH227248   4.131   1.024  18.420  0.0754  0.4762  0.0487
 1018TIP3    H127249   4.067   0.958  18.448 -0.2123  1.1803  1.0876
 1018TIP3    H227250   4.215   0.990  18.450  0.4241 -1.0626 -2.3895
 1019TIP3   OH227251   3.807   1.726  19.906 -0.0890 -0.1381  0.8082
 1019TIP3    H127252   3.806   1.668  19.830 -0.8814 -0.9001  1.3842
 1019TIP3    H227253   3.760   1.804  19.877 -0.8335 -0.6351  0.6725
 1020TIP3   OH227254   6.275   4.397  20.359 -1.0557 -0.4373  0.2167
 1020TIP3    H127255   6.283   4.315  20.311  0.9461 -1.1614  1.6232
 1020TIP3    H227256   6.225   4.374  20.437 -0.8181 -0.2496  0.4277
 1021TIP3   OH227257   4.062   0.637  20.820  0.3246 -0.7038 -0.2988
 1021TIP3    H127258   4.141   0.691  20.823  0.4639 -0.7328 -2.0970
 1021TIP3    H227259   3.990   0.700  20.823  0.4120 -0.6394  0.7482
 1022TIP3   OH227260   2.077   4.304  19.361 -0.2306  0.1886 -0.1873
 1022TIP3    H127261   2.129   4.325  19.439 -0.2881 -0.9676  0.1849
 1022TIP3    H227262   1.997   4.355  19.371 -0.0048  0.4724  0.2270
 1023TIP3   OH227263   2.657   0.376  18.646 -0.0546 -0.2788 -0.3637
 1023TIP3    H127264   2.726   0.325  18.688 -0.5335 -1.5558 -1.0548
 1023TIP3    H227265   2.695   0.464  18.634  0.8967 -0.5453  0.6000
 1024TIP3   OH227266   0.565   2.388  19.551  0.4786 -0.1238  0.0389
 1024TIP3    H127267   0.490   2.329  19.550  1.5072 -1.4848 -0.4430
 1024TIP3    H227268   0.566   2.426  19.639 -1.0414  0.3172 -0.1114
 1025TIP3   OH227269   1.210   1.296  20.389  0.0338 -0.4704 -0.2517
 1025TIP3    H127270   1.123   1.328  20.364  0.0318 -0.6266 -0.4503
 1025TIP3    H227271   1.194   1.238  20.464  0.0981  0.4159  0.4579
 1026TIP3   OH227272   3.458   1.705  20.433  0.5110 -0.4380  0.0346
 1026TIP3    H127273   3.457   1.684  20.340 -0.9867  0.0961 -0.0920
 1026TIP3    H227274   3.547   1.734  20.450  0.9957 -1.1907 -1.0712
 1027TIP3   OH227275   3.962   3.348  18.175  0.0094 -0.4191  0.3617
 1027TIP3    H127276   4.044   3.393  18.193 -0.2126 -0.6759  2.1601
 1027TIP3    H227277   3.896   3.417  18.173  0.2810 -0.1596 -1.5052
 1028TIP3   OH227278   5.775   4.964  19.170  0.1655  0.5405 -0.4008
 1028TIP3    H127279   5.832   5.039  19.154  0.8404  0.3146  0.8428
 1028TIP3    H227280   5.793   4.939  19.260 -0.7233 -0.5527 -0.5090
 1029TIP3   OH227281   4.931   5.932  20.144  0.2179 -0.3443 -0.1067
 1029TIP3    H127282   4.967   5.997  20.205 -0.8225  0.9749 -0.8329
 1029TIP3    H227283   4.840   5.921  20.170 -0.0493 -0.2927 -0.9657
 1030TIP3   OH227284   4.402   3.090  19.670  0.3529 -0.1870 -0.1949
 1030TIP3    H127285   4.463   3.164  19.673  0.7825 -0.5074 -0.8873
 1030TIP3    H227286   4.411   3.049  19.757  1.8834 -0.8147 -0.6098
 1031TIP3   OH227287   0.867   6.259  19.594  0.1656 -0.2278  0.3965
 1031TIP3    H127288   0.825   6.195  19.536 -0.1160  0.9608 -0.7714
 1031TIP3    H227289   0.862   6.219  19.681 -1.0603 -1.2654 -0.1075
 1032TIP3   OH227290   3.490   5.227  18.413  0.3479  0.0448 -0.0637
 1032TIP3    H127291   3.489   5.186  18.326  1.3498  0.9069 -0.5061
 1032TIP3    H227292   3.583   5.246  18.429 -0.0006  1.4068  0.4720
 1033TIP3   OH227293   0.820   0.099  20.653  0.0457 -0.5350  0.6370
 1033TIP3    H127294   0.746   0.156  20.676  0.1245 -0.8182  1.6213
 1033TIP3    H227295   0.849   0.132  20.568 -1.6000 -0.8103 -0.0783
 1034TIP3   OH227296   6.053   3.289  20.019 -0.0158  0.2790 -0.0515
 1034TIP3    H127297   6.141   3.319  20.043 -0.0233  1.4622 -1.3724
 1034TIP3    H227298   6.059   3.193  20.020  1.9937  0.2867 -2.3878
 1035TIP3   OH227299   2.252   1.830  17.578 -0.0825 -0.2039 -0.4980
 1035TIP3    H127300   2.164   1.856  17.606  1.2414  2.1342  1.9551
 1035TIP3    H227301   2.272   1.890  17.505  0.7160  1.8122  1.2755
 1036TIP3   OH227302   2.987   6.170  18.272  0.2060  0.7201 -0.3298
 1036TIP3    H127303   2.936   6.170  18.191 -2.3156  1.8515  1.1421
 1036TIP3    H227304   2.961   6.090  18.317  2.2288 -0.3444 -0.9020
 1037TIP3   OH227305   6.179   1.498  20.880  0.3743  0.6374  0.2104
 1037TIP3    H127306   6.193   1.571  20.821 -0.7731  1.2476  0.6619
 1037TIP3    H227307   6.220   1.525  20.962  0.9673  0.2746  0.0371
 1038TIP3   OH227308   4.499   1.815  20.656  0.6189  0.1383 -0.2785
 1038TIP3    H127309   4.429   1.878  20.639  0.5670  0.2456  0.3034
 1038TIP3    H227310   4.565   1.865  20.703 -0.8562 -0.9179  3.2713
 1039TIP3   OH227311   3.516   5.941  19.143  0.4625  0.2006 -0.0374
 1039TIP3    H127312   3.452   6.006  19.171  0.6113  0.1858  0.3429
 1039TIP3    H227313   3.587   5.948  19.206  0.6243 -0.1095 -0.1795
 1040TIP3   OH227314   2.312   1.359  19.975 -0.1142  0.0375 -0.1139
 1040TIP3    H127315   2.377   1.303  19.933 -1.9585 -1.2372 -1.4171
 1040TIP3    H227316   2.242   1.300  20.001 -1.1284  1.4499  0.5343
 1041TIP3   OH227317   0.448   3.905  18.403  0.0764 -0.2548  0.3946
 1041TIP3    H127318   0.364   3.904  18.356  0.4588  0.5733 -0.3492
 1041TIP3    H227319   0.426   3.926  18.493 -0.4242  1.1423 -0.0378
 1042TIP3   OH227320   4.885   3.048  20.772  0.1034 -0.7890 -0.0739
 1042TIP3    H127321   4.896   3.113  20.842  1.4739  0.1019 -1.0741
 1042TIP3    H227322   4.891   2.963  20.817  2.2646 -0.2543  0.7465
 1043TIP3   OH227323   2.711   3.470  17.558 -0.4938  0.3656  1.0293
 1043TIP3    H127324   2.803   3.472  17.584 -0.7723  0.1671  2.0810
 1043TIP3    H227325   2.694   3.379  17.535 -0.1022  0.6403 -0.4768
 1044TIP3   OH227326   2.047   0.941  18.867 -0.2885 -1.0741 -0.3303
 1044TIP3    H127327   2.118   0.962  18.807  0.8656  1.6523  1.7600
 1044TIP3    H227328   2.084   0.878  18.928  0.4244  0.3001  0.7204
 1045TIP3   OH227329   4.938   1.256  18.815 -0.2462 -0.1043 -0.4818
 1045TIP3    H127330   4.905   1.332  18.863 -2.2271 -1.3203  0.2040
 1045TIP3    H227331   5.030   1.250  18.838 -0.7983  0.2186  2.0340
 1046TIP3   OH227332   6.304   0.028  21.255 -0.3925  0.4313  0.4030
 1046TIP3    H127333   6.376   0.069  21.302  1.2239 -0.1775 -1.3651
 1046TIP3    H227334   6.291   0.083  21.178 -2.8745  1.3343  1.3610
 1047TIP3   OH227335   3.841   5.598  20.431  0.3274  0.0253 -0.0891
 1047TIP3    H127336   3.872   5.528  20.374 -0.0445 -0.4905  0.3334
 1047TIP3    H227337   3.761   5.563  20.472 -0.0507  0.8187 -0.1259
 1048TIP3   OH227338   0.140   3.096  18.887 -0.0290  0.1191  0.2588
 1048TIP3    H127339   0.093   3.014  18.908 -0.8021  0.8619  1.5679
 1048TIP3    H227340   0.219   3.092  18.940  1.3200 -0.9670 -1.6861
 1049TIP3   OH227341   1.235   6.033  18.161 -0.2143 -0.0598  0.0386
 1049TIP3    H127342   1.162   6.047  18.101 -0.3324  0.9996  0.4155
 1049TIP3    H227343   1.193   6.005  18.243 -0.2228  0.8389  0.3446
 1050TIP3   OH227344   3.580   1.305  20.522  0.1764  0.6554  0.0432
 1050TIP3    H127345   3.660   1.351  20.498  0.0921 -0.1103 -1.8212
 1050TIP3    H227346   3.604   1.212  20.522 -0.5241  0.4622  0.2364
 1051TIP3   OH227347   0.495   4.300  20.419 -0.4602 -0.6241 -0.0872
 1051TIP3    H127348   0.580   4.333  20.448 -0.3223  0.0358 -1.2212
 1051TIP3    H227349   0.473   4.233  20.484  0.6528 -0.4058  0.5458
 1052TIP3   OH227350   3.035   6.582  18.760 -0.0779 -0.0668  0.1769
 1052TIP3    H127351   2.952   6.597  18.715  0.0641  1.1613  0.2990
 1052TIP3    H227352   3.045   6.487  18.760 -0.9639 -0.1771 -0.7730
 1053TIP3   OH227353   5.263   0.688  18.443  0.5373  0.4013 -0.1387
 1053TIP3    H127354   5.271   0.776  18.406  2.5829 -0.6424 -2.4688
 1053TIP3    H227355   5.170   0.678  18.461  0.1799  2.8371 -0.2041
 1054TIP3   OH227356   2.999   5.926  20.479 -0.2836 -0.1311 -0.3743
 1054TIP3    H127357   2.921   5.965  20.440 -0.5327  0.1235  0.3588
 1054TIP3    H227358   2.968   5.887  20.561  0.5064  0.6972  0.3361
 1055TIP3   OH227359   5.425   2.016  18.679 -0.0751  0.4965 -0.1775
 1055TIP3    H127360   5.367   1.960  18.729 -1.0971  0.6453 -1.1467
 1055TIP3    H227361   5.464   1.958  18.613  1.7368  0.1662  1.1122
 1056TIP3   OH227362   1.055   1.486  21.233  0.2026 -0.0064  0.2535
 1056TIP3    H127363   1.083   1.575  21.255 -1.6576  0.3832  1.2362
 1056TIP3    H227364   1.111   1.430  21.285  2.8928  0.3889 -1.9657
 1057TIP3   OH227365   0.549   2.709  19.324 -0.3074  0.3779 -0.2915
 1057TIP3    H127366   0.556   2.644  19.253  0.4567  1.2532 -1.0438
 1057TIP3    H227367   0.633   2.704  19.369 -0.6407  0.1200  0.3189
 1058TIP3   OH227368   1.921   5.911  20.607  0.3782 -0.1666 -0.2642
 1058TIP3    H127369   1.842   5.870  20.573  0.2465  0.3071 -0.5299
 1058TIP3    H227370   1.929   5.877  20.697  0.0853 -0.5050 -0.3638
 1059TIP3   OH227371   4.487   1.190  18.751  0.0315  0.4091  0.3322
 1059TIP3    H127372   4.576   1.160  18.732 -0.4859 -1.3134  0.4296
 1059TIP3    H227373   4.470   1.256  18.685 -0.0052 -2.0717 -2.3550
 1060TIP3   OH227374   1.283   1.855  20.481  0.2317  0.5479 -0.3389
 1060TIP3    H127375   1.372   1.840  20.449  0.5322 -1.2484  1.1733
 1060TIP3    H227376   1.252   1.768  20.506 -1.7707  1.2207 -0.3279
 1061TIP3   OH227377   0.677   6.374  18.401  0.1734  0.1141  0.0586
 1061TIP3    H127378   0.724   6.435  18.458  0.0021 -0.6479  1.0439
 1061TIP3    H227379   0.729   6.372  18.321  0.6882  0.8386  0.3577
 1062TIP3   OH227380   3.062   1.636  19.052  0.6178 -0.6657  0.3260
 1062TIP3    H127381   2.977   1.643  19.008  0.8276 -1.9854 -0.3350
 1062TIP3    H227382   3.124   1.674  18.990  0.4232  1.3141  1.2563
 1063TIP3   OH227383   0.883   4.023  18.289  0.1426 -0.5282 -0.1470
 1063TIP3    H127384   0.919   4.090  18.230  2.6065  0.0328  1.8093
 1063TIP3    H227385   0.920   4.045  18.374  0.5225 -4.0097  0.7171
 1064TIP3   OH227386   3.522   6.465  20.546  0.2942  0.2593 -0.5899
 1064TIP3    H127387   3.510   6.371  20.553 -3.9928  0.6836  3.5224
 1064TIP3    H227388   3.472   6.491  20.469 -0.1315 -0.7186 -0.6524
 1065TIP3   OH227389   3.500   2.894  17.511  0.0602  0.1330 -0.1228
 1065TIP3    H127390   3.446   2.852  17.444  0.6820  0.1131 -0.6248
 1065TIP3    H227391   3.583   2.913  17.466 -0.3446  2.2926 -0.0601
 1066TIP3   OH227392   1.226   5.896  20.178 -0.4169 -0.0488 -0.5026
 1066TIP3    H127393   1.185   5.890  20.092 -1.8696 -0.2206  0.1781
 1066TIP3    H227394   1.316   5.866  20.163 -0.7579 -0.4763 -1.8694
 1067TIP3   OH227395   5.743   6.189  19.980  0.3630 -0.5781  0.2737
 1067TIP3    H127396   5.654   6.159  19.994  0.1419 -0.8626 -1.4959
 1067TIP3    H227397   5.798   6.128  20.029 -0.3631 -0.8917  0.6997
 1068TIP3   OH227398   1.033   3.170  21.047 -0.1867  0.0782  0.8353
 1068TIP3    H127399   1.118   3.130  21.064 -0.2234 -0.6192 -0.4875
 1068TIP3    H227400   0.969   3.104  21.074 -0.2492 -0.7938 -1.2908
 1069TIP3   OH227401   1.793   1.205  21.417  0.3787 -0.2448  0.2582
 1069TIP3    H127402   1.774   1.132  21.475  3.3345 -0.8857  0.5547
 1069TIP3    H227403   1.724   1.269  21.437 -0.9973 -2.0123  1.5723
 1070TIP3   OH227404   0.573   0.728  19.340  0.2201  0.2882 -0.4917
 1070TIP3    H127405   0.484   0.764  19.344 -0.1027 -0.5581  0.3454
 1070TIP3    H227406   0.626   0.792  19.387 -0.0680  0.4660 -0.4063
 1071TIP3   OH227407   0.447   4.121  20.100  0.5839  0.0722 -0.0792
 1071TIP3    H127408   0.402   4.041  20.127 -0.6833 -0.5215 -3.4018
 1071TIP3    H227409   0.389   4.192  20.127  0.8617 -0.2261  1.3431
 1072TIP3   OH227410   0.761   1.849  19.747  0.3841  0.1688  0.4993
 1072TIP3    H127411   0.776   1.881  19.658  0.0185  0.1126  0.4134
 1072TIP3    H227412   0.848   1.832  19.782  0.5297  0.2026  0.1550
 1073TIP3   OH227413   3.189   0.007  19.746 -0.4390  0.1653 -0.4932
 1073TIP3    H127414   3.129  -0.066  19.762 -0.0276  0.0335  0.5202
 1073TIP3    H227415   3.259  -0.030  19.692 -0.0137 -0.3134  0.3671
 1074TIP3   OH227416   3.005   4.809  19.503  0.2934 -0.6881 -0.2062
 1074TIP3    H127417   2.933   4.872  19.501 -0.3790 -1.4046  0.8546
 1074TIP3    H227418   2.982   4.744  19.437  0.1849 -0.6906 -0.1654
 1075TIP3   OH227419   3.913   0.182  20.454  0.2183 -0.0983 -0.4388
 1075TIP3    H127420   3.967   0.213  20.526  1.5354 -0.8873 -1.0635
 1075TIP3    H227421   3.905   0.258  20.395  1.0307 -0.1063 -0.5637
 1076TIP3   OH227422   6.072   1.918  18.810  0.1496  0.2864 -0.2628
 1076TIP3    H127423   6.066   1.824  18.797  0.3588  0.2934 -0.4163
 1076TIP3    H227424   5.982   1.949  18.813  0.0652  0.0028  0.3546
 1077TIP3   OH227425   4.541   0.904  20.596 -0.1550  0.2879 -0.6028
 1077TIP3    H127426   4.582   0.903  20.683 -1.4070  1.9508  0.0608
 1077TIP3    H227427   4.611   0.929  20.537 -0.0417  2.7748  0.4649
 1078TIP3   OH227428   4.243   5.759  19.771 -0.2006  0.0292  0.3945
 1078TIP3    H127429   4.162   5.808  19.788  0.5880  1.3383  0.4764
 1078TIP3    H227430   4.263   5.717  19.855  0.7095  2.0270  1.2490
 1079TIP3   OH227431   4.470   3.792  18.453  0.4787 -0.2494 -0.3524
 1079TIP3    H127432   4.542   3.844  18.417  1.7338 -0.9014  1.0968
 1079TIP3    H227433   4.420   3.854  18.505  0.9777 -0.1324 -0.0064
 1080TIP3   OH227434   1.328   5.917  18.706 -0.4628 -0.1886 -0.3540
 1080TIP3    H127435   1.298   5.981  18.640 -1.6722 -2.1886 -1.8707
 1080TIP3    H227436   1.423   5.926  18.705 -0.5639  1.2836 -0.8160
 1081TIP3   OH227437   4.712   1.299  20.750  0.2546 -0.4021 -0.5302
 1081TIP3    H127438   4.633   1.315  20.697 -0.4370 -0.0366  0.5870
 1081TIP3    H227439   4.737   1.386  20.782 -0.1452 -0.7885  0.8678
 1082TIP3   OH227440   0.338   0.920  19.389 -0.1777 -0.2056 -0.5812
 1082TIP3    H127441   0.326   0.825  19.401  0.3273 -0.0374  1.5625
 1082TIP3    H227442   0.288   0.940  19.310  2.0128 -2.7073 -2.7741
 1083TIP3   OH227443   3.958   4.450  19.777  0.5960  0.8028  0.5137
 1083TIP3    H127444   3.952   4.418  19.867 -0.0511 -0.3346  0.0850
 1083TIP3    H227445   3.867   4.467  19.751  0.6900  0.2595 -0.2111
 1084TIP3   OH227446   4.144   1.541  19.773 -0.2683 -0.4207 -0.1261
 1084TIP3    H127447   4.148   1.605  19.844  0.6316  1.4596 -1.7657
 1084TIP3    H227448   4.052   1.514  19.770 -0.4876  0.1135  1.1751
 1085TIP3   OH227449   2.836   4.010  20.747 -0.3440  0.1343  0.0097
 1085TIP3    H127450   2.928   4.031  20.737  0.1107 -1.2191  1.0779
 1085TIP3    H227451   2.791   4.068  20.685  1.2356  0.5308 -0.8093
 1086TIP3   OH227452   0.851   1.034  20.505 -0.3907  0.2679 -0.4077
 1086TIP3    H127453   0.803   0.966  20.553  1.0762 -1.9531 -1.8965
 1086TIP3    H227454   0.790   1.060  20.435 -0.2581 -1.0437 -1.0510
 1087TIP3   OH227455   1.941   4.363  18.918  0.0047 -0.1923  0.2810
 1087TIP3    H127456   1.946   4.451  18.956 -0.3612 -0.2140  0.3769
 1087TIP3    H227457   1.974   4.305  18.987 -1.9841 -0.3892  1.1117
 1088TIP3   OH227458   0.112   3.638  19.409 -0.1387  0.1913 -0.3458
 1088TIP3    H127459   0.036   3.587  19.381 -0.4975 -0.7113  2.0591
 1088TIP3    H227460   0.186   3.579  19.397 -0.0196  0.5025 -1.1858
 1089TIP3   OH227461   4.890   4.538  17.760 -0.1196 -0.4107 -0.5007
 1089TIP3    H127462   4.815   4.483  17.737 -0.3726  0.3716 -1.6165
 1089TIP3    H227463   4.858   4.593  17.832 -0.2185 -0.9419 -0.1360
 1090TIP3   OH227464   5.434   5.007  20.610 -0.0878  0.0703 -0.2222
 1090TIP3    H127465   5.389   4.923  20.600 -0.0278 -0.2370  1.7319
 1090TIP3    H227466   5.377   5.059  20.666  1.2562  0.2116  1.0882
 1091TIP3   OH227467   6.272   3.995  19.735 -0.0119  0.3105  0.5669
 1091TIP3    H127468   6.229   3.958  19.658  0.3218  0.1156  0.4719
 1091TIP3    H227469   6.308   3.919  19.781  0.7228  0.5160  0.3471
 1092TIP3   OH227470   3.987   0.576  20.077 -0.0920  0.2359 -0.5284
 1092TIP3    H127471   3.991   0.611  19.988 -0.6164  1.2272 -0.1787
 1092TIP3    H227472   4.039   0.637  20.129 -0.6867  0.2882  0.0194
 1093TIP3   OH227473   2.931   0.225  20.841 -0.2434  0.0676  0.0598
 1093TIP3    H127474   2.885   0.266  20.768  0.4772  0.0937 -0.3914
 1093TIP3    H227475   2.935   0.293  20.908 -0.7069  0.1163  0.0402
 1094TIP3   OH227476   1.863   2.407  21.029 -0.3542  0.3325 -0.5515
 1094TIP3    H127477   1.955   2.425  21.009 -0.8198  1.2746 -2.0542
 1094TIP3    H227478   1.822   2.493  21.031 -0.8729  0.1307  2.2805
 1095TIP3   OH227479   0.689   5.904  19.024  0.3260 -0.1623 -0.0342
 1095TIP3    H127480   0.603   5.886  18.986  0.9904 -0.1852 -1.6167
 1095TIP3    H227481   0.685   5.867  19.112 -0.9669 -1.0326 -0.4275
 1096TIP3   OH227482   5.555   0.460  19.382  0.4908  0.2982 -0.6284
 1096TIP3    H127483   5.486   0.461  19.448  1.8418  0.2872  0.8559
 1096TIP3    H227484   5.601   0.377  19.397  0.4508 -0.0020 -2.0209
 1097TIP3   OH227485   1.833   0.111  20.090  0.3878  0.3932  0.8355
 1097TIP3    H127486   1.872   0.075  20.011  0.7973 -0.1876  1.2868
 1097TIP3    H227487   1.878   0.065  20.162 -1.2923 -0.4853  1.3712
 1098TIP3   OH227488   1.166   0.741  20.060 -0.2538 -0.4482  0.2610
 1098TIP3    H127489   1.192   0.831  20.081  0.2803 -0.4390 -0.4240
 1098TIP3    H227490   1.098   0.750  19.994  0.6481 -0.5713 -0.7024
 1099TIP3   OH227491   0.305   5.752  21.014 -0.7496  0.2053  0.1821
 1099TIP3    H127492   0.328   5.826  21.070  0.5830 -0.8561  1.0745
 1099TIP3    H227493   0.351   5.677  21.052 -1.5492 -0.9697 -1.0774
 1100TIP3   OH227494   1.812   3.573  18.537  0.5812  0.2039 -0.0780
 1100TIP3    H127495   1.739   3.634  18.535  1.6751  1.5476 -1.9180
 1100TIP3    H227496   1.786   3.502  18.478  0.4490  0.2875 -0.1214
 1101TIP3   OH227497   2.305   4.655  19.159  0.2438  0.2830  0.1308
 1101TIP3    H127498   2.354   4.656  19.241 -0.1808  1.6803  0.3849
 1101TIP3    H227499   2.370   4.680  19.093  0.8914 -1.9737 -0.2017
 1102TIP3   OH227500   3.322   0.884  19.269  0.0405  0.1517  0.4254
 1102TIP3    H127501   3.366   0.812  19.314 -1.4412 -0.7072  0.5461
 1102TIP3    H227502   3.374   0.899  19.191 -0.1064 -1.6558 -0.0557
 1103TIP3   OH227503   0.577   2.980  20.428  0.3092  0.2114  0.1579
 1103TIP3    H127504   0.638   3.020  20.490 -0.4524  0.1721  0.9522
 1103TIP3    H227505   0.625   2.906  20.391  0.3506 -0.5646  1.6765
 1104TIP3   OH227506   1.555   1.377  21.456  0.2875 -0.3898  0.0610
 1104TIP3    H127507   1.494   1.389  21.383 -1.3199 -1.3162  1.1791
 1104TIP3    H227508   1.593   1.464  21.469  0.1638 -0.0741 -1.4711
 1105TIP3   OH227509   0.340   1.283  18.659 -0.2076  0.5858  0.3168
 1105TIP3    H127510   0.369   1.373  18.643  0.1974  0.5280  0.6794
 1105TIP3    H227511   0.377   1.233  18.586  1.7992  0.2879  1.4650
 1106TIP3   OH227512   4.624   4.636  19.731 -0.4604  0.5132  0.2636
 1106TIP3    H127513   4.669   4.679  19.659  0.5866 -2.0062 -0.6983
 1106TIP3    H227514   4.694   4.597  19.784 -1.3462 -0.3356  0.8505
 1107TIP3   OH227515   6.014   1.429  20.387 -0.0967  0.3868  0.2397
 1107TIP3    H127516   5.974   1.420  20.300 -1.2112  1.4131  0.6126
 1107TIP3    H227517   6.103   1.457  20.369 -0.1676  0.1247 -0.5907
 1108TIP3   OH227518   6.283   2.615  19.508  0.5678  0.1421  0.1684
 1108TIP3    H127519   6.222   2.543  19.525  0.0616  0.5521  0.1259
 1108TIP3    H227520   6.227   2.692  19.501  0.9644  0.3169 -1.2651
 1109TIP3   OH227521   4.519   0.890  19.994 -0.2221 -0.0191 -0.0451
 1109TIP3    H127522   4.494   0.847  20.076  2.2014 -0.4250  0.5589
 1109TIP3    H227523   4.613   0.906  20.004  0.0681  0.2058 -2.6260
 1110TIP3   OH227524   3.197   5.906  20.025  0.0735  0.9315 -0.1826
 1110TIP3    H127525   3.206   5.988  20.074 -1.4513  1.1875 -0.2847
 1110TIP3    H227526   3.255   5.917  19.950 -0.2192  1.9918 -0.2725
 1111TIP3   OH227527   1.097   2.118  18.486 -0.0297  0.3825 -0.0880
 1111TIP3    H127528   1.063   2.172  18.557  0.4279  1.2823 -0.5391
 1111TIP3    H227529   1.173   2.166  18.453 -2.2090  1.9167 -3.5157
 1112TIP3   OH227530   6.163   2.036  20.980  0.3685  0.4541  0.7632
 1112TIP3    H127531   6.114   2.074  21.052 -0.2844  0.7207  0.1972
 1112TIP3    H227532   6.199   1.954  21.015  1.4221  1.3450  1.8614
 1113TIP3   OH227533   3.774   4.529  19.146  0.4410  0.4792 -0.5032
 1113TIP3    H127534   3.801   4.486  19.065  0.8798 -1.0909  0.4325
 1113TIP3    H227535   3.686   4.495  19.163  0.9129 -0.3174  0.4072
 1114TIP3   OH227536   0.635   1.778  18.840 -0.0746 -0.0227 -0.7925
 1114TIP3    H127537   0.688   1.808  18.914 -0.8485 -1.7723  0.5390
 1114TIP3    H227538   0.576   1.851  18.823  0.6443  0.7193 -0.2091
 1115TIP3   OH227539   2.505   1.092  19.995  0.4889 -0.4323  0.3711
 1115TIP3    H127540   2.518   1.059  20.084  0.2116 -3.6143 -0.6432
 1115TIP3    H227541   2.592   1.087  19.955  0.3318 -0.4478  0.0270
 1116TIP3   OH227542   1.917   1.820  20.367 -0.3727  0.5897 -0.0032
 1116TIP3    H127543   1.912   1.731  20.332 -2.2682  0.7316 -0.1995
 1116TIP3    H227544   1.877   1.814  20.454 -0.7580  1.2868 -0.1257
 1117TIP3   OH227545   3.729   1.834  21.191 -0.4463 -0.1032 -0.7385
 1117TIP3    H127546   3.715   1.748  21.152 -2.6704 -0.3109  0.3723
 1117TIP3    H227547   3.823   1.838  21.207  0.1243 -1.1728 -3.3266
 1118TIP3   OH227548   2.894   0.304  18.328  0.0292 -0.2566  0.7010
 1118TIP3    H127549   2.936   0.367  18.269  1.4097 -0.8465  1.0263
 1118TIP3    H227550   2.859   0.359  18.399  0.5229  0.2250  0.5821
 1119TIP3   OH227551   4.658   5.896  19.188  0.5677 -0.2723 -0.1276
 1119TIP3    H127552   4.601   5.961  19.229  1.9999  0.6066  0.5601
 1119TIP3    H227553   4.644   5.907  19.094  0.1297  0.4174  0.0110
 1120TIP3   OH227554   4.427   5.174  19.020 -0.4181  0.1162  0.2061
 1120TIP3    H127555   4.381   5.090  19.014 -0.5688  0.2325 -0.2778
 1120TIP3    H227556   4.518   5.154  18.996 -0.2273 -0.0910  1.0493
 1121TIP3   OH227557   5.015   4.880  21.185 -0.0997 -0.1928  0.3992
 1121TIP3    H127558   5.085   4.945  21.191  1.4365 -1.8330  1.0853
 1121TIP3    H227559   5.022   4.830  21.266  0.0998 -2.4683 -0.9374
 1122TIP3   OH227560   0.477   1.204  20.768 -0.0122  0.1893  0.3860
 1122TIP3    H127561   0.516   1.269  20.710  1.3575 -1.5620 -0.7514
 1122TIP3    H227562   0.532   1.127  20.760 -2.3929 -1.6714  0.5223
 1123TIP3   OH227563   5.117   4.996  19.004 -0.1156 -0.0995  0.6008
 1123TIP3    H127564   5.085   5.001  19.094 -0.3255  0.0819  0.5172
 1123TIP3    H227565   5.042   5.019  18.951 -0.3791 -1.5851  0.3058
 1124TIP3   OH227566   3.489   1.473  20.727 -0.2389 -0.0807 -0.0799
 1124TIP3    H127567   3.519   1.427  20.649 -1.1801 -0.6436 -0.1288
 1124TIP3    H227568   3.528   1.560  20.720 -0.0673 -0.2229 -1.0196
 1125TIP3   OH227569   4.258   3.441  18.903 -0.1715 -0.2919 -0.4547
 1125TIP3    H127570   4.313   3.388  18.961 -0.8434 -1.8345 -1.1871
 1125TIP3    H227571   4.280   3.412  18.815 -0.5356  0.6900 -0.8921
 1126TIP3   OH227572   3.113   4.723  19.757 -0.1490 -0.2906  0.0165
 1126TIP3    H127573   3.076   4.744  19.671  0.4465  0.2213 -0.1216
 1126TIP3    H227574   3.126   4.628  19.754  0.3776 -0.2067 -0.6687
 1127TIP3   OH227575   1.452   1.257  18.482  0.7620  0.0456  0.0692
 1127TIP3    H127576   1.416   1.254  18.394 -0.5899  0.0090  0.5923
 1127TIP3    H227577   1.518   1.188  18.484 -0.9375 -1.6750 -0.2003
 1128TIP3   OH227578   2.664   2.356  20.947  0.6276 -0.0553 -0.1550
 1128TIP3    H127579   2.686   2.442  20.982 -1.7417 -0.1456  1.8266
 1128TIP3    H227580   2.568   2.355  20.945  0.6111 -1.8726 -2.2320
 1129TIP3   OH227581   3.952   5.678  19.626  0.0004  0.1511  0.7330
 1129TIP3    H127582   3.946   5.770  19.598  2.0070  0.0732 -0.1309
 1129TIP3    H227583   3.948   5.628  19.544  1.0469 -0.3972  1.0035
 1130TIP3   OH227584   3.942   0.152  21.120 -0.5234 -0.1499  0.2121
 1130TIP3    H127585   3.913   0.242  21.139 -0.2761 -0.0195 -0.0212
 1130TIP3    H227586   3.908   0.134  21.033  0.2433  0.0709 -0.1369
 1131TIP3   OH227587   4.561   4.984  18.610  0.3476  0.2102 -0.6497
 1131TIP3    H127588   4.515   4.900  18.613  0.8449 -0.0709 -0.8022
 1131TIP3    H227589   4.500   5.046  18.649  0.7548 -0.5756  1.3390
 1132TIP3   OH227590   2.093   3.147  20.811 -0.4185 -0.1212  0.1056
 1132TIP3    H127591   2.135   3.062  20.802 -0.3698 -0.3618  2.2176
 1132TIP3    H227592   2.050   3.161  20.726 -0.5445 -2.2912 -0.2464
 1133TIP3   OH227593   4.792   2.647  21.305 -0.2837 -0.3116 -0.0676
 1133TIP3    H127594   4.841   2.620  21.383 -0.9704 -0.8553  0.1919
 1133TIP3    H227595   4.753   2.731  21.328 -0.4749 -0.4659  0.1841
 1134TIP3   OH227596   6.423   6.541  19.380 -0.0842 -0.2330  0.0329
 1134TIP3    H127597   6.405   6.575  19.292 -1.6984 -1.4979 -0.1830
 1134TIP3    H227598   6.397   6.612  19.439  0.8349  0.5559 -0.4821
 1135TIP3   OH227599   2.973   2.517  18.322 -0.5220  0.2027  0.1983
 1135TIP3    H127600   2.936   2.534  18.408  0.6174  0.9069  0.5750
 1135TIP3    H227601   3.046   2.458  18.338 -1.9324 -1.8776 -0.6358
 1136TIP3   OH227602   1.077   1.062  18.578 -0.1154  0.6157 -0.6106
 1136TIP3    H127603   1.101   1.050  18.670  3.0081 -0.8696 -1.4830
 1136TIP3    H227604   1.040   1.150  18.575 -0.6097  0.6147  2.0735
 1137TIP3   OH227605   4.587   4.619  19.342  0.1045  0.7686 -0.3030
 1137TIP3    H127606   4.679   4.623  19.314 -0.2734  2.4729 -1.3996
 1137TIP3    H227607   4.571   4.704  19.384 -0.8256  0.2466  0.4353
 1138TIP3   OH227608   1.641   4.809  21.276  0.1007  0.1762 -0.1813
 1138TIP3    H127609   1.660   4.722  21.241 -0.8572 -0.1835  0.1539
 1138TIP3    H227610   1.547   4.808  21.293  0.5675  0.0040  3.2004
 1139TIP3   OH227611   5.047   3.376  17.848 -0.0044 -0.5351  0.1522
 1139TIP3    H127612   5.058   3.330  17.764  2.0699 -0.9491  0.5909
 1139TIP3    H227613   5.095   3.458  17.835  0.4073 -0.6466  0.9498
 1140TIP3   OH227614   3.208   1.768  20.517 -0.2496 -0.1642  0.2374
 1140TIP3    H127615   3.145   1.721  20.462 -0.6773 -1.1225  1.4903
 1140TIP3    H227616   3.292   1.754  20.473 -0.5408 -1.1560 -0.0479
 1141TIP3   OH227617   3.666   2.774  20.938  0.6015  0.4050 -0.6949
 1141TIP3    H127618   3.586   2.804  20.981 -1.0539 -1.9069 -1.9875
 1141TIP3    H227619   3.712   2.722  21.005  1.2065  1.9122  0.1154
 1142TIP3   OH227620   0.715   6.049  20.920  0.0131 -0.4978 -0.2508
 1142TIP3    H127621   0.808   6.027  20.923 -0.0365 -0.6914 -0.1336
 1142TIP3    H227622   0.708   6.115  20.851 -0.0096 -1.6574 -1.3836
 1143TIP3   OH227623   1.606   4.496  20.720  0.3950  0.1236  0.1618
 1143TIP3    H127624   1.569   4.513  20.807 -2.0642  1.0366 -0.9672
 1143TIP3    H227625   1.691   4.539  20.722  0.3743  0.1675  2.0947
 1144TIP3   OH227626   5.537   1.804  20.058  0.2552  0.0191  0.1439
 1144TIP3    H127627   5.584   1.727  20.025  0.5850  0.6049 -0.8056
 1144TIP3    H227628   5.482   1.770  20.128 -0.8584 -1.3979 -1.3334
 1145TIP3   OH227629   2.673   4.673  18.638  0.7095  0.3883  0.4413
 1145TIP3    H127630   2.705   4.729  18.709  0.6280  2.6180 -1.1804
 1145TIP3    H227631   2.731   4.597  18.640  3.2463  2.1950  0.4977
 1146TIP3   OH227632   3.721   3.514  19.754 -0.1359  0.0302  0.4430
 1146TIP3    H127633   3.718   3.566  19.834 -2.6026 -0.1998  0.5630
 1146TIP3    H227634   3.736   3.577  19.684 -1.4418  0.6987  0.7512
 1147TIP3   OH227635   3.061   0.288  19.938 -0.2417 -0.0206  0.6727
 1147TIP3    H127636   3.014   0.288  20.022 -1.4096  2.9950  0.1420
 1147TIP3    H227637   3.016   0.354  19.885  0.5879 -1.6808 -2.3126
 1148TIP3   OH227638   3.247   1.000  19.748  0.2245  0.5557  0.1593
 1148TIP3    H127639   3.327   1.042  19.778 -0.0587  0.1706  1.5076
 1148TIP3    H227640   3.241   1.024  19.655  0.6308  2.5915  0.6072
 1149TIP3   OH227641   4.551   0.461  19.662  0.0648 -0.1947  0.3145
 1149TIP3    H127642   4.511   0.524  19.722  1.0194  0.6398  0.1038
 1149TIP3    H227643   4.552   0.507  19.578 -1.0196 -1.2515 -0.3121
 1150TIP3   OH227644   3.397   1.373  20.956  0.2677  0.9974 -0.0622
 1150TIP3    H127645   3.437   1.409  20.877  2.5608  1.1659  1.1077
 1150TIP3    H227646   3.391   1.448  21.016  1.2943  0.2981  0.9422
 1151TIP3   OH227647   5.503   5.332  18.885  0.3518  0.1213 -0.1077
 1151TIP3    H127648   5.448   5.255  18.870  0.9128 -0.5069  0.9851
 1151TIP3    H227649   5.495   5.350  18.978  0.5809  1.1243 -0.2717
 1152TIP3   OH227650   0.143   5.921  18.769  0.3716  0.0947 -0.0116
 1152TIP3    H127651   0.183   5.884  18.690  1.5951  1.7849 -0.2404
 1152TIP3    H227652   0.058   5.953  18.740  0.8398  0.7611 -0.7064
 1153TIP3   OH227653   3.287   4.234  19.290  0.3721 -0.3001 -0.0977
 1153TIP3    H127654   3.351   4.207  19.225 -0.0190 -1.1662 -0.1426
 1153TIP3    H227655   3.270   4.155  19.342  0.8752  0.4295  1.2371
 1154TIP3   OH227656   0.328   0.636  17.857  1.0922  0.0135 -0.4492
 1154TIP3    H127657   0.305   0.699  17.789  1.1621  0.1337 -0.3618
 1154TIP3    H227658   0.276   0.559  17.837 -0.6469  0.8403  0.6996
 1155TIP3   OH227659   4.649   0.569  20.050  0.1309 -0.6609  1.0884
 1155TIP3    H127660   4.554   0.558  20.055 -0.0560 -0.9929 -1.7215
 1155TIP3    H227661   4.683   0.479  20.055  0.1122 -0.7440  0.0151
 1156TIP3   OH227662   0.582   2.774  19.007 -0.3208 -0.3821  0.0150
 1156TIP3    H127663   0.500   2.794  19.052 -0.9445 -0.2152 -1.1570
 1156TIP3    H227664   0.628   2.713  19.065 -1.0102 -0.0256  0.9490
 1157TIP3   OH227665   6.214   2.230  18.250  0.2732 -0.4159 -0.5387
 1157TIP3    H127666   6.183   2.305  18.301  2.0391  0.6572 -0.9571
 1157TIP3    H227667   6.149   2.161  18.266 -1.0068  0.9673  0.4319
 1158TIP3   OH227668   0.868   6.335  21.392 -0.0862  0.8311  0.3153
 1158TIP3    H127669   0.942   6.347  21.451 -1.4128  1.6929  1.9168
 1158TIP3    H227670   0.895   6.265  21.333  1.3221 -0.1095  1.9718
 1159TIP3   OH227671   5.119   3.177  19.702 -0.6507  0.6534 -0.5735
 1159TIP3    H127672   5.096   3.231  19.627 -1.8854  0.6911 -0.1758
 1159TIP3    H227673   5.037   3.138  19.731 -0.3301  1.1806  1.1890
 1160TIP3   OH227674   2.759   3.355  19.585  0.2511  0.5898  0.0400
 1160TIP3    H127675   2.819   3.303  19.533  0.9629  1.6319 -0.2181
 1160TIP3    H227676   2.805   3.369  19.668 -0.9216 -1.1575  1.0396
 1161TIP3   OH227677   4.958   3.883  21.430 -0.2101 -0.1679 -0.1083
 1161TIP3    H127678   4.929   3.970  21.401  0.4058  0.1325  0.1703
 1161TIP3    H227679   5.033   3.900  21.487  0.4194 -0.9304 -0.6898
 1162TIP3   OH227680   1.550   6.515  21.594 -0.0449 -0.2278 -0.5564
 1162TIP3    H127681   1.494   6.515  21.672  2.0011 -2.3466  1.0663
 1162TIP3    H227682   1.549   6.606  21.563 -1.1502  0.6357  1.7784
 1163TIP3   OH227683   2.581   1.682  18.447  0.1590  0.0007 -0.4635
 1163TIP3    H127684   2.610   1.762  18.404 -1.6545  0.8205 -0.2515
 1163TIP3    H227685   2.604   1.695  18.539  1.0393 -0.3149 -0.6272
 1164TIP3   OH227686   5.098   0.822  20.225  0.4331  0.1494 -0.0787
 1164TIP3    H127687   5.022   0.842  20.279 -0.3637 -0.8796 -0.7909
 1164TIP3    H227688   5.161   0.784  20.286  0.7147  1.7210  0.6623
 1165TIP3   OH227689   2.973   2.817  17.344  0.7913  1.1050 -0.3675
 1165TIP3    H127690   2.897   2.759  17.347  0.6226  1.3152 -0.5012
 1165TIP3    H227691   3.013   2.800  17.259  0.3377  1.6849 -0.7060
 1166TIP3   OH227692   6.160   1.723  19.832  0.1530 -0.3188  0.3815
 1166TIP3    H127693   6.239   1.755  19.875  0.6015 -0.0181 -0.6437
 1166TIP3    H227694   6.102   1.800  19.828  0.3570 -0.1898 -0.1033
 1167TIP3   OH227695   3.528   5.036  18.190 -0.1426 -0.3407 -0.1523
 1167TIP3    H127696   3.501   5.055  18.100  1.1007  0.0898 -0.4453
 1167TIP3    H227697   3.597   4.970  18.181 -0.1256 -0.4163  0.5005
 1168TIP3   OH227698   4.334   2.613  20.171 -0.3901 -0.0495  0.1141
 1168TIP3    H127699   4.260   2.553  20.173  0.0091 -0.7984 -3.0503
 1168TIP3    H227700   4.297   2.696  20.139  0.1426 -0.5376 -1.8618
 1169TIP3   OH227701   5.947   4.027  20.888 -0.3090  0.8688  0.4130
 1169TIP3    H127702   6.038   4.055  20.877 -0.2825  0.5941 -0.0591
 1169TIP3    H227703   5.946   3.987  20.975 -0.3062  2.1530  1.0388
 1170TIP3   OH227704   5.319   0.466  19.530 -0.1421  0.0706 -0.4697
 1170TIP3    H127705   5.224   0.479  19.529 -0.2200 -0.3791  0.2900
 1170TIP3    H227706   5.347   0.501  19.614  0.4360  0.6353 -0.8915
 1171TIP3   OH227707   5.603   2.562  19.686  0.3999  0.2448 -0.5370
 1171TIP3    H127708   5.590   2.651  19.719  2.2179  0.4380 -0.2619
 1171TIP3    H227709   5.599   2.570  19.591  0.2473  0.5661 -0.5032
 1172TIP3   OH227710   0.829   4.314  18.496  0.2550  0.1679  0.2001
 1172TIP3    H127711   0.888   4.354  18.560  0.5266  0.0393  0.0314
 1172TIP3    H227712   0.747   4.363  18.505  1.0693  1.9475 -1.1767
 1173TIP3   OH227713   4.631   3.745  18.070  0.0170 -0.1485  0.0915
 1173TIP3    H127714   4.612   3.769  17.979  0.9507  0.5485  0.0648
 1173TIP3    H227715   4.725   3.760  18.080 -0.2246  0.7240  1.4320
 1174TIP3   OH227716   0.468   5.887  18.364 -0.2194  0.0811 -0.1352
 1174TIP3    H127717   0.417   5.958  18.324 -0.0967 -0.2305 -0.8465
 1174TIP3    H227718   0.481   5.824  18.294  0.4321 -0.2388  0.2678
 1175TIP3   OH227719   4.497   5.366  19.528  0.8321  0.2799 -0.4876
 1175TIP3    H127720   4.513   5.295  19.590 -1.6823  0.1828  0.1594
 1175TIP3    H227721   4.402   5.379  19.530  1.0351  2.5429 -1.8489
 1176TIP3   OH227722   0.305   3.943  20.882  0.3596 -0.1751  0.4203
 1176TIP3    H127723   0.397   3.963  20.866  0.3774  0.0063  0.7488
 1176TIP3    H227724   0.286   3.981  20.968  0.1173 -0.6631  0.5893
 1177TIP3   OH227725   0.651   0.791  21.467 -0.2329  0.0592 -0.5173
 1177TIP3    H127726   0.592   0.782  21.392  0.9158  0.1746 -1.4824
 1177TIP3    H227727   0.642   0.708  21.514 -1.3981  0.2124 -0.4450
 1178TIP3   OH227728   3.548   3.769  20.617 -0.0119  0.1524  0.6585
 1178TIP3    H127729   3.608   3.789  20.545  0.1403 -0.3958  0.6289
 1178TIP3    H227730   3.495   3.849  20.627  0.6547  0.6029  0.6238
 1179TIP3   OH227731   1.398   6.557  21.047  0.6617 -0.3847  0.7947
 1179TIP3    H127732   1.492   6.568  21.058  0.5464  0.4462  0.9875
 1179TIP3    H227733   1.388   6.513  20.963  1.1639  0.7464  0.1269
 1180TIP3   OH227734   4.925   0.393  20.883 -0.0890  0.2526 -0.2079
 1180TIP3    H127735   4.980   0.332  20.932 -1.1960 -0.4793  0.1776
 1180TIP3    H227736   4.845   0.343  20.865 -0.4049  1.0957 -1.2393
 1181TIP3   OH227737   3.412   3.697  20.895  0.2311 -0.1623  0.3572
 1181TIP3    H127738   3.330   3.654  20.870  1.0145 -1.7440  0.3632
 1181TIP3    H227739   3.445   3.735  20.814  0.1258 -0.6516  0.0778
 1182TIP3   OH227740   3.339   1.633  20.197  0.6408 -0.1444  0.8444
 1182TIP3    H127741   3.326   1.677  20.113 -0.4474 -1.4124  0.3148
 1182TIP3    H227742   3.252   1.627  20.236  0.4857 -2.8450  0.3247
 1183TIP3   OH227743   3.825   0.021  18.193  0.0707  0.1518  0.0051
 1183TIP3    H127744   3.745  -0.002  18.147  1.8445 -1.7108 -2.4225
 1183TIP3    H227745   3.859  -0.062  18.227  1.0163  0.8872  0.9418
 1184TIP3   OH227746   2.086   1.633  19.391 -0.5349  0.0327 -0.1574
 1184TIP3    H127747   2.054   1.611  19.478 -1.3736  1.6650 -0.0045
 1184TIP3    H227748   2.180   1.613  19.394 -0.5899 -0.1241  1.0570
 1185TIP3   OH227749   0.183   0.150  20.332 -0.0890  0.2673  0.4728
 1185TIP3    H127750   0.120   0.080  20.316 -1.2839  1.0295  1.6111
 1185TIP3    H227751   0.139   0.229  20.302 -0.0235  0.9156  1.9925
 1186TIP3   OH227752   3.174   5.164  20.441 -0.3161 -0.3579  0.0313
 1186TIP3    H127753   3.260   5.171  20.400 -0.4130 -0.7885 -0.2571
 1186TIP3    H227754   3.170   5.074  20.473 -2.3931 -2.0131 -4.0599
 1187TIP3   OH227755   4.275   3.812  20.750 -0.2212 -0.0142  0.5012
 1187TIP3    H127756   4.197   3.758  20.766 -1.0267  1.5577  2.1963
 1187TIP3    H227757   4.348   3.755  20.772 -1.0494 -0.5065  2.1391
 1188TIP3   OH227758   6.414   2.383  19.862 -0.4020  0.3087  0.1203
 1188TIP3    H127759   6.341   2.340  19.907 -0.5196 -0.1031 -0.4652
 1188TIP3    H227760   6.380   2.470  19.840 -0.3732  0.4820  0.7496
 1189TIP3   OH227761   1.393   3.289  21.462  0.0492 -0.4240  0.1756
 1189TIP3    H127762   1.383   3.301  21.556  0.1652 -0.1453  0.1549
 1189TIP3    H227763   1.467   3.346  21.438 -0.9674  0.7400 -0.3272
 1190TIP3   OH227764   1.815   0.613  19.988  0.2606  0.0245  0.0218
 1190TIP3    H127765   1.804   0.525  19.952 -1.5879  0.1424  0.2030
 1190TIP3    H227766   1.833   0.599  20.081  0.5651 -0.1775 -0.0692
 1191TIP3   OH227767   1.476   5.550  18.302 -0.6302  0.0860  0.3299
 1191TIP3    H127768   1.512   5.462  18.300  1.1440  0.5566  3.7928
 1191TIP3    H227769   1.381   5.537  18.303 -0.4300 -1.6779 -0.4389
 1192TIP3   OH227770   1.161   4.861  20.206 -0.0359  0.1284 -0.1771
 1192TIP3    H127771   1.154   4.766  20.201 -2.9891  0.2787 -1.6902
 1192TIP3    H227772   1.130   4.883  20.294 -2.9334 -0.2541 -0.9936
 1193TIP3   OH227773   0.054   4.864  19.790 -0.3238 -0.2639  0.7586
 1193TIP3    H127774   0.010   4.946  19.771 -0.7525 -0.6255  0.1418
 1193TIP3    H227775   0.004   4.825  19.862 -0.6548 -0.3933  0.4600
 1194TIP3   OH227776   1.256   5.035  19.955  0.0685 -0.1018 -0.0289
 1194TIP3    H127777   1.261   5.076  19.868 -1.9811  0.6289  0.1481
 1194TIP3    H227778   1.165   5.007  19.963  0.1677  0.0365  1.9646
 1195TIP3   OH227779   1.076   4.706  19.068  0.2031 -0.3734  0.5916
 1195TIP3    H127780   1.019   4.666  19.002  0.0702 -1.5785  1.3954
 1195TIP3    H227781   1.059   4.655  19.148  2.0453 -0.4245  0.9823
 1196TIP3   OH227782   0.810   2.605  19.398 -0.0507 -0.1835 -0.4316
 1196TIP3    H127783   0.818   2.543  19.471  0.3389  1.3105  0.8708
 1196TIP3    H227784   0.885   2.664  19.410 -2.1632  2.5273  0.4302
 1197TIP3   OH227785   3.402   1.436  19.652 -0.5828  0.1101 -0.2065
 1197TIP3    H127786   3.321   1.480  19.677 -0.6760  0.9367 -1.7978
 1197TIP3    H227787   3.469   1.504  19.658 -0.3553 -0.0630 -0.7410
 1198TIP3   OH227788   3.382   1.550  17.957 -0.0644 -0.6006  0.1166
 1198TIP3    H127789   3.394   1.580  17.867 -0.3308 -0.5646  0.0935
 1198TIP3    H227790   3.325   1.616  17.997  1.8279  0.6131  0.9528
 1199TIP3   OH227791   2.579   5.712  17.669 -0.4286 -0.5411  0.5183
 1199TIP3    H127792   2.491   5.725  17.635 -0.0449 -1.1846 -0.7890
 1199TIP3    H227793   2.636   5.757  17.606  0.1594  0.3902  1.6589
 1200TIP3   OH227794   4.597   1.141  20.305 -0.3688  0.1179 -0.2461
 1200TIP3    H127795   4.547   1.174  20.230 -1.6351  0.2002  0.6167
 1200TIP3    H227796   4.625   1.219  20.352  0.4388  0.0668 -0.6309
 1201TIP3   OH227797   0.001   6.404  19.519 -0.4943  0.0658 -0.2727
 1201TIP3    H127798  -0.071   6.464  19.499 -0.6042 -0.3595 -1.1955
 1201TIP3    H227799   0.019   6.359  19.437  0.5255 -0.1698  0.0629
 1202TIP3   OH227800   3.384   3.085  19.906  0.1324  0.3117 -0.0923
 1202TIP3    H127801   3.473   3.068  19.937  0.4219  2.5935  0.5020
 1202TIP3    H227802   3.359   3.004  19.860  2.7275 -0.1666 -0.8311
 1203TIP3   OH227803   3.817   2.147  20.376 -0.1834  0.2995 -0.0295
 1203TIP3    H127804   3.779   2.119  20.459 -1.7010 -1.3588 -1.2061
 1203TIP3    H227805   3.902   2.184  20.399 -1.3333  1.6196  2.4375
 1204TIP3   OH227806   5.730   0.176  19.324  0.7825  0.0175  0.4977
 1204TIP3    H127807   5.635   0.181  19.316  0.5649 -1.9490  1.2555
 1204TIP3    H227808   5.762   0.185  19.234 -0.0678  1.2162  0.2959
 1205TIP3   OH227809   4.516   1.597  20.508  0.3571  0.0600  0.3488
 1205TIP3    H127810   4.485   1.683  20.539  0.2423  0.4766 -0.8708
 1205TIP3    H227811   4.440   1.540  20.518  0.6460 -0.1102  1.8618
 1206TIP3   OH227812   3.193   3.364  20.320 -0.2729  0.0200 -0.0763
 1206TIP3    H127813   3.196   3.371  20.416 -0.6305  0.0709 -0.0654
 1206TIP3    H227814   3.105   3.395  20.297  0.1140  0.8411 -0.4908
 1207TIP3   OH227815   2.798   5.465  20.374  0.1772 -0.0553 -0.3279
 1207TIP3    H127816   2.822   5.376  20.399  0.4939  0.5650  1.7832
 1207TIP3    H227817   2.879   5.515  20.381  0.0081  0.4346 -1.5004
 1208TIP3   OH227818   1.878   2.738  19.023  0.7520 -0.3773  0.1939
 1208TIP3    H127819   1.884   2.800  18.951 -0.3818  0.9462  1.1887
 1208TIP3    H227820   1.784   2.721  19.033  0.7896  0.1621  1.8860
 1209TIP3   OH227821   0.267   6.376  20.216 -0.5639  0.1284  0.4243
 1209TIP3    H127822   0.194   6.431  20.188 -0.9281 -1.2768 -1.6027
 1209TIP3    H227823   0.345   6.424  20.188 -0.7075  1.0324  1.4701
 1210TIP3   OH227824   5.867   4.059  20.634 -0.3103  0.2690  0.0447
 1210TIP3    H127825   5.827   4.146  20.644  0.2444  0.6206 -0.7005
 1210TIP3    H227826   5.901   4.039  20.721 -0.9204  0.5515  0.3611
 1211TIP3   OH227827   0.876   5.552  20.382  0.2901 -0.5529 -0.3376
 1211TIP3    H127828   0.790   5.528  20.418  0.4044 -1.7427 -0.8431
 1211TIP3    H227829   0.897   5.483  20.320  2.3715 -1.1781  0.9651
 1212TIP3   OH227830   0.240   1.920  18.549 -0.5039  0.0287  0.0942
 1212TIP3    H127831   0.191   1.997  18.578 -1.5191  0.0401 -1.5381
 1212TIP3    H227832   0.322   1.956  18.514 -0.3844  0.2362  0.5793
 1213TIP3   OH227833   2.478   6.344  20.642 -0.0502  0.0315  0.1920
 1213TIP3    H127834   2.518   6.431  20.633  1.1761 -0.5501 -0.1371
 1213TIP3    H227835   2.384   6.359  20.627  0.4079  0.9554 -2.1966
 1214TIP3   OH227836   0.196   1.256  20.425 -0.5508 -0.5176  0.4328
 1214TIP3    H127837   0.157   1.312  20.358  1.1793  0.1886 -0.0337
 1214TIP3    H227838   0.136   1.264  20.500 -1.4110  0.3364 -0.3162
 1215TIP3   OH227839   4.759   0.023  18.738 -0.2759  0.6557  0.8337
 1215TIP3    H127840   4.686  -0.027  18.775 -2.3015  3.1837  0.5389
 1215TIP3    H227841   4.718   0.078  18.671  2.2990  0.6581 -0.8688
 1216TIP3   OH227842   4.690   1.381  19.391 -0.0780  0.0524  0.8677
 1216TIP3    H127843   4.732   1.467  19.381  1.1038 -0.6037 -0.1000
 1216TIP3    H227844   4.615   1.384  19.332  0.3716  0.1903  0.2827
 1217TIP3   OH227845   6.608   1.993  19.025  0.3593 -0.3455 -0.2604
 1217TIP3    H127846   6.644   2.080  19.042  0.1243 -0.2915 -0.0252
 1217TIP3    H227847   6.515   2.001  19.047  0.4659 -0.8253  0.3818
 1218TIP3   OH227848   0.964   3.453  21.648 -0.4096  0.1681 -0.3206
 1218TIP3    H127849   1.042   3.499  21.679  1.3251 -0.7760 -2.9358
 1218TIP3    H227850   0.913   3.520  21.603 -1.4497  0.8849  1.7658
 1219TIP3   OH227851   5.946   0.037  21.077  0.2392  0.2468  0.4699
 1219TIP3    H127852   5.994   0.041  21.159  0.9625  2.1063  0.0217
 1219TIP3    H227853   5.942   0.128  21.047 -2.5373  0.0325 -0.1204
 1220TIP3   OH227854   5.650   4.710  18.929 -0.1312  0.3473 -0.1484
 1220TIP3    H127855   5.645   4.655  19.008  1.9482 -0.4479 -0.5041
 1220TIP3    H227856   5.738   4.748  18.932  0.3098 -0.3278 -2.4650
 1221TIP3   OH227857   5.871   6.575  18.732 -0.5649  0.1979 -0.1684
 1221TIP3    H127858   5.932   6.561  18.659 -0.6032  0.5155 -0.2647
 1221TIP3    H227859   5.785   6.560  18.694 -0.6011  0.6284 -0.2555
 1222TIP3   OH227860   1.533   2.930  19.858  1.0560 -0.2698 -0.2420
 1222TIP3    H127861   1.589   3.000  19.893 -0.0670  1.9163 -2.4907
 1222TIP3    H227862   1.448   2.972  19.845  0.1425 -2.2603 -1.0472
 1223TIP3   OH227863   1.181   0.476  18.802  0.1585 -0.0671  0.0266
 1223TIP3    H127864   1.215   0.393  18.835 -0.8036  0.4614  2.5597
 1223TIP3    H227865   1.166   0.529  18.880  0.5072  2.4334 -1.4901
 1224TIP3   OH227866   5.634   5.562  20.103  0.8102  0.1357  0.0054
 1224TIP3    H127867   5.554   5.567  20.155  1.3176  0.0799  0.8104
 1224TIP3    H227868   5.671   5.651  20.105  0.0889  0.5079 -1.5052
 1225TIP3   OH227869   5.847   6.426  20.275 -0.7432  0.1247 -0.3568
 1225TIP3    H127870   5.802   6.391  20.351 -0.7302  0.0247 -0.3949
 1225TIP3    H227871   5.781   6.478  20.229 -0.7102  0.3086 -0.1969
 1226TIP3   OH227872   6.228   4.462  19.367 -0.0033  0.5710 -0.7161
 1226TIP3    H127873   6.218   4.496  19.456  0.6682  1.4190 -0.9515
 1226TIP3    H227874   6.139   4.465  19.330 -0.1469  1.0222 -0.3500
 1227TIP3   OH227875   5.495   1.713  17.338  0.1424 -0.0088 -0.1510
 1227TIP3    H127876   5.575   1.664  17.356 -0.2934 -0.7532 -0.2054
 1227TIP3    H227877   5.426   1.665  17.384 -0.0416  1.5993  1.3946
 1228TIP3   OH227878   3.972   2.341  17.963  0.5913  0.3308 -0.0052
 1228TIP3    H127879   3.903   2.287  17.924  1.0493 -0.2076 -0.0927
 1228TIP3    H227880   4.047   2.281  17.970  0.7997  0.6853  0.8327
 1229TIP3   OH227881   4.700   5.886  19.917 -0.2723  0.0091  0.1130
 1229TIP3    H127882   4.611   5.875  19.948 -0.3487  1.6117  0.5736
 1229TIP3    H227883   4.755   5.843  19.982 -0.6557 -0.0999  0.3636
 1230TIP3   OH227884   4.222   6.590  19.639  0.1538  0.8625 -0.1568
 1230TIP3    H127885   4.142   6.616  19.594 -0.2237  0.4203  0.2598
 1230TIP3    H227886   4.193   6.554  19.722  0.4945 -2.3498 -1.2774
 1231TIP3   OH227887   4.378   0.474  20.054 -0.0625 -0.3602  0.6758
 1231TIP3    H127888   4.311   0.514  20.109 -0.3018 -0.7913  0.7005
 1231TIP3    H227889   4.346   0.486  19.965 -0.3257 -0.8335  0.7033
 1232TIP3   OH227890   0.370   3.108  20.302 -0.1634  0.7217 -0.5259
 1232TIP3    H127891   0.455   3.089  20.340 -0.5035  0.0867 -0.0529
 1232TIP3    H227892   0.311   3.115  20.377 -0.9791 -1.2621 -0.9060
 1233TIP3   OH227893   5.477   3.806  21.158 -0.8020  0.4842 -0.6646
 1233TIP3    H127894   5.444   3.894  21.139 -1.2555  0.1537 -1.4385
 1233TIP3    H227895   5.506   3.772  21.073  1.8741  0.8617 -0.0038
 1234TIP3   OH227896   4.871   4.594  19.313 -0.2189 -0.0805  0.1004
 1234TIP3    H127897   4.949   4.630  19.357  0.3465 -0.8526 -0.2526
 1234TIP3    H227898   4.906   4.529  19.252 -1.2275 -1.3059  0.7844
 1235TIP3   OH227899   3.829   2.918  18.004  0.0905 -0.0578 -0.5641
 1235TIP3    H127900   3.753   2.880  17.960  0.3420  0.5263 -1.5073
 1235TIP3    H227901   3.836   3.006  17.969  0.4704  0.3298  0.4422
 1236TIP3   OH227902   1.120   5.232  19.765  0.4636  0.3344 -0.1301
 1236TIP3    H127903   1.076   5.317  19.755  0.8585  0.9305  2.4411
 1236TIP3    H227904   1.049   5.170  19.780  0.2851  1.1422  3.0965
 1237TIP3   OH227905   5.557   3.125  20.574 -0.5755 -0.3284 -0.4255
 1237TIP3    H127906   5.586   3.043  20.616  0.5398 -0.1266 -0.7722
 1237TIP3    H227907   5.485   3.156  20.630  0.1888 -0.6091  0.7648
 1238TIP3   OH227908   1.649   0.907  19.818  0.1666 -0.7170 -0.8277
 1238TIP3    H127909   1.598   0.829  19.838  0.1575 -1.3424 -3.0156
 1238TIP3    H227910   1.665   0.948  19.903 -0.2637 -2.8141  0.3258
 1239TIP3   OH227911   4.140   3.932  19.062  0.5518 -0.0044  0.3700
 1239TIP3    H127912   4.214   3.979  19.025 -0.8463  1.3812 -0.7758
 1239TIP3    H227913   4.132   3.853  19.008  0.9201  0.0538  0.2288
 1240TIP3   OH227914   1.666   2.452  20.499 -0.1306 -0.3735 -0.0924
 1240TIP3    H127915   1.643   2.426  20.410 -0.5408 -1.5611  0.3323
 1240TIP3    H227916   1.613   2.530  20.516 -0.4678 -0.4687 -0.6927
 1241TIP3   OH227917   3.753   0.100  19.075  0.0827 -0.2250  0.3632
 1241TIP3    H127918   3.767   0.183  19.031 -0.0635 -0.5907 -0.3856
 1241TIP3    H227919   3.682   0.058  19.027  1.7177 -1.8332 -0.8052
 1242TIP3   OH227920   4.789   3.623  21.000 -0.3961  0.1212 -0.1796
 1242TIP3    H127921   4.763   3.664  21.083 -0.8449  0.2371 -0.3746
 1242TIP3    H227922   4.794   3.695  20.938 -0.2050  0.0150 -0.2860
 1243TIP3   OH227923   4.395   1.588  17.043  0.1439 -0.5382 -0.1062
 1243TIP3    H127924   4.395   1.655  17.111 -0.0233  0.7905 -1.3704
 1243TIP3    H227925   4.435   1.631  16.968 -0.1042 -1.8231 -0.9980
 1244TIP3   OH227926   5.426   4.568  21.205  0.0836 -0.3883  0.2420
 1244TIP3    H127927   5.406   4.636  21.141  1.4283  0.5815  0.8116
 1244TIP3    H227928   5.498   4.604  21.257  1.1855 -2.4638  0.2298
 1245TIP3   OH227929   1.001   2.912  20.554 -0.3885  0.2306 -0.3454
 1245TIP3    H127930   0.952   2.982  20.511  1.3356  0.1720 -2.6016
 1245TIP3    H227931   1.027   2.949  20.639 -0.8148  1.7490 -0.8436
 1246TIP3   OH227932   4.270   2.716  17.024 -0.1419  0.7700 -0.6145
 1246TIP3    H127933   4.351   2.705  16.975  0.4165  2.6702 -0.2209
 1246TIP3    H227934   4.291   2.781  17.092 -1.4557 -0.2031  0.8042
 1247TIP3   OH227935   2.717   6.320  19.455  0.3810 -0.0645 -0.0755
 1247TIP3    H127936   2.795   6.269  19.477 -1.0778 -2.1041  0.5966
 1247TIP3    H227937   2.675   6.338  19.539 -0.4699  0.0381 -0.5115
 1248TIP3   OH227938   2.342   4.387  19.997 -0.0452 -0.4826 -0.1007
 1248TIP3    H127939   2.417   4.441  20.024 -0.6104  0.9683 -1.3084
 1248TIP3    H227940   2.368   4.351  19.912 -0.6803  0.0081 -0.5123
 1249TIP3   OH227941   4.105   0.343  19.814 -0.1664  0.2841 -0.0287
 1249TIP3    H127942   4.011   0.338  19.835  0.1667 -0.7275  1.3552
 1249TIP3    H227943   4.110   0.408  19.744 -2.0557 -0.5366 -1.0278
 1250TIP3   OH227944   6.171   2.228  19.296  0.0716  0.3260 -0.7850
 1250TIP3    H127945   6.267   2.223  19.302  0.0008  0.6462  1.3620
 1250TIP3    H227946   6.143   2.136  19.298  0.3331  0.2033 -2.0358
 1251TIP3   OH227947   4.803   6.343  20.682  0.3167  0.2415  0.7674
 1251TIP3    H127948   4.735   6.278  20.700  0.6006  0.5049  3.0704
 1251TIP3    H227949   4.885   6.300  20.704  0.7284  0.5895 -0.0512
 1252TIP3   OH227950   3.299   0.283  17.913 -0.0465  0.1510 -0.5286
 1252TIP3    H127951   3.285   0.189  17.921  0.3129  0.2485  1.9892
 1252TIP3    H227952   3.223   0.315  17.864 -0.1330 -1.4114 -1.5005
 1253TIP3   OH227953   3.680   2.603  18.758  0.1568 -0.0219  0.9818
 1253TIP3    H127954   3.731   2.530  18.723  0.6913  1.0508 -0.6056
 1253TIP3    H227955   3.600   2.562  18.790 -1.3685 -1.0801 -3.3872
 1254TIP3   OH227956   2.775   6.383  19.719 -0.3762  0.1820  0.1362
 1254TIP3    H127957   2.860   6.396  19.761  0.0778 -0.9623 -0.3897
 1254TIP3    H227958   2.719   6.349  19.788  0.2638 -1.3270 -0.0385
 1255TIP3   OH227959   2.582   3.638  20.912 -0.6784 -0.4221 -0.2643
 1255TIP3    H127960   2.644   3.606  20.978 -1.5312 -0.7763  0.3832
 1255TIP3    H227961   2.605   3.730  20.901 -0.3837 -0.4111  0.3696
 1256TIP3   OH227962   4.323   2.311  20.759  0.0620  0.4759  0.1184
 1256TIP3    H127963   4.237   2.276  20.782  0.2592 -0.7158 -0.8536
 1256TIP3    H227964   4.361   2.337  20.843 -1.6531  2.0635  0.4552
 1257TIP3   OH227965   2.965   1.670  18.378 -0.4012  0.7397  0.2842
 1257TIP3    H127966   2.939   1.762  18.372  0.0996  0.9496  1.0768
 1257TIP3    H227967   2.907   1.624  18.318 -2.0550  1.2946  1.3753
 1258TIP3   OH227968   2.712   4.331  18.190  0.5648  0.1757 -0.4416
 1258TIP3    H127969   2.676   4.386  18.259  0.8746  0.1597 -0.2629
 1258TIP3    H227970   2.720   4.389  18.115  1.5339  0.5711 -0.0557
 1259TIP3   OH227971   4.667   4.295  19.940 -0.3937  0.5993  0.1341
 1259TIP3    H127972   4.620   4.312  19.858 -0.6566 -0.0262  0.1453
 1259TIP3    H227973   4.760   4.304  19.917 -0.3588 -1.3898 -0.7116
 1260TIP3   OH227974   2.766   2.662  17.478 -0.6484 -0.2289  0.1115
 1260TIP3    H127975   2.723   2.583  17.511  0.3181 -0.4790  0.8210
 1260TIP3    H227976   2.741   2.730  17.540 -1.3780  0.0074 -0.4288
 1261TIP3   OH227977   2.405   0.084  21.230  0.0276 -0.3334 -0.2730
 1261TIP3    H127978   2.341   0.143  21.270  0.0501  1.3720 -2.5201
 1261TIP3    H227979   2.428   0.022  21.299 -1.1708  1.3538  1.7523
 1262TIP3   OH227980   5.349   1.371  17.748  0.2026 -0.2402 -0.4233
 1262TIP3    H127981   5.269   1.422  17.759 -0.5900 -0.5904 -3.7065
 1262TIP3    H227982   5.327   1.285  17.784 -1.4083 -0.7088 -2.3544
 1263TIP3   OH227983   2.969   2.207  18.202  0.3061 -0.0889  0.6300
 1263TIP3    H127984   3.014   2.212  18.286  1.3655 -1.0918  0.1555
 1263TIP3    H227985   3.037   2.227  18.137 -0.2420 -0.3422 -0.0386
 1264TIP3   OH227986   6.057   5.657  19.269 -0.0696  0.4144  0.1631
 1264TIP3    H127987   6.140   5.704  19.261 -0.6268  1.1505 -1.6856
 1264TIP3    H227988   6.004   5.712  19.326  0.4344  0.3091  0.7464
 1265TIP3   OH227989   5.351   1.986  20.015  0.2272  0.4280 -0.0150
 1265TIP3    H127990   5.443   1.960  20.008 -0.1340 -0.8560 -0.0550
 1265TIP3    H227991   5.304   1.906  20.037 -1.3579  0.3086 -3.2616
 1266TIP3   OH227992   3.275   5.290  19.035  0.1862 -0.5046  0.2052
 1266TIP3    H127993   3.327   5.278  19.114 -0.8553  1.3171  1.2241
 1266TIP3    H227994   3.339   5.283  18.963  1.0462 -2.8702  1.0766
 1267TIP3   OH227995   5.579   0.972  18.567  0.1446  0.6552  0.0513
 1267TIP3    H127996   5.655   1.001  18.617  0.8058  0.0381 -0.5728
 1267TIP3    H227997   5.514   0.948  18.633  1.0269 -0.2204  0.6353
 1268TIP3   OH227998   2.246   5.689  21.255 -0.7472  0.6057  0.3710
 1268TIP3    H127999   2.337   5.691  21.225 -1.5247 -0.9483 -2.5011
 1268TIP3    H228000   2.243   5.617  21.319 -0.5277 -1.8690 -2.2079
 1269TIP3   OH228001   0.840   5.090  19.795 -0.0901 -0.0620  0.3069
 1269TIP3    H128002   0.757   5.045  19.775  0.8188 -0.9936 -1.6600
 1269TIP3    H228003   0.876   5.041  19.869 -1.4472  0.6166  1.4771
 1270TIP3   OH228004   0.104   3.019  17.991 -0.3349  0.0039 -0.4007
 1270TIP3    H128005   0.092   2.924  17.989 -0.5691  0.0174 -2.6780
 1270TIP3    H228006   0.035   3.052  17.933  1.1138  1.3639 -1.4313
 1271TIP3   OH228007   5.431   4.710  18.297 -0.6903 -0.0510  0.3939
 1271TIP3    H128008   5.499   4.760  18.252 -0.0783 -1.6826 -0.5498
 1271TIP3    H228009   5.461   4.619  18.294 -3.0786 -0.8882 -0.4124
 1272TIP3   OH228010   5.481   4.947  19.114  0.4958  0.0259 -0.3346
 1272TIP3    H128011   5.574   4.932  19.130  0.6052 -0.1109 -1.0570
 1272TIP3    H228012   5.463   5.033  19.152  0.6849 -0.3700  0.6806
 1273TIP3   OH228013   2.559   3.699  18.866 -0.1218 -0.0919 -0.0355
 1273TIP3    H128014   2.520   3.658  18.943  0.3563  2.0102  1.4084
 1273TIP3    H228015   2.520   3.653  18.792 -2.1554 -0.8105  1.3998
 1274TIP3   OH228016   1.432   3.432  18.735  0.5852  0.6784  0.7030
 1274TIP3    H128017   1.424   3.428  18.639  0.3651 -0.8994  0.7708
 1274TIP3    H228018   1.488   3.508  18.750  1.5156  0.3405 -0.7510
 1275TIP3   OH228019   4.729   1.107  18.689  0.1733 -0.1500 -0.5431
 1275TIP3    H128020   4.755   1.111  18.597  0.4038  0.5376 -0.4519
 1275TIP3    H228021   4.803   1.145  18.736  0.1392 -0.6739 -0.0508
 1276TIP3   OH228022   2.200   0.370  19.396 -1.0576 -0.2470  0.4405
 1276TIP3    H128023   2.199   0.429  19.471 -0.2523  0.4788 -0.1068
 1276TIP3    H228024   2.161   0.289  19.429 -1.8089  0.4460  1.3118
 1277TIP3   OH228025   5.897   3.758  19.086 -0.3155  0.2039 -0.1386
 1277TIP3    H128026   5.803   3.739  19.096 -0.3801  0.1045 -0.8673
 1277TIP3    H228027   5.920   3.717  19.003  0.7286 -1.1067  0.7436
 1278TIP3   OH228028   5.244   1.841  19.087 -0.4139  0.3652 -0.2740
 1278TIP3    H128029   5.191   1.783  19.141 -0.2128  0.9810  0.6164
 1278TIP3    H228030   5.313   1.786  19.052 -1.1065 -0.2501 -0.7048
 1279TIP3   OH228031   1.746   5.286  19.243  0.1671 -0.3419  0.0571
 1279TIP3    H128032   1.728   5.231  19.319 -1.2267  0.8496  0.6306
 1279TIP3    H228033   1.705   5.240  19.170  2.5129 -2.1015 -0.2837
 1280TIP3   OH228034   2.956   2.396  20.549 -0.5755  0.0973 -0.0564
 1280TIP3    H128035   2.908   2.319  20.581 -2.0880  0.6068 -1.0062
 1280TIP3    H228036   2.976   2.376  20.458 -0.1197  0.4440 -0.0359
 1281TIP3   OH228037   6.208   5.075  19.571  0.1481  0.4044 -0.0145
 1281TIP3    H128038   6.167   5.159  19.590 -0.2017  0.6588 -1.6739
 1281TIP3    H228039   6.160   5.012  19.625 -1.2669  0.9573 -0.5586
 1282TIP3   OH228040   1.016   3.921  20.373  0.1823 -0.3309  0.5183
 1282TIP3    H128041   1.012   3.828  20.352 -0.5972 -1.0494  3.4426
 1282TIP3    H228042   1.107   3.936  20.400  0.3553 -0.1657 -0.1283
 1283TIP3   OH228043   4.366   6.366  20.036  0.3867 -0.5389  0.7490
 1283TIP3    H128044   4.452   6.344  20.072  0.8413  2.5190  1.8450
 1283TIP3    H228045   4.308   6.371  20.113 -0.0808  0.1762  0.3631
 1284TIP3   OH228046   4.228   0.411  20.493 -0.0315  0.0306 -0.2881
 1284TIP3    H128047   4.264   0.443  20.576 -0.1127 -1.1568  0.2212
 1284TIP3    H228048   4.134   0.413  20.505 -0.0502  0.0482 -0.4301
 1285TIP3   OH228049   3.973   0.437  20.613 -0.4709 -0.4180  0.3226
 1285TIP3    H128050   3.932   0.510  20.567  0.0771 -1.0001 -1.1951
 1285TIP3    H228051   3.999   0.472  20.697 -1.5280  0.7197  0.2030
 1286TIP3   OH228052   4.908   3.215  20.976 -0.0034  0.0919 -0.2668
 1286TIP3    H128053   4.872   3.281  21.035  0.8550  0.1954  0.1618
 1286TIP3    H228054   4.997   3.200  21.008 -0.4275 -1.8762  0.1561
 1287TIP3   OH228055   3.445   4.748  18.655  0.4074  0.1893 -0.1265
 1287TIP3    H128056   3.492   4.809  18.712  0.0209 -0.3841  0.8476
 1287TIP3    H228057   3.428   4.797  18.575  0.2158  1.3157  0.5796
 1288TIP3   OH228058   0.147   5.673  20.600  0.2515  0.5464  0.4900
 1288TIP3    H128059   0.133   5.767  20.589 -1.4981  0.3628  0.9302
 1288TIP3    H228060   0.065   5.633  20.571  1.2968 -0.9228 -0.5885
 1289TIP3   OH228061   4.752   6.261  20.195 -0.3350  0.1962 -0.0535
 1289TIP3    H128062   4.825   6.271  20.257 -1.2195 -2.8972  1.6887
 1289TIP3    H228063   4.703   6.343  20.203  1.4001  1.2175  0.8020
 1290TIP3   OH228064   3.365   2.448  20.177 -0.1748  0.0143  0.0016
 1290TIP3    H128065   3.411   2.498  20.244 -1.6065 -0.0502  1.0855
 1290TIP3    H228066   3.295   2.403  20.224  0.1767 -1.8826 -1.1686
 1291TIP3   OH228067   6.098   2.896  19.183  0.3498 -0.7108 -0.8778
 1291TIP3    H128068   6.037   2.834  19.222  0.0621 -0.7183 -1.3273
 1291TIP3    H228069   6.042   2.963  19.142  0.6380  0.8858  1.1853
 1292TIP3   OH228070   4.839   5.143  19.582 -0.0776 -0.1951 -0.1639
 1292TIP3    H128071   4.928   5.166  19.556  0.4663 -2.0254 -0.0487
 1292TIP3    H228072   4.814   5.210  19.646  1.4544 -0.0349  0.2941
 1293TIP3   OH228073   6.548   1.802  20.212  0.1168 -0.0370 -0.1028
 1293TIP3    H128074   6.524   1.713  20.235 -0.2817  0.0666 -0.1057
 1293TIP3    H228075   6.526   1.854  20.289 -0.2449  0.1527 -0.3307
 1294TIP3   OH228076   0.788   3.286  20.529  0.0075 -0.1569  0.1459
 1294TIP3    H128077   0.871   3.258  20.491  0.4371 -0.5562  1.3579
 1294TIP3    H228078   0.807   3.370  20.570 -0.1323 -0.3729  0.6527
 1295TIP3   OH228079   2.672   6.547  20.606 -0.1094 -0.5217  0.0560
 1295TIP3    H128080   2.741   6.571  20.545  1.4761 -3.2786  0.5967
 1295TIP3    H228081   2.715   6.542  20.691 -1.9683  1.8345  1.2661
 1296TIP3   OH228082   0.389   1.156  18.402  0.4703 -0.1107 -0.0421
 1296TIP3    H128083   0.469   1.107  18.386  1.2679  0.8555  0.8800
 1296TIP3    H228084   0.386   1.223  18.333 -0.5716 -1.3299 -1.2447
 1297TIP3   OH228085   5.293   0.608  20.759 -0.6982  0.4383  0.3252
 1297TIP3    H128086   5.249   0.531  20.724 -0.7361  0.8197 -0.4739
 1297TIP3    H228087   5.226   0.652  20.811 -1.0435  0.6099 -0.2605
 1298TIP3   OH228088   2.880   1.326  18.432 -0.0717  0.4476 -0.2707
 1298TIP3    H128089   2.791   1.360  18.441  0.2490  1.2793 -0.1297
 1298TIP3    H228090   2.907   1.350  18.343  0.2135  0.7041 -0.1174
 1299TIP3   OH228091   3.915   1.493  17.976  0.3288 -0.3676 -0.2647
 1299TIP3    H128092   3.930   1.434  17.902  0.3590  0.7334 -1.1595
 1299TIP3    H228093   3.822   1.516  17.971  0.8422  1.7719 -1.6052
 1300TIP3   OH228094   1.294   2.648  18.314  0.3897 -0.3720 -0.3869
 1300TIP3    H128095   1.345   2.706  18.258  0.1119 -0.2269 -0.4941
 1300TIP3    H228096   1.256   2.584  18.254  0.5149 -0.5275 -0.2971
 1301TIP3   OH228097   4.508   3.661  20.863 -0.1525 -0.3821 -0.4977
 1301TIP3    H128098   4.588   3.673  20.812  0.2254  0.6636  0.2942
 1301TIP3    H228099   4.534   3.600  20.933 -0.8799 -2.4578 -1.9408
 1302TIP3   OH228100   2.974   4.692  20.004  1.0377 -0.4180 -0.0012
 1302TIP3    H128101   3.001   4.707  19.914  0.4119  1.2281  0.0591
 1302TIP3    H228102   3.047   4.724  20.057  0.7112  0.1883  0.0927
 1303TIP3   OH228103   1.787   0.000  18.229  0.0193 -0.0777  0.1344
 1303TIP3    H128104   1.759  -0.053  18.155 -0.3921  0.6816 -0.2707
 1303TIP3    H228105   1.722   0.070  18.235 -1.7158 -1.7030  3.0701
 1304TIP3   OH228106   1.979   4.783  18.666  0.2564  0.2243  0.0671
 1304TIP3    H128107   1.922   4.708  18.648  2.3565 -1.3863 -0.2685
 1304TIP3    H228108   2.066   4.755  18.637  1.6468  1.7733  2.3520
 1305TIP3   OH228109   2.871   1.749  19.585 -0.2891  0.1559 -0.5579
 1305TIP3    H128110   2.924   1.701  19.522 -0.6683 -0.4734 -0.4008
 1305TIP3    H228111   2.816   1.807  19.531  1.0821  1.3801 -0.6887
 1306TIP3   OH228112   4.533   0.905  17.394 -0.5801 -0.2294 -0.1343
 1306TIP3    H128113   4.607   0.966  17.395 -0.5608 -0.1941 -1.6856
 1306TIP3    H228114   4.571   0.820  17.419 -0.2273  0.0003  0.1105
 1307TIP3   OH228115   6.243   0.864  18.600  0.2902  0.1165  0.6717
 1307TIP3    H128116   6.200   0.779  18.596 -0.7759  0.6541  0.1638
 1307TIP3    H228117   6.300   0.865  18.523 -2.2467  1.1208 -1.3628
 1308TIP3   OH228118   5.759   2.654  20.334  0.1723  0.4859  0.1805
 1308TIP3    H128119   5.702   2.676  20.260 -0.1227 -0.2836  0.1638
 1308TIP3    H228120   5.845   2.687  20.308  0.3703 -0.9170 -1.1243
 1309TIP3   OH228121   3.408   2.519  19.331 -0.0798  0.1489  0.1263
 1309TIP3    H128122   3.482   2.533  19.273 -1.8513  1.3464 -2.0160
 1309TIP3    H228123   3.369   2.437  19.302 -0.1515  0.0096  0.6021
 1310TIP3   OH228124   5.218   1.764  18.499  0.0957 -0.5843  0.0138
 1310TIP3    H128125   5.194   1.671  18.504 -0.9000 -0.4358 -1.2000
 1310TIP3    H228126   5.295   1.766  18.442  0.5196 -0.7119  0.5767
 1311TIP3   OH228127   4.180   2.202  17.777 -0.2283 -0.9665 -0.0478
 1311TIP3    H128128   4.257   2.146  17.770  0.3643 -0.2258  0.4352
 1311TIP3    H228129   4.131   2.185  17.696  0.1214 -1.8993 -0.0766
 1312TIP3   OH228130   0.749   3.932  19.522 -0.3008  0.6157  0.2162
 1312TIP3    H128131   0.835   3.969  19.502 -0.3768  0.5053 -0.3334
 1312TIP3    H228132   0.756   3.840  19.496 -1.5820  1.2978 -3.0247
 1313TIP3   OH228133   1.042   0.786  20.345  0.0232  0.4606  1.2165
 1313TIP3    H128134   1.003   0.873  20.358  0.2784  0.8282 -0.2821
 1313TIP3    H228135   1.085   0.792  20.259 -1.4932 -1.7002  0.2264
 1314TIP3   OH228136   2.307   2.400  19.988 -0.1222 -0.3872 -0.0396
 1314TIP3    H128137   2.318   2.305  19.996 -0.6213 -0.5645 -1.2541
 1314TIP3    H228138   2.228   2.420  20.038  0.4188 -0.4842  0.8720
 1315TIP3   OH228139   2.924   2.043  19.935  0.1976  0.1194 -0.1549
 1315TIP3    H128140   2.842   2.035  19.886  0.5956  0.1894 -0.8578
 1315TIP3    H228141   2.932   2.136  19.954  0.0446  0.0928  0.0428
 1316TIP3   OH228142   0.053   0.670  20.628 -0.1911  0.1451  0.4756
 1316TIP3    H128143   0.020   0.680  20.717 -0.1918 -0.5373  0.5588
 1316TIP3    H228144   0.021   0.747  20.581 -1.2660 -0.1225  0.7425
 1317TIP3   OH228145   2.437   0.207  19.513 -0.4022 -0.0457 -0.5005
 1317TIP3    H128146   2.384   0.243  19.584 -0.3400 -2.0766  0.6663
 1317TIP3    H228147   2.526   0.237  19.532 -0.7190  1.3629 -1.0989
 1318TIP3   OH228148   2.894   3.083  20.680 -0.3242  0.0456  0.4445
 1318TIP3    H128149   2.826   3.119  20.624  0.3374  1.0462  0.2567
 1318TIP3    H228150   2.930   3.009  20.631 -0.1278  0.5686 -0.2047
 1319TIP3   OH228151   6.461   3.586  19.400 -0.3205 -0.1009 -0.2889
 1319TIP3    H128152   6.420   3.584  19.314 -0.4309  0.4555 -0.2541
 1319TIP3    H228153   6.389   3.578  19.462 -0.2486 -0.4261 -0.2468
 1320TIP3   OH228154   5.186   2.233  21.088 -0.1040  0.0416  0.2171
 1320TIP3    H128155   5.279   2.222  21.108  0.2015  0.8222 -0.6932
 1320TIP3    H228156   5.156   2.144  21.067  0.8293 -0.0222 -1.0175
 1321TIP3   OH228157   3.471   5.918  20.237 -0.4010 -0.3095 -0.5820
 1321TIP3    H128158   3.543   5.951  20.291 -1.0279  1.8710 -0.9585
 1321TIP3    H228159   3.400   5.902  20.300 -0.0679 -1.0788 -0.3867
 1322TIP3   OH228160   3.609   3.503  21.000  0.4074 -0.2874 -0.1488
 1322TIP3    H128161   3.561   3.428  21.036  0.1815 -0.5413 -0.9678
 1322TIP3    H228162   3.542   3.568  20.982  0.4933 -0.2617 -0.3689
 1323TIP3   OH228163   2.720   4.941  19.493 -0.4699 -0.2549 -0.1119
 1323TIP3    H128164   2.701   4.891  19.414  1.0457 -0.1057 -0.6060
 1323TIP3    H228165   2.660   5.015  19.489  0.1220  0.1873 -1.5772
 1324TIP3   OH228166   1.845   5.108  19.920 -0.3599  0.3122  0.1319
 1324TIP3    H128167   1.896   5.044  19.970  1.8768  0.0446 -2.2731
 1324TIP3    H228168   1.781   5.056  19.872  1.5027 -0.2606 -1.8784
 1325TIP3   OH228169   3.585   6.204  19.025  0.4560  0.4809 -0.0826
 1325TIP3    H128170   3.496   6.184  18.998  0.0201 -1.4572  2.3928
 1325TIP3    H228171   3.628   6.118  19.034  2.4233  1.3300 -0.7058
 1326TIP3   OH228172   5.153   0.126  19.437  0.5744 -0.0902  0.2023
 1326TIP3    H128173   5.198   0.042  19.453  0.5729  0.1646  1.6827
 1326TIP3    H228174   5.080   0.103  19.380 -0.7688 -1.5438  2.3799
 1327TIP3   OH228175   2.387   5.127  20.231  0.0068  0.0046  0.0021
 1327TIP3    H128176   2.428   5.041  20.222  1.1600  0.2307  2.3335
 1327TIP3    H228177   2.297   5.107  20.257 -0.4823 -0.4774 -1.9418
 1328TIP3   OH228178   5.945   2.508  20.547 -0.1441 -0.3234 -0.2313
 1328TIP3    H128179   5.978   2.594  20.573 -1.8054 -0.2167  1.7129
 1328TIP3    H228180   6.002   2.482  20.475  1.9826  1.3015  0.7505
 1329TIP3   OH228181   3.518   2.032  19.843  0.3340 -0.1095  0.1902
 1329TIP3    H128182   3.504   1.988  19.759 -1.5473 -0.0417  0.4173
 1329TIP3    H228183   3.430   2.056  19.872  1.1850  2.8558  0.6137
 1330TIP3   OH228184   5.451   6.129  18.369 -0.1328 -0.0103 -1.0623
 1330TIP3    H128185   5.379   6.188  18.390 -1.1502 -0.5373 -2.8206
 1330TIP3    H228186   5.514   6.184  18.322  0.1176  0.2161 -0.4702
 1331TIP3   OH228187   3.024   4.552  17.473 -0.0805 -0.0845 -0.4561
 1331TIP3    H128188   3.003   4.459  17.465 -0.1917  0.0156 -1.5073
 1331TIP3    H228189   2.946   4.590  17.514 -0.0442 -0.4450 -0.0427
 1332TIP3   OH228190   0.740   2.951  18.560 -0.1837 -0.2220 -0.3938
 1332TIP3    H128191   0.817   2.894  18.548 -1.1762 -1.6318 -0.3453
 1332TIP3    H228192   0.758   3.027  18.506  1.1899 -0.5926 -0.4958
 1333TIP3   OH228193   6.248   4.228  18.839 -0.0628  0.0293 -0.1467
 1333TIP3    H128194   6.186   4.299  18.855  0.1775  0.3004 -0.4211
 1333TIP3    H228195   6.265   4.192  18.927 -0.0094  0.4586  0.0227
 1334TIP3   OH228196   3.087   2.711  19.144  0.4523  0.3697 -0.8481
 1334TIP3    H128197   3.016   2.751  19.093  1.2059 -0.2456 -2.4694
 1334TIP3    H228198   3.155   2.778  19.148  1.4874 -0.4295 -3.0812
 1335TIP3   OH228199   0.156   4.037  19.077  0.1403 -0.0819  0.1091
 1335TIP3    H128200   0.122   4.017  19.164 -0.6210 -0.6439 -0.3005
 1335TIP3    H228201   0.244   4.069  19.092  0.3675 -1.0824  1.0255
 1336TIP3   OH228202   3.980   1.279  20.934  0.1786 -0.1972 -0.2179
 1336TIP3    H128203   4.066   1.321  20.927 -0.1113  0.5721  0.6492
 1336TIP3    H228204   4.000   1.191  20.967  0.6164  0.1312  0.4297
 1337TIP3   OH228205   0.335   2.975  19.091 -0.3787 -0.2876 -0.0330
 1337TIP3    H128206   0.333   2.960  19.186 -2.4133 -1.0112 -0.1520
 1337TIP3    H228207   0.322   2.888  19.053 -1.4628  0.2472 -0.9301
 1338TIP3   OH228208   2.192   3.688  18.710 -0.3844 -0.2131 -0.5235
 1338TIP3    H128209   2.223   3.731  18.631  1.0635  2.2250  1.2316
 1338TIP3    H228210   2.145   3.756  18.758 -0.2970 -1.3065  1.2223
 1339TIP3   OH228211   1.748   5.389  18.463 -0.1257  0.2281  0.3842
 1339TIP3    H128212   1.700   5.366  18.384 -0.4600 -0.5648  0.8005
 1339TIP3    H228213   1.710   5.472  18.492 -0.9339 -0.1577  0.4488
 1340TIP3   OH228214   3.116   0.712  18.164  0.3569  0.9963 -0.9848
 1340TIP3    H128215   3.109   0.795  18.116 -0.3220  0.3436 -2.0603
 1340TIP3    H228216   3.208   0.686  18.152  0.2589  0.9631 -1.7567
 1341TIP3   OH228217   5.234   3.335  21.280  0.0870 -0.4586 -0.2903
 1341TIP3    H128218   5.324   3.309  21.299  0.8093 -0.3660 -3.1684
 1341TIP3    H228219   5.225   3.325  21.185 -2.6835  0.3897 -0.2205
 1342TIP3   OH228220   5.543   2.724  21.060  0.2677 -0.1280  0.2407
 1342TIP3    H128221   5.543   2.653  20.995 -1.2165 -0.5915  0.7107
 1342TIP3    H228222   5.622   2.774  21.040  0.2915 -0.7386 -1.4010
 1343TIP3   OH228223   5.918   1.318  18.690 -0.2794  0.0164  0.8062
 1343TIP3    H128224   5.836   1.315  18.642  0.3765 -2.4259 -0.2915
 1343TIP3    H228225   5.900   1.272  18.772 -0.3238  0.6165  1.1401
 1344TIP3   OH228226   2.745   6.227  20.309  0.0364  0.0196  0.5999
 1344TIP3    H128227   2.764   6.158  20.246  1.9801 -0.1223  1.2961
 1344TIP3    H228228   2.657   6.206  20.341  0.8860 -2.6605  1.4259
 1345TIP3   OH228229   1.557   6.258  18.286  0.0711 -0.0252  0.0492
 1345TIP3    H128230   1.615   6.303  18.226  0.7258 -1.8249 -0.7150
 1345TIP3    H228231   1.506   6.198  18.231 -0.0883 -0.9253  1.1399
 1346TIP3   OH228232   2.276   1.278  18.211 -0.1986  0.3876  0.3107
 1346TIP3    H128233   2.305   1.262  18.121 -1.0320 -1.4083  0.3150
 1346TIP3    H228234   2.203   1.217  18.223 -0.2155  0.7305  2.1443
 1347TIP3   OH228235   4.818   0.533  19.360  0.1272 -0.2049  0.1836
 1347TIP3    H128236   4.841   0.440  19.367  0.0247 -0.2072  0.4977
 1347TIP3    H228237   4.792   0.558  19.449  1.1158  0.3818  0.3170
 1348TIP3   OH228238   5.969   0.378  19.543  0.0122 -0.1448 -0.3486
 1348TIP3    H128239   5.893   0.406  19.594 -1.0736  0.5620 -2.2491
 1348TIP3    H228240   5.963   0.282  19.542 -1.0639 -0.0887 -0.7488
 1349TIP3   OH228241   5.878   1.122  18.467  0.7680 -0.1161  0.2962
 1349TIP3    H128242   5.930   1.078  18.534  0.8573 -1.1471 -0.4280
 1349TIP3    H228243   5.914   1.091  18.384  0.4889  0.9403 -0.2407
 1350TIP3   OH228244   0.921   3.623  17.988 -0.5485 -0.5630  0.3513
 1350TIP3    H128245   0.920   3.715  17.962  2.0345 -1.2429 -2.7944
 1350TIP3    H228246   0.990   3.617  18.053 -0.6696 -0.3066  0.5057
 1351TIP3   OH228247   1.747   4.909  18.728 -0.3921 -0.4322 -0.5342
 1351TIP3    H128248   1.837   4.877  18.721 -0.7178 -1.3643 -0.6709
 1351TIP3    H228249   1.697   4.852  18.670 -1.2702 -0.7196  0.4725
 1352TIP3   OH228250   1.730   1.810  20.078 -0.2997  0.8288 -0.0337
 1352TIP3    H128251   1.708   1.900  20.102 -1.1432  0.4544  0.6684
 1352TIP3    H228252   1.823   1.802  20.096  0.2058  2.0893 -1.8462
 1353TIP3   OH228253   2.283   6.271  17.899  0.2289 -0.2050  0.7977
 1353TIP3    H128254   2.225   6.347  17.901 -0.1503 -0.4258 -0.7519
 1353TIP3    H228255   2.368   6.306  17.926 -0.1617  0.5579  1.0750
 1354TIP3   OH228256   3.445   1.277  19.442  0.2653 -0.3225  0.6960
 1354TIP3    H128257   3.421   1.319  19.525 -0.8884 -0.0492  0.2313
 1354TIP3    H228258   3.512   1.335  19.405 -0.7252  0.6887  0.4484
 1355TIP3   OH228259   1.935   5.514  20.516 -0.1587 -0.3799 -0.3081
 1355TIP3    H128260   1.912   5.479  20.602  0.5085  0.6825  0.3224
 1355TIP3    H228261   1.883   5.462  20.454 -1.0827 -0.7702  0.7683
 1356TIP3   OH228262   3.370   4.153  20.866  0.1421  0.0862 -0.5874
 1356TIP3    H128263   3.388   4.092  20.795  1.9887 -0.4266  0.2525
 1356TIP3    H228264   3.388   4.103  20.946 -0.0054  1.2207  0.1768
 1357TIP3   OH228265   1.647   5.629  18.517  0.2013 -0.0423  0.0018
 1357TIP3    H128266   1.618   5.701  18.573  0.3638  1.3487 -1.6244
 1357TIP3    H228267   1.585   5.629  18.444  1.1765 -0.4664 -0.8468
 1358TIP3   OH228268   4.533   0.273  19.443  0.2362  0.1337 -0.0648
 1358TIP3    H128269   4.520   0.367  19.433  0.3037  0.1308 -0.1923
 1358TIP3    H228270   4.535   0.240  19.353  0.4092  0.0385 -0.0269
 1359TIP3   OH228271   0.447   2.152  21.351 -0.2796 -0.1383 -0.7076
 1359TIP3    H128272   0.395   2.176  21.275 -0.1522 -1.7292 -1.3328
 1359TIP3    H228273   0.527   2.113  21.315 -1.0175 -2.6584  0.1507
 1360TIP3   OH228274   3.834   1.077  18.088 -0.2494  0.4053  0.0118
 1360TIP3    H128275   3.791   1.129  18.020  0.0333 -0.2073 -0.6431
 1360TIP3    H228276   3.927   1.093  18.075  0.0387 -2.0563 -1.7531
 1361TIP3   OH228277   1.291   5.215  19.493  0.1236  0.3864 -0.3956
 1361TIP3    H128278   1.325   5.126  19.485  0.1133  0.4835 -1.8031
 1361TIP3    H228279   1.336   5.264  19.424 -1.5320  0.9236 -1.1495
 1362TIP3   OH228280   4.488   2.236  17.532  0.3422 -0.0552 -0.3620
 1362TIP3    H128281   4.565   2.227  17.477 -0.4745  2.4361 -2.0657
 1362TIP3    H228282   4.511   2.305  17.594 -0.1352 -0.0762 -0.1553
 1363TIP3   OH228283   6.418   6.549  20.539  0.2535 -0.3388  0.1698
 1363TIP3    H128284   6.380   6.548  20.627  0.0977  2.1219  0.2099
 1363TIP3    H228285   6.359   6.494  20.487  1.2601 -3.2271  1.8396
 1364TIP3   OH228286   3.244   2.289  19.572  0.1756  0.4559  0.7150
 1364TIP3    H128287   3.257   2.233  19.496 -0.0076  2.0287 -0.5155
 1364TIP3    H228288   3.234   2.228  19.645  0.9689 -1.0842 -0.4018
 1365TIP3   OH228289   4.889   5.939  18.534  0.2740  0.0998  0.5367
 1365TIP3    H128290   4.970   5.975  18.498 -1.0432  1.4108 -1.2851
 1365TIP3    H228291   4.885   5.850  18.500  0.8507  0.0901  0.4871
 1366TIP3   OH228292   2.140   3.010  18.589  0.0879 -0.3893  0.1195
 1366TIP3    H128293   2.217   2.959  18.613  0.5968 -0.2990 -1.2647
 1366TIP3    H228294   2.174   3.083  18.538 -0.8237  0.2591  0.4085
 1367TIP3   OH228295   3.363   0.771  18.715 -0.5011 -0.0555  0.1406
 1367TIP3    H128296   3.447   0.815  18.702  0.1545 -1.2558  0.2164
 1367TIP3    H228297   3.305   0.840  18.747  0.7302  0.5567  1.1144
 1368TIP3   OH228298   1.676   1.854  18.576 -0.1677  0.0991  0.0172
 1368TIP3    H128299   1.744   1.903  18.623 -1.5322  1.2869  0.8424
 1368TIP3    H228300   1.718   1.826  18.495  0.9388  1.9396 -0.1004
 1369TIP3   OH228301   2.223   6.260  21.161  0.8509  0.5219 -0.7152
 1369TIP3    H128302   2.264   6.187  21.207 -0.6044 -0.0257 -0.2436
 1369TIP3    H228303   2.147   6.222  21.117 -0.0861  1.7789 -0.2527
 1370TIP3   OH228304   5.767   3.597  19.982  0.2185  0.0161 -0.9346
 1370TIP3    H128305   5.860   3.616  19.976  0.0603  1.5958  0.5319
 1370TIP3    H228306   5.727   3.682  20.000 -1.2867 -0.8888  0.2245
 1371TIP3   OH228307   3.921   0.336  20.214  0.3465  0.1564 -0.3288
 1371TIP3    H128308   3.963   0.406  20.164 -0.5818  0.0938 -1.2358
 1371TIP3    H228309   3.848   0.308  20.159  0.0400 -0.7748  0.5199
 1372TIP3   OH228310   3.174   1.686  21.121 -0.1453  0.0154 -0.7222
 1372TIP3    H128311   3.140   1.619  21.062 -2.1026  1.9923 -2.0064
 1372TIP3    H228312   3.269   1.678  21.114 -0.2520 -3.2204 -0.0172
 1373TIP3   OH228313   2.216   1.693  20.972 -0.1283  0.3612 -0.1429
 1373TIP3    H128314   2.295   1.638  20.972 -0.6274 -0.3995  1.2388
 1373TIP3    H228315   2.146   1.635  21.002 -0.7886  1.5847  0.7972
 1374TIP3   OH228316   1.122   6.387  19.904  0.6540 -0.0814  0.3102
 1374TIP3    H128317   1.186   6.445  19.863  1.3922 -1.6174 -0.8155
 1374TIP3    H228318   1.173   6.336  19.967 -0.0950  0.8490  1.7179
 1375TIP3   OH228319   5.224   2.802  19.190  0.1036 -0.1561  0.1284
 1375TIP3    H128320   5.131   2.801  19.210  0.1857  2.0357  0.9147
 1375TIP3    H228321   5.259   2.723  19.232 -1.1711 -0.2867  0.9945
 1376TIP3   OH228322   3.074   0.430  20.350  0.2255  0.2892 -0.5257
 1376TIP3    H128323   3.154   0.482  20.353  0.1725  0.3618 -0.3777
 1376TIP3    H228324   3.020   0.473  20.283  0.4816 -0.0067 -0.9261
 1377TIP3   OH228325   2.446   3.388  20.261  0.2006 -0.1944 -0.2601
 1377TIP3    H128326   2.357   3.399  20.228  0.4331  0.5350 -0.6776
 1377TIP3    H228327   2.486   3.325  20.201 -0.3313 -1.3285  0.5414
 1378TIP3   OH228328   2.453   1.517  21.053 -0.0090  0.0950  0.4127
 1378TIP3    H128329   2.509   1.589  21.080  0.2080 -0.2658  0.9468
 1378TIP3    H228330   2.510   1.460  21.001 -0.6732  1.2945 -1.7322
 1379TIP3   OH228331   1.610   1.859  20.687 -1.2107 -0.4519 -0.4839
 1379TIP3    H128332   1.599   1.954  20.690  1.6417  0.0308 -1.6469
 1379TIP3    H228333   1.567   1.832  20.606 -2.0162 -0.1677 -0.1597
 1380TIP3   OH228334   0.698   0.687  20.338  0.4650 -0.1957 -0.4033
 1380TIP3    H128335   0.794   0.681  20.338  0.5933  1.0956  1.5645
 1380TIP3    H228336   0.669   0.597  20.319  2.1011 -1.2561  1.6711
 1381TIP3   OH228337   1.837   2.656  20.201 -0.2741  0.0682  0.0866
 1381TIP3    H128338   1.887   2.606  20.265  0.6671  1.3618  0.4077
 1381TIP3    H228339   1.752   2.611  20.196 -0.4635  0.0422  2.3985
 1382TIP3   OH228340   4.760   4.346  20.858  0.0460 -0.0865  0.4142
 1382TIP3    H128341   4.692   4.352  20.926 -0.9060 -0.5985 -0.4582
 1382TIP3    H228342   4.792   4.435  20.848 -1.4125  0.4201 -0.0317
 1383TIP3   OH228343   3.849   0.391  19.889  0.0224 -0.0916  0.1547
 1383TIP3    H128344   3.847   0.461  19.955  1.4849  0.9792 -0.8901
 1383TIP3    H228345   3.758   0.384  19.860 -0.4898  0.0162  1.6467
 1384TIP3   OH228346   5.486   1.627  21.595  0.7091 -0.0677  0.3877
 1384TIP3    H128347   5.475   1.543  21.639 -2.8183  0.3300  0.5156
 1384TIP3    H228348   5.514   1.687  21.665 -0.5946 -0.3475  1.1646
 1385TIP3   OH228349   0.849   2.556  18.526  0.1169 -0.0460 -0.2058
 1385TIP3    H128350   0.896   2.638  18.537 -0.4452  0.1513  0.7935
 1385TIP3    H228351   0.775   2.562  18.586  0.8992 -1.8949  1.0407
 1386TIP3   OH228352   3.283   5.103  20.846  0.2896 -0.6041  0.3675
 1386TIP3    H128353   3.212   5.099  20.781  0.6381 -2.3270  0.0437
 1386TIP3    H228354   3.363   5.111  20.793  0.5626 -1.8571  0.5510
 1387TIP3   OH228355   4.399   2.149  16.796  0.0323 -0.2127  0.0258
 1387TIP3    H128356   4.449   2.104  16.728 -1.4814  0.2487 -1.4303
 1387TIP3    H228357   4.316   2.171  16.755 -0.7860  0.4200  1.9223
 1388TIP3   OH228358   4.084   4.058  21.111 -0.6669  0.1155 -0.2925
 1388TIP3    H128359   4.127   4.050  21.026  2.0680  1.0032  0.9107
 1388TIP3    H228360   4.026   3.981  21.116 -0.6155 -0.1464 -2.7583
 1389TIP3   OH228361   4.506   4.223  17.718  0.3922 -0.2038  0.2188
 1389TIP3    H128362   4.547   4.306  17.693  1.3654 -0.2719  1.4945
 1389TIP3    H228363   4.412   4.238  17.709  0.5940  0.7652 -0.3469
 1390TIP3   OH228364   0.637   2.585  21.268  0.1329  0.4006  0.2557
 1390TIP3    H128365   0.706   2.641  21.232  0.0025  0.1539 -0.4045
 1390TIP3    H228366   0.674   2.551  21.349  0.6812  0.5014  0.0570
 1391TIP3   OH228367   4.057   3.907  19.313  0.0966 -0.7330 -0.7462
 1391TIP3    H128368   4.081   3.927  19.223 -2.7932  1.6468 -1.1352
 1391TIP3    H228369   4.078   3.986  19.362  1.4714 -1.9334  0.7251
 1392TIP3   OH228370   3.408   2.948  20.629 -0.8600 -0.0024  0.5973
 1392TIP3    H128371   3.364   2.901  20.701  1.2642 -0.4103  1.7143
 1392TIP3    H228372   3.405   2.887  20.555 -2.2397  0.0326  0.6028
 1393TIP3   OH228373   4.087   5.754  21.375 -0.3983 -0.0443 -0.3000
 1393TIP3    H128374   4.019   5.710  21.425 -1.3970 -1.1539 -2.5157
 1393TIP3    H228375   4.169   5.715  21.406 -0.9684 -0.5776  0.5509
 1394TIP3   OH228376   4.316   1.892  19.537  0.6520 -0.1728 -0.4860
 1394TIP3    H128377   4.248   1.945  19.495  0.3907 -0.0954  0.0273
 1394TIP3    H228378   4.297   1.802  19.508 -1.0517 -0.4911  1.3917
 1395TIP3   OH228379   3.082   1.273  20.700  0.5162 -0.6277  0.2338
 1395TIP3    H128380   3.124   1.240  20.779  0.5083  0.7885  0.8654
 1395TIP3    H228381   3.075   1.368  20.715 -0.1413 -0.4367 -1.1563
 1396TIP3   OH228382   0.093   2.200  19.166 -0.2683 -0.1529  0.3129
 1396TIP3    H128383   0.106   2.158  19.252 -0.4849  2.4531  1.7283
 1396TIP3    H228384   0.152   2.275  19.167  1.0503 -1.0229 -2.6343
 1397TIP3   OH228385   6.528   5.462  19.458  0.2252  1.0876 -0.0876
 1397TIP3    H128386   6.498   5.375  19.433 -0.9908  1.2103  0.8177
 1397TIP3    H228387   6.618   5.467  19.427 -0.6260  0.6533 -2.9193
 1398TIP3   OH228388   2.890   4.685  18.299 -0.0665 -0.0861 -0.0639
 1398TIP3    H128389   2.969   4.665  18.249  0.3465  0.9885  0.1113
 1398TIP3    H228390   2.890   4.622  18.371 -0.2497 -1.1395 -0.9679
 1399TIP3   OH228391   3.770   1.814  20.426  0.2061 -0.0583  0.0161
 1399TIP3    H128392   3.782   1.722  20.448  0.3026  0.0881  0.5925
 1399TIP3    H228393   3.826   1.861  20.487  0.7916  0.3414 -0.8156
 1400TIP3   OH228394   3.670   4.238  21.572 -0.7741  0.0607  0.4651
 1400TIP3    H128395   3.577   4.222  21.552 -0.5345 -1.6236  0.5805
 1400TIP3    H228396   3.697   4.302  21.506 -1.9735  0.4742  0.3410
 1401TIP3   OH228397   3.741   0.807  18.087  0.6700  0.7685  0.0480
 1401TIP3    H128398   3.775   0.894  18.066 -0.3306  0.9676 -0.8034
 1401TIP3    H228399   3.648   0.820  18.104  0.8374  0.1193  1.6655
 1402TIP3   OH228400   2.584   4.546  20.067 -0.4416  0.5306  0.4829
 1402TIP3    H128401   2.659   4.522  20.121 -1.5598 -3.4167  0.5795
 1402TIP3    H228402   2.619   4.550  19.978 -0.0180 -1.2477  0.5323
 1403TIP3   OH228403   4.869   3.054  18.574  0.2126  0.0986  0.1234
 1403TIP3    H128404   4.882   2.959  18.574 -1.0841 -0.1135 -0.5518
 1403TIP3    H228405   4.900   3.082  18.488  0.1832  0.2094  0.1498
 1404TIP3   OH228406   0.488   1.326  20.371 -0.3880  0.4558  0.3011
 1404TIP3    H128407   0.527   1.366  20.449 -0.1424  0.5033  0.1561
 1404TIP3    H228408   0.397   1.311  20.395 -0.0717 -0.4892  0.9670
 1405TIP3   OH228409   4.613   4.462  17.688  0.1748 -0.8869  0.4840
 1405TIP3    H128410   4.594   4.532  17.625 -0.5545 -0.1756  1.4566
 1405TIP3    H228411   4.614   4.507  17.773 -0.0068 -2.0170  1.0957
 1406TIP3   OH228412   1.585   1.493  19.330  0.2893 -0.4864 -0.0043
 1406TIP3    H128413   1.639   1.422  19.365  0.9164 -0.5365 -1.0494
 1406TIP3    H228414   1.634   1.573  19.350 -1.2752 -0.0866  2.8619
 1407TIP3   OH228415   4.606   3.095  19.284 -0.3000  0.0120  0.1194
 1407TIP3    H128416   4.668   3.152  19.239 -1.3500  1.1306  0.0311
 1407TIP3    H228417   4.645   3.080  19.370 -1.0461  2.8391  1.0530
 1408TIP3   OH228418   3.921   4.505  18.585  0.1532 -0.3197 -0.2890
 1408TIP3    H128419   3.855   4.451  18.541  0.7196 -0.4153 -1.0498
 1408TIP3    H228420   3.905   4.593  18.554  0.6991 -0.4234 -0.8674
 1409TIP3   OH228421   0.165   6.531  21.245 -0.1993 -0.3309  0.0021
 1409TIP3    H128422   0.213   6.448  21.243  0.3083 -0.0218 -1.0847
 1409TIP3    H228423   0.230   6.595  21.274 -0.6273 -0.3198  0.9846
 1410TIP3   OH228424   1.295   5.988  20.459  0.1517 -0.6471  0.2744
 1410TIP3    H128425   1.203   6.001  20.484  0.4305  0.9528  0.5445
 1410TIP3    H228426   1.291   5.923  20.388 -1.1512 -0.8747  0.5302
 1411TIP3   OH228427   3.712   1.961  17.346  0.1403  0.3302 -1.0345
 1411TIP3    H128428   3.727   1.869  17.369 -0.6068  0.6512  0.9829
 1411TIP3    H228429   3.779   1.981  17.281  1.5288 -1.1365 -0.1289
 1412TIP3   OH228430   3.329   0.168  18.947 -0.0051  0.1278  1.0853
 1412TIP3    H128431   3.421   0.144  18.940 -0.2444 -1.4171  2.5784
 1412TIP3    H228432   3.297   0.165  18.857  1.2168 -0.0840  0.6350
 1413TIP3   OH228433   1.119   4.259  20.080  0.3871  0.2550 -0.0628
 1413TIP3    H128434   1.074   4.334  20.042  0.8438  0.4062 -0.3201
 1413TIP3    H228435   1.055   4.219  20.138 -0.8441 -0.8682 -2.0982
 1414TIP3   OH228436   3.375   1.246  18.745  0.1337  0.2660  0.2827
 1414TIP3    H128437   3.299   1.241  18.803  0.2031  2.3139  0.5911
 1414TIP3    H228438   3.449   1.221  18.800 -0.0785  0.0436  0.4679
 1415TIP3   OH228439   3.307   0.142  18.241  0.0174  0.0380 -0.4161
 1415TIP3    H128440   3.332   0.222  18.288  0.0338  0.3215 -0.9042
 1415TIP3    H228441   3.221   0.120  18.277  0.8398 -0.8167  1.1104
 1416TIP3   OH228442   2.638   3.973  19.390  0.4802 -0.1088  0.2771
 1416TIP3    H128443   2.726   3.990  19.426 -0.5869  1.5768  2.3184
 1416TIP3    H228444   2.608   3.895  19.437  0.5069 -0.0899  0.3266
 1417TIP3   OH228445   2.558   4.054  19.149  0.1978 -0.0337  0.4211
 1417TIP3    H128446   2.575   4.017  19.236 -0.0044  1.2961  1.0577
 1417TIP3    H228447   2.508   3.987  19.104  0.1105 -0.6629  1.4230
 1418TIP3   OH228448   4.894   3.920  21.051 -0.2021  0.2406 -0.7414
 1418TIP3    H128449   4.801   3.901  21.066  0.0661  0.3657  1.3493
 1418TIP3    H228450   4.894   3.985  20.981 -1.7902  1.2575  0.1554
 1419TIP3   OH228451   6.259   2.283  20.867 -0.6650 -0.2471  0.2621
 1419TIP3    H128452   6.237   2.205  20.918 -0.3320 -1.9399 -2.0437
 1419TIP3    H228453   6.201   2.280  20.791 -0.4925  1.6752 -0.0019
 1420TIP3   OH228454   0.141   3.324  20.003 -0.2770 -0.0238  0.2507
 1420TIP3    H128455   0.083   3.394  20.032 -1.8649 -1.1441 -0.0764
 1420TIP3    H228456   0.174   3.353  19.918  0.5280  1.1036  0.9282
 1421TIP3   OH228457   5.953   1.691  20.073  0.3834 -0.3772  0.1895
 1421TIP3    H128458   5.976   1.743  20.150 -0.4623 -1.6008  1.3233
 1421TIP3    H228459   5.955   1.753  20.001 -2.2948  1.7282  1.7013
 1422TIP3   OH228460   2.182   5.788  19.095 -0.2494 -0.6906 -0.2904
 1422TIP3    H128461   2.236   5.793  19.174  0.1755 -0.8864 -0.5603
 1422TIP3    H228462   2.120   5.718  19.111  0.8116 -1.7544 -0.7095
 1423TIP3   OH228463   2.103   1.483  20.420 -0.1064  0.0620  0.1921
 1423TIP3    H128464   2.064   1.513  20.338  0.5453 -0.9627 -0.5187
 1423TIP3    H228465   2.189   1.449  20.395 -0.3998 -1.4450  1.0952
 1424TIP3   OH228466   1.082   3.706  21.581 -0.2906 -0.3253  0.1001
 1424TIP3    H128467   1.053   3.780  21.635  0.4013  0.2700 -0.3249
 1424TIP3    H228468   1.040   3.720  21.496  0.2372 -0.1410 -0.1351
 1425TIP3   OH228469   2.731   2.963  19.473 -1.1147  0.1508  0.0254
 1425TIP3    H128470   2.694   2.993  19.390 -2.7324 -0.2582  0.5596
 1425TIP3    H228471   2.802   3.025  19.492 -2.6988  2.1030 -0.1434
 1426TIP3   OH228472   2.148   0.782  19.051 -0.1062 -0.2631  0.0892
 1426TIP3    H128473   2.244   0.785  19.051 -0.0861  2.0420  1.5756
 1426TIP3    H228474   2.123   0.831  19.129 -2.5169  1.6968 -1.7501
 1427TIP3   OH228475   3.078   3.989  18.349 -0.3518 -0.5929  0.0661
 1427TIP3    H128476   3.149   3.969  18.289 -0.2132 -0.6461  0.2497
 1427TIP3    H228477   3.025   4.054  18.303 -0.2005 -0.5747 -0.0793
 1428TIP3   OH228478   2.177   0.244  19.863 -0.0631  0.2252 -0.2532
 1428TIP3    H128479   2.103   0.189  19.836 -0.2776  1.6846 -3.0822
 1428TIP3    H228480   2.255   0.192  19.843 -0.2021 -1.2478  2.5703
 1429TIP3   OH228481   0.444   0.077  20.397  0.1936 -0.3174 -0.3814
 1429TIP3    H128482   0.472   0.026  20.320  0.1331 -1.4062  0.2876
 1429TIP3    H228483   0.350   0.090  20.385  0.0710 -0.9953 -0.2293
 1430TIP3   OH228484   4.860   1.563  17.071 -0.8121  0.2261  0.0132
 1430TIP3    H128485   4.912   1.483  17.078 -0.8062 -0.0467 -2.3034
 1430TIP3    H228486   4.770   1.534  17.082 -0.6660  0.4568  2.3960
 1431TIP3   OH228487   2.833   1.014  21.078 -0.5335  0.0714 -0.0150
 1431TIP3    H128488   2.810   0.973  21.161 -0.2318 -1.2601 -0.5754
 1431TIP3    H228489   2.756   1.068  21.056 -1.0329 -0.3796  0.6081
 1432TIP3   OH228490   1.769   0.814  20.232 -0.3676  1.0426 -0.2805
 1432TIP3    H128491   1.746   0.725  20.258 -0.3957  1.2902  0.5611
 1432TIP3    H228492   1.849   0.804  20.180 -0.1380  0.5677  0.1543
 1433TIP3   OH228493   0.724   3.073  20.042 -0.1889 -0.0182 -0.3224
 1433TIP3    H128494   0.631   3.054  20.041 -0.5930  1.6344  0.7715
 1433TIP3    H228495   0.737   3.136  19.971 -0.2755  1.0976  0.6136
 1434TIP3   OH228496   1.666   5.027  19.647  0.3427  0.1791 -0.9163
 1434TIP3    H128497   1.699   5.023  19.557  0.1815  2.0338 -1.1004
 1434TIP3    H228498   1.607   5.102  19.647 -1.4859 -1.1918  0.1945
 1435TIP3   OH228499   3.713   3.045  19.637 -0.3279 -0.2733 -0.2059
 1435TIP3    H128500   3.754   2.971  19.681 -0.2096 -0.7574 -1.1202
 1435TIP3    H228501   3.657   3.006  19.571  0.2847  0.4566 -1.1856
 1436TIP3   OH228502   5.921   5.904  21.071 -0.1114  0.2182  0.0358
 1436TIP3    H128503   5.961   5.853  21.000  0.2312  1.9395 -1.0686
 1436TIP3    H228504   5.994   5.945  21.116 -0.3681 -0.4387  1.0827
 1437TIP3   OH228505   3.991   1.098  18.723  0.3275  0.6084  0.2988
 1437TIP3    H128506   4.000   1.003  18.715 -0.5477  0.4070  1.4746
 1437TIP3    H228507   3.913   1.119  18.671  0.8463  0.7821 -0.4337
 1438TIP3   OH228508   3.487   3.720  21.315 -0.2431  0.1088 -0.0434
 1438TIP3    H128509   3.449   3.653  21.258  0.6741 -1.5437  1.2332
 1438TIP3    H228510   3.530   3.672  21.385  0.2633  2.0468  1.0607
 1439TIP3   OH228511   5.557   0.774  20.083  0.2504 -0.2521  0.0389
 1439TIP3    H128512   5.542   0.843  20.148 -2.1749  0.1606 -0.8565
 1439TIP3    H228513   5.566   0.821  20.000  0.0877 -0.9225 -0.3673
 1440TIP3   OH228514   4.985   0.453  19.860 -0.3293 -0.2979  0.3689
 1440TIP3    H128515   4.957   0.523  19.919  0.7793 -0.2073  0.8183
 1440TIP3    H228516   4.988   0.375  19.915  2.7888  0.1697  1.0914
 1441TIP3   OH228517   5.955   0.308  20.760  0.2420 -0.4238 -0.4022
 1441TIP3    H128518   5.859   0.313  20.761  0.2294 -0.0869  1.7568
 1441TIP3    H228519   5.982   0.382  20.706 -0.7247  0.4160  0.2221
 1442TIP3   OH228520   1.905   4.752  19.071 -0.0416 -0.2283 -0.5968
 1442TIP3    H128521   1.977   4.695  19.046  1.1089  0.4285  1.0438
 1442TIP3    H228522   1.829   4.695  19.075  0.4657 -1.0382 -1.8623
 1443TIP3   OH228523   0.284   4.424  18.538  0.6081 -0.2304  0.3912
 1443TIP3    H128524   0.256   4.511  18.510  0.3177 -0.4004  0.1547
 1443TIP3    H228525   0.309   4.436  18.630 -0.1678 -0.0647  0.5860
 1444TIP3   OH228526   5.290   0.935  19.622  0.6200  0.3972  0.1859
 1444TIP3    H128527   5.250   0.961  19.539  1.5052 -0.4544 -0.5275
 1444TIP3    H228528   5.367   0.990  19.630 -0.4459  1.7871  1.3890
 1445TIP3   OH228529   2.649   0.303  19.899 -0.3588 -0.0654  0.0550
 1445TIP3    H128530   2.673   0.346  19.981  0.9834  1.0214 -0.8571
 1445TIP3    H228531   2.676   0.212  19.911  2.1270  0.5843 -0.0088
 1446TIP3   OH228532   3.160   3.936  20.255 -0.1998 -0.2053 -0.1891
 1446TIP3    H128533   3.203   3.862  20.298  0.1570  0.4143  0.5496
 1446TIP3    H228534   3.150   3.909  20.164  1.6208 -0.4210 -0.3513
 1447TIP3   OH228535   2.314   3.350  19.465 -0.3315 -0.4767 -0.1715
 1447TIP3    H128536   2.275   3.404  19.534  1.8447 -0.6564  1.2913
 1447TIP3    H228537   2.305   3.260  19.496 -0.6337 -0.6983 -0.8612
 1448TIP3   OH228538   3.647   2.195  19.247 -0.2394 -0.4770 -0.4338
 1448TIP3    H128539   3.738   2.167  19.262  0.1301  0.1974 -1.3084
 1448TIP3    H228540   3.650   2.290  19.259 -1.4817 -0.7243  2.5795
 1449TIP3   OH228541   3.489   5.205  21.208  0.4497  0.3040  0.4463
 1449TIP3    H128542   3.441   5.143  21.154  3.4078 -1.3224 -0.5730
 1449TIP3    H228543   3.444   5.288  21.195 -0.7101 -0.6162 -2.2037
 1450TIP3   OH228544   0.747   1.137  19.558  0.6071  0.2011  0.6675
 1450TIP3    H128545   0.741   1.204  19.490  2.1641 -0.7401 -0.4392
 1450TIP3    H228546   0.680   1.163  19.622 -2.2094  0.1912 -2.0010
 1451TIP3   OH228547   4.064   6.118  18.295 -0.1598 -0.2949  0.2105
 1451TIP3    H128548   3.977   6.078  18.307 -0.4206 -0.1739 -1.1313
 1451TIP3    H228549   4.047   6.195  18.241  0.8115 -0.3687 -0.2081
 1452TIP3   OH228550   0.938   6.300  18.976  0.1692  0.2263  0.3815
 1452TIP3    H128551   0.978   6.242  18.912 -0.4875  0.8469 -0.6088
 1452TIP3    H228552   1.001   6.371  18.987 -0.1705  0.6464 -0.3574
 1453TIP3   OH228553   3.941   4.382  19.510 -0.1127  0.6560 -0.3814
 1453TIP3    H128554   3.874   4.441  19.476 -0.5409  0.4929  0.1662
 1453TIP3    H228555   3.937   4.393  19.605  0.3210  0.3029 -0.3196
 1454TIP3   OH228556   6.190   3.309  19.399  0.1325  0.2012  0.4779
 1454TIP3    H128557   6.097   3.312  19.423  0.5966  0.0010  2.4960
 1454TIP3    H228558   6.232   3.267  19.474  1.6901 -0.9744 -1.0073
 1455TIP3   OH228559   6.068   2.685  21.130  0.0926  0.0178 -0.3080
 1455TIP3    H128560   5.981   2.648  21.112 -0.1509 -0.2711  1.2985
 1455TIP3    H228561   6.050   2.775  21.157  0.1835 -0.3202  0.9301
 1456TIP3   OH228562   0.376   3.269  18.956 -0.1846 -0.1436  0.1032
 1456TIP3    H128563   0.376   3.295  19.048 -2.6996 -2.4462  0.9191
 1456TIP3    H228564   0.407   3.178  18.958 -1.8408 -0.7778 -1.0381
 1457TIP3   OH228565   3.517   2.610  20.744 -0.1353  0.3249 -0.3368
 1457TIP3    H128566   3.590   2.665  20.773  0.6969 -0.3836 -1.0201
 1457TIP3    H228567   3.439   2.665  20.755  0.1091  0.2548  2.8519
 1458TIP3   OH228568   2.988   1.890  20.678 -0.0012  0.5088  0.1854
 1458TIP3    H128569   2.916   1.857  20.625  0.2369 -1.1719  0.8252
 1458TIP3    H228570   3.062   1.834  20.654  1.1358  2.2241 -0.5001
 1459TIP3   OH228571   0.450   4.174  20.665  0.4305 -0.1056 -0.2125
 1459TIP3    H128572   0.439   4.240  20.733 -0.2593  1.2251 -1.5613
 1459TIP3    H228573   0.376   4.114  20.677 -0.1437  0.5817 -0.2737
 1460TIP3   OH228574   3.032   0.801  20.790 -0.7881 -0.2971 -0.0851
 1460TIP3    H128575   2.953   0.751  20.812 -0.5666  0.1136  1.8482
 1460TIP3    H228576   3.000   0.870  20.731 -1.9723  0.0297  0.8707
 1461TIP3   OH228577   0.127   4.143  19.835 -0.4887  0.8115 -0.0459
 1461TIP3    H128578   0.044   4.170  19.874 -1.2050 -2.4073  1.0094
 1461TIP3    H228579   0.117   4.049  19.820  1.6048  0.9635 -3.5342
 1462TIP3   OH228580   2.771   2.074  18.043  0.1844  0.1198  0.3239
 1462TIP3    H128581   2.821   2.116  18.113  2.5753  0.7383 -1.6288
 1462TIP3    H228582   2.775   2.136  17.970 -1.7015 -0.7711 -0.6074
 1463TIP3   OH228583   5.037   3.993  20.661  0.3588  0.4200 -0.4023
 1463TIP3    H128584   4.985   4.048  20.603 -1.6485  0.3028  1.1679
 1463TIP3    H228585   5.037   4.040  20.745  0.6569 -0.8007  0.3078
 1464TIP3   OH228586   0.632   1.978  18.559 -0.4415  0.0690  0.0996
 1464TIP3    H128587   0.607   2.001  18.648  0.8718  1.0751  0.2458
 1464TIP3    H228588   0.577   2.032  18.503 -0.2115  0.5706  0.3515
 1465TIP3   OH228589   2.692   0.037  19.982  0.1816  0.2155  0.2351
 1465TIP3    H128590   2.749  -0.020  20.033  1.9318  2.9201  1.5285
 1465TIP3    H228591   2.603   0.014  20.010  0.4416 -3.7013 -1.4035
 1466TIP3   OH228592   3.477   1.004  18.629 -0.1111  0.4333  0.4209
 1466TIP3    H128593   3.394   1.047  18.650 -0.5864  0.3122 -1.0445
 1466TIP3    H228594   3.539   1.076  18.615 -0.4067  0.5951 -0.1010
 1467TIP3   OH228595   0.502   6.268  19.290 -0.7499  0.3797 -0.2721
 1467TIP3    H128596   0.577   6.327  19.288 -1.4009  1.2509  0.4817
 1467TIP3    H228597   0.458   6.287  19.372 -0.5088 -1.7640  0.4235
 1468TIP3   OH228598   1.298   4.648  19.526 -0.3378  0.3406 -0.2605
 1468TIP3    H128599   1.358   4.715  19.491 -0.3207  0.5814  0.2189
 1468TIP3    H228600   1.338   4.565  19.502 -0.6825  0.4900 -1.4300
 1469TIP3   OH228601   3.587   4.832  21.313 -0.3683 -0.6757 -0.2719
 1469TIP3    H128602   3.541   4.751  21.292  0.8786 -1.4281 -0.2294
 1469TIP3    H228603   3.649   4.807  21.382 -0.3801  0.4589  0.1817
 1470TIP3   OH228604   5.179   2.005  20.236 -0.3495 -0.9065  0.1802
 1470TIP3    H128605   5.180   2.066  20.310  0.5542 -1.2552  0.4718
 1470TIP3    H228606   5.264   2.018  20.193 -0.3260 -1.6427 -0.0073
 1471TIP3   OH228607   5.804   0.773  20.834  0.0343 -0.1643  0.4554
 1471TIP3    H128608   5.836   0.848  20.884 -0.0155 -0.7238  1.3594
 1471TIP3    H228609   5.859   0.700  20.864  1.3137 -0.1670 -1.7205
 1472TIP3   OH228610   3.508   2.340  17.420  0.4148  0.3841  0.1222
 1472TIP3    H128611   3.486   2.431  17.440 -2.7809 -0.3760  0.5903
 1472TIP3    H228612   3.506   2.336  17.324 -2.5749  0.2500  0.1069
 1473TIP3   OH228613   3.436   3.105  19.058 -0.1501  0.1406 -0.0183
 1473TIP3    H128614   3.404   3.126  19.146 -1.8461 -0.6500 -0.4051
 1473TIP3    H228615   3.385   3.161  19.000  0.6771  0.3648 -0.5490
 1474TIP3   OH228616   1.164   1.369  19.333 -0.3525 -0.0446  0.2100
 1474TIP3    H128617   1.188   1.338  19.246 -0.6185  0.5366 -0.0795
 1474TIP3    H228618   1.232   1.335  19.391 -0.6865 -1.2482 -0.0651
 1475TIP3   OH228619   1.581   4.986  19.978  0.2392 -0.3269  0.4406
 1475TIP3    H128620   1.555   4.941  20.058 -0.3711  1.2264  1.1699
 1475TIP3    H228621   1.505   4.980  19.921 -0.1789  0.4746  0.8826
 1476TIP3   OH228622   0.184   1.691  20.159  0.3533 -0.5286 -0.4900
 1476TIP3    H128623   0.088   1.693  20.161  0.2926  2.7050 -0.9005
 1476TIP3    H228624   0.210   1.691  20.251 -0.0427 -0.6713 -0.3759
 1477TIP3   OH228625   4.160   1.997  20.866 -0.0476  1.0136 -0.3209
 1477TIP3    H128626   4.067   2.013  20.878 -0.5738 -2.0991  0.8028
 1477TIP3    H228627   4.191   1.971  20.953  0.9379 -1.7473 -1.3848
 1478TIP3   OH228628   4.348   1.886  18.936 -1.0602 -0.0320  0.5432
 1478TIP3    H128629   4.293   1.924  19.004  0.5063  4.0653 -0.1816
 1478TIP3    H228630   4.430   1.864  18.981 -0.4907  1.4569  0.2790
 1479TIP3   OH228631   2.958   3.403  20.110  0.2334 -0.4418  0.2823
 1479TIP3    H128632   2.952   3.312  20.084  0.5119 -0.1054 -1.0143
 1479TIP3    H228633   2.878   3.419  20.161  0.6275 -1.6274  1.3269
 1480TIP3   OH228634   6.252   0.125  17.841  0.4649 -0.0969 -0.1450
 1480TIP3    H128635   6.177   0.171  17.878  0.7084 -0.8801  1.3984
 1480TIP3    H228636   6.230   0.113  17.748 -1.3635 -0.4358  0.3021
 1481TIP3   OH228637   6.213   4.899  19.940 -0.4723 -0.6877  0.0823
 1481TIP3    H128638   6.167   4.929  20.019  0.9250 -0.8191  0.9685
 1481TIP3    H228639   6.150   4.915  19.869 -1.2232  0.7635  1.0166
 1482TIP3   OH228640   6.516   2.013  18.216 -0.1867 -0.2735  0.3712
 1482TIP3    H128641   6.518   1.959  18.295 -0.7765 -0.2800  0.3813
 1482TIP3    H228642   6.476   1.957  18.149 -1.7753  0.4809  0.6435
 1483TIP3   OH228643   1.817   3.049  20.049  0.2832 -0.2103 -0.3167
 1483TIP3    H128644   1.855   3.136  20.039  1.6745 -0.8136 -0.5170
 1483TIP3    H228645   1.735   3.063  20.096  0.3490  1.2292 -0.6015
 1484TIP3   OH228646   4.018   3.078  19.847  0.5694 -0.2772  0.3112
 1484TIP3    H128647   4.100   3.084  19.894  0.9542 -1.1488 -0.2045
 1484TIP3    H228648   3.999   2.984  19.843  0.4894 -0.2368 -1.1236
 1485TIP3   OH228649   6.346   6.354  18.255 -0.5526  0.3776 -0.1731
 1485TIP3    H128650   6.434   6.375  18.286 -0.9480  1.6213  0.1524
 1485TIP3    H228651   6.359   6.285  18.190  0.5219 -0.4906  0.9015
 1486TIP3   OH228652   6.531   3.947  20.884 -0.3383  0.6231 -0.3265
 1486TIP3    H128653   6.545   3.951  20.978 -0.4803 -1.4286 -0.1728
 1486TIP3    H228654   6.554   4.035  20.852  2.4608  0.5615  1.2306
 1487TIP3   OH228655   2.080   0.507  20.988  1.2270 -0.2082  0.0400
 1487TIP3    H128656   1.998   0.477  21.026  1.1179  1.8894  1.6614
 1487TIP3    H228657   2.147   0.476  21.048  1.4270 -0.1653 -0.1594
 1488TIP3   OH228658   2.313   0.444  21.118 -0.0323 -0.0106 -0.1369
 1488TIP3    H128659   2.295   0.364  21.067 -0.6726  0.0208  0.0235
 1488TIP3    H228660   2.336   0.413  21.205  0.7250 -0.0518 -0.3452
 1489TIP3   OH228661   6.074   0.632  20.178  0.2711 -0.2253 -0.1048
 1489TIP3    H128662   5.994   0.678  20.203  1.7335  1.9809  0.8388
 1489TIP3    H228663   6.066   0.546  20.220 -1.9895 -0.4524 -0.8618
 1490TIP3   OH228664   1.799   2.406  18.615  0.2778  0.5076  0.3023
 1490TIP3    H128665   1.745   2.392  18.692 -0.7822 -3.4446 -0.9295
 1490TIP3    H228666   1.761   2.484  18.573 -1.7572  0.3208  1.6456
 1491TIP3   OH228667   5.896   6.595  19.765 -0.4841  0.2594  0.4907
 1491TIP3    H128668   5.985   6.567  19.788  0.1607 -0.1179 -2.1294
 1491TIP3    H228669   5.905   6.633  19.678 -2.9025  0.2828  0.1981
 1492TIP3   OH228670   4.735   1.948  19.243 -0.2590  0.6539 -0.5398
 1492TIP3    H128671   4.785   1.971  19.165 -1.8070  0.0981 -1.7384
 1492TIP3    H228672   4.768   2.007  19.311 -0.6680  2.9984 -2.2569
 1493TIP3   OH228673   2.051   4.727  19.767  0.1077  0.4869  0.0742
 1493TIP3    H128674   1.968   4.774  19.762 -0.4700 -0.6152 -1.0863
 1493TIP3    H228675   2.056   4.677  19.686  1.5304 -0.0909  0.4851
 1494TIP3   OH228676   3.438   2.357  17.822 -0.4478 -0.4567 -0.3628
 1494TIP3    H128677   3.416   2.264  17.826  0.0304 -0.5687  3.4228
 1494TIP3    H228678   3.533   2.359  17.811 -0.4265 -0.4203 -0.1716
 1495TIP3   OH228679   0.501   2.718  19.923 -0.3247 -0.2668  0.1495
 1495TIP3    H128680   0.432   2.690  19.984 -0.7769 -0.1116 -0.2915
 1495TIP3    H228681   0.484   2.811  19.907 -0.0595 -0.2454 -0.0255
 1496TIP3   OH228682   3.886   6.071  20.085 -0.4118 -0.2688  0.2250
 1496TIP3    H128683   3.894   6.165  20.098 -0.1734 -0.5026  2.2641
 1496TIP3    H228684   3.829   6.060  20.009  1.8685  1.4954 -1.8900
 1497TIP3   OH228685   0.761   6.398  18.779 -0.0531 -0.0915  0.1842
 1497TIP3    H128686   0.812   6.402  18.860 -0.4715  0.8592  0.4094
 1497TIP3    H228687   0.825   6.413  18.709  0.2937 -0.8242  0.3376
 1498TIP3   OH228688   5.803   4.570  20.724 -0.2110  0.3331  0.1006
 1498TIP3    H128689   5.824   4.642  20.665 -1.4362  1.2955  0.7840
 1498TIP3    H228690   5.862   4.581  20.799  0.6515 -0.2981 -0.4683
 1499TIP3   OH228691   2.020   0.085  18.092 -0.0219 -0.1346 -0.1976
 1499TIP3    H128692   1.948   0.081  18.155 -2.9733 -1.3588 -3.3754
 1499TIP3    H228693   2.035   0.179  18.078 -0.2119  0.1373  1.2806
 1500TIP3   OH228694   6.438   5.158  20.833 -0.0960 -0.5483 -0.3666
 1500TIP3    H128695   6.480   5.229  20.881 -0.7619 -0.6720  0.4216
 1500TIP3    H228696   6.461   5.079  20.881  2.3757 -1.1906 -2.4000
 1501TIP3   OH228697   4.695   5.360  20.611  0.2396  0.2718  0.2559
 1501TIP3    H128698   4.730   5.349  20.700 -0.2709 -0.7522  0.3397
 1501TIP3    H228699   4.610   5.316  20.613  0.3864 -0.0788 -0.8521
 1502TIP3   OH228700   6.207   4.474  19.655  0.1101  0.0416  0.7300
 1502TIP3    H128701   6.157   4.500  19.732 -0.4063 -0.0255  0.4213
 1502TIP3    H228702   6.193   4.380  19.648  1.2879 -0.1922  1.3544
 1503TIP3   OH228703   1.326   2.238  18.461  0.1170 -0.2822  0.6431
 1503TIP3    H128704   1.389   2.284  18.405 -1.0281  0.6303  0.0688
 1503TIP3    H228705   1.380   2.176  18.510  1.3873  0.0539 -0.2510
 1504TIP3   OH228706   5.107   0.947  19.989 -0.3203  0.0306 -0.2294
 1504TIP3    H128707   5.177   0.898  19.946  0.9487  0.8599  0.7954
 1504TIP3    H228708   5.107   0.915  20.079 -0.6125  0.7036  0.0151
 1505TIP3   OH228709   4.279   6.182  19.796 -0.0430  0.1235 -0.0305
 1505TIP3    H128710   4.354   6.140  19.754  0.2939  0.6956 -0.0051
 1505TIP3    H228711   4.303   6.188  19.888 -0.6013 -0.7323  0.1843
 1506TIP3   OH228712   1.154   0.532  17.982 -0.1748  0.0491 -0.4951
 1506TIP3    H128713   1.232   0.490  17.944  0.9880 -0.6635  2.4098
 1506TIP3    H228714   1.080   0.485  17.943  0.9289 -1.0175 -1.3939
 1507TIP3   OH228715   0.093   0.957  21.359 -0.4450 -0.1104 -0.8851
 1507TIP3    H128716   0.140   0.875  21.371 -0.8463 -0.0967  1.2618
 1507TIP3    H228717   0.148   1.023  21.401 -0.4967  0.5994 -1.8956
 1508TIP3   OH228718   4.032   4.356  20.057 -0.0044 -0.0356  0.0775
 1508TIP3    H128719   4.017   4.356  20.152 -0.2608  1.6365  0.0746
 1508TIP3    H228720   4.107   4.415  20.045 -0.2752  0.1386 -0.8082
 1509TIP3   OH228721   0.069   2.093  19.896  0.1381 -0.1916 -0.2875
 1509TIP3    H128722   0.140   2.148  19.929  0.3966 -0.1739 -0.8691
 1509TIP3    H228723  -0.008   2.122  19.944  0.3841  0.2845 -0.1776
 1510TIP3   OH228724   5.525   5.248  17.871 -0.8179 -0.3502  0.6719
 1510TIP3    H128725   5.538   5.164  17.827  0.4123 -0.1165  0.5360
 1510TIP3    H228726   5.470   5.299  17.811  2.0668  0.5344 -1.4619
 1511TIP3   OH228727   1.000   1.045  19.395 -0.4252  0.4097  0.2009
 1511TIP3    H128728   1.052   1.083  19.466 -0.1401  4.2927 -1.7867
 1511TIP3    H228729   1.062   0.989  19.348  0.8112  1.6453  0.2874
 1512TIP3   OH228730   1.532   0.366  20.177  0.1055 -0.1470 -0.2806
 1512TIP3    H128731   1.523   0.315  20.096  0.3405 -1.0684  0.2690
 1512TIP3    H228732   1.496   0.311  20.245 -0.0619  0.6196  0.2632
 1513TIP3   OH228733   1.061   5.548  18.889 -0.1934 -0.0392  0.3634
 1513TIP3    H128734   1.103   5.595  18.817 -0.7299 -0.7214 -0.4046
 1513TIP3    H228735   1.018   5.617  18.940  0.2480  0.4548  0.0817
 1514TIP3   OH228736   3.977   3.323  17.442  0.2412 -0.1657  0.4284
 1514TIP3    H128737   4.048   3.287  17.388  0.1564 -1.8909  1.4003
 1514TIP3    H228738   3.898   3.308  17.390  0.4874  1.1572 -0.3669
 1515TIP3   OH228739   3.706   5.762  17.777  0.3503  0.3692 -0.4333
 1515TIP3    H128740   3.750   5.847  17.778 -0.0200  0.5664  0.2764
 1515TIP3    H228741   3.772   5.701  17.746  1.1794  0.6432  0.7228
 1516TIP3   OH228742   0.961   2.961  19.720  0.1033  0.3169 -0.7502
 1516TIP3    H128743   1.038   2.942  19.773  1.8145  1.4997 -2.6647
 1516TIP3    H228744   0.963   2.895  19.650  0.0231  1.0236 -1.4334
 1517TIP3   OH228745   3.560   2.504  19.994  0.3279  0.9532 -0.4540
 1517TIP3    H128746   3.580   2.420  19.952  1.9411  1.5638 -0.9603
 1517TIP3    H228747   3.496   2.482  20.061 -0.2615 -0.4750 -1.4321
 1518TIP3   OH228748   0.255   1.721  20.451 -0.3816 -0.1304  0.1063
 1518TIP3    H128749   0.209   1.803  20.467 -3.0292 -1.4535 -0.2106
 1518TIP3    H228750   0.237   1.667  20.528 -0.9428 -1.3144 -0.8106
 1519TIP3   OH228751   2.519   3.996  18.492  0.0969 -0.0219 -0.0266
 1519TIP3    H128752   2.604   3.973  18.453 -0.8781  2.0389 -3.8468
 1519TIP3    H228753   2.526   4.089  18.512 -1.0735  0.0533  0.0877
 1520TIP3   OH228754   5.616   1.027  20.880 -0.2970 -0.2046  0.1894
 1520TIP3    H128755   5.584   0.939  20.862 -1.0668  0.2624 -0.8404
 1520TIP3    H228756   5.556   1.061  20.947  0.2447 -0.5889  0.8859
 1521TIP3   OH228757   2.248   5.104  20.929  0.5613 -0.1485  0.0663
 1521TIP3    H128758   2.171   5.046  20.926 -0.4193  1.1161 -0.0151
 1521TIP3    H228759   2.271   5.109  21.021 -0.9654  1.3562  0.4035
 1522TIP3   OH228760   4.620   5.501  17.481 -0.3584 -0.1836  0.4367
 1522TIP3    H128761   4.710   5.532  17.481 -0.7789  1.0774 -0.1574
 1522TIP3    H228762   4.568   5.577  17.506 -1.2380 -1.0023  1.2012
 1523TIP3   OH228763   4.257   2.917  20.582  0.1762  0.3775  0.0089
 1523TIP3    H128764   4.318   2.926  20.509  1.7031 -0.5925  1.0941
 1523TIP3    H228765   4.251   3.005  20.619  0.7997  0.5203 -0.2163
 1524TIP3   OH228766   3.213   1.578  18.252  0.0519  0.2556 -0.4130
 1524TIP3    H128767   3.158   1.624  18.314  0.3398 -1.4228  1.1900
 1524TIP3    H228768   3.249   1.646  18.196 -0.9615  1.7390  0.6679
 1525TIP3   OH228769   3.669   1.564  17.900  0.3905  0.0486 -0.3650
 1525TIP3    H128770   3.659   1.543  17.808  0.6342 -1.4957 -0.0651
 1525TIP3    H228771   3.581   1.560  17.936  0.3447  0.2624 -0.4539
 1526TIP3   OH228772   1.153   1.838  18.591 -0.7449  0.1028 -0.2355
 1526TIP3    H128773   1.179   1.930  18.600 -1.1309  0.2958 -0.9884
 1526TIP3    H228774   1.092   1.822  18.663  1.7185 -0.4936  1.8852
 1527TIP3   OH228775   3.010   4.390  18.838  0.4176  0.1244  0.1872
 1527TIP3    H128776   2.958   4.383  18.758 -0.6749 -0.8604  0.9532
 1527TIP3    H228777   2.949   4.423  18.903  1.2215  0.6319  0.6966
 1528TIP3   OH228778   6.408   1.315  20.768 -0.8007 -0.3747 -0.1096
 1528TIP3    H128779   6.421   1.235  20.818 -2.0397 -0.5999 -0.1212
 1528TIP3    H228780   6.342   1.364  20.816 -1.0553  0.0065 -0.8224
 1529TIP3   OH228781   5.130   3.626  19.154 -0.5093  0.1373  0.2169
 1529TIP3    H128782   5.167   3.560  19.095  3.2605  2.1213  0.0332
 1529TIP3    H228783   5.071   3.677  19.098 -1.5440 -1.4799 -0.2380
 1530TIP3   OH228784   0.241   5.366  21.016  0.0560  0.4231 -0.7254
 1530TIP3    H128785   0.265   5.296  20.954  1.6099  1.7254 -1.6875
 1530TIP3    H228786   0.214   5.439  20.960 -2.2755  0.3984  0.2826
 1531TIP3   OH228787   2.425   4.862  21.040 -0.4911 -0.0377 -0.0183
 1531TIP3    H128788   2.484   4.790  21.058  0.0723  0.1817 -0.9189
 1531TIP3    H228789   2.380   4.837  20.959 -0.2976  0.6076 -0.3373
 1532TIP3   OH228790   5.824   2.694  20.757 -0.2332  0.0116  0.1075
 1532TIP3    H128791   5.767   2.642  20.700 -0.7924 -0.0608  0.7243
 1532TIP3    H228792   5.817   2.652  20.842 -0.2299  0.7446  0.4726
 1533TIP3   OH228793   2.707   0.568  21.165  0.0558  0.4363  0.0374
 1533TIP3    H128794   2.678   0.482  21.133 -1.1388  1.3669 -1.5073
 1533TIP3    H228795   2.698   0.561  21.260  1.1148 -1.5192  0.0579
 1534TIP3   OH228796   1.341   2.273  19.413  0.1670  0.7822 -0.2274
 1534TIP3    H128797   1.384   2.216  19.476  1.2319  1.5757 -0.2163
 1534TIP3    H228798   1.342   2.360  19.454 -2.2079  0.6959  0.1497
 1535TIP3   OH228799   3.575   1.430  18.475 -0.1935  0.0166 -0.2315
 1535TIP3    H128800   3.619   1.351  18.505  0.3681  0.3237 -0.2502
 1535TIP3    H228801   3.638   1.500  18.489 -1.1399  0.6701  0.9675
 1536TIP3   OH228802   3.047   3.105  21.467  0.4630 -0.5138 -0.1820
 1536TIP3    H128803   3.134   3.070  21.484  0.0671 -1.2882  0.3322
 1536TIP3    H228804   2.988   3.048  21.517 -0.1884  1.1384  1.0415
 1537TIP3   OH228805   4.077   1.766  19.939 -0.8907  0.0639  0.1809
 1537TIP3    H128806   3.982   1.770  19.950 -0.7526  1.3636  1.1012
 1537TIP3    H228807   4.106   1.856  19.949  0.6147 -0.5226  1.5915
 1538TIP3   OH228808   4.348   0.588  20.670 -0.4233  0.1222 -0.6523
 1538TIP3    H128809   4.443   0.593  20.659 -0.4256  0.0228 -0.7153
 1538TIP3    H228810   4.329   0.652  20.739 -0.0464 -1.3951  0.9528
 1539TIP3   OH228811   2.961   5.222  18.840  0.5638 -0.2022  0.2075
 1539TIP3    H128812   3.001   5.146  18.883 -0.6029 -0.1908  1.3795
 1539TIP3    H228813   2.868   5.203  18.840  0.3580  0.7346 -0.5224
 1540TIP3   OH228814   5.914   3.681  18.773  0.4099 -0.4052  0.0346
 1540TIP3    H128815   5.961   3.741  18.716 -0.2674 -0.4790 -0.6220
 1540TIP3    H228816   5.918   3.597  18.728 -0.7525 -0.3073 -0.2943
 1541TIP3   OH228817   4.395   2.857  20.892 -0.6858  0.0674  0.3348
 1541TIP3    H128818   4.444   2.863  20.974  0.3144 -1.1502 -0.1469
 1541TIP3    H228819   4.405   2.944  20.852  1.2303 -0.1939  0.1826
 1542TIP3   OH228820   1.801   5.383  20.322 -0.0748  0.3594  0.0197
 1542TIP3    H128821   1.743   5.308  20.334  0.2925  0.2565  1.3138
 1542TIP3    H228822   1.822   5.384  20.229 -0.0793 -1.1501 -0.0076
 1543TIP3   OH228823   3.153   1.951  19.059  0.3431 -0.5363 -0.0175
 1543TIP3    H128824   3.195   1.886  19.116 -2.8335 -1.2628  1.6922
 1543TIP3    H228825   3.144   1.907  18.975  2.3162 -0.5718 -0.2583
 1544TIP3   OH228826   2.800   0.737  18.301 -0.3715  0.4394  0.0677
 1544TIP3    H128827   2.864   0.808  18.294  0.5838 -0.5314 -1.6824
 1544TIP3    H228828   2.781   0.713  18.210 -0.6908 -1.5060  0.6074
 1545TIP3   OH228829   5.386   0.662  19.219  0.1602  0.0287 -0.4550
 1545TIP3    H128830   5.302   0.657  19.264  0.3684  0.7696  0.0349
 1545TIP3    H228831   5.432   0.583  19.246  0.2078  0.3637  0.5045
 1546TIP3   OH228832   4.613   1.341  18.287  0.3997  0.1627  0.2280
 1546TIP3    H128833   4.636   1.293  18.367  0.1217 -0.4711 -0.0654
 1546TIP3    H228834   4.518   1.353  18.294  0.4025  0.2576  0.0794
 1547TIP3   OH228835   3.115   1.475  20.986  0.0525  0.4040  0.6816
 1547TIP3    H128836   3.172   1.398  20.991 -0.6293 -0.1163  0.6835
 1547TIP3    H228837   3.117   1.500  20.893  1.1907  1.1108  0.8771
 1548TIP3   OH228838   0.483   5.560  21.087 -0.0542  0.2859  0.1790
 1548TIP3    H128839   0.532   5.566  21.006  0.8366 -0.0929  0.6750
 1548TIP3    H228840   0.449   5.470  21.088  0.9290 -0.1015  0.7591
 1549TIP3   OH228841   3.063   6.360  19.770  0.5311 -0.0270  0.0381
 1549TIP3    H128842   3.048   6.297  19.841 -1.8688  1.1780  0.7253
 1549TIP3    H228843   3.137   6.324  19.721  2.0764 -1.1203  2.8965
 1550TIP3   OH228844   3.775   2.560  18.425  0.1089 -0.2667  0.4090
 1550TIP3    H128845   3.746   2.641  18.465 -0.3706 -1.0087  1.6033
 1550TIP3    H228846   3.800   2.504  18.498 -1.1548 -1.8068 -0.2822
 1551TIP3   OH228847   1.810   5.880  20.281 -0.5429  0.0205 -0.2429
 1551TIP3    H128848   1.868   5.804  20.281  0.2220  0.5798  0.8056
 1551TIP3    H228849   1.781   5.888  20.372 -0.7144  0.9034 -0.3698
 1552TIP3   OH228850   1.922   2.155  18.481  0.4061 -0.3399  0.6833
 1552TIP3    H128851   1.830   2.154  18.455  0.4180 -0.2094  0.6376
 1552TIP3    H228852   1.923   2.112  18.567 -0.2352  2.9348  2.4898
 1553TIP3   OH228853   2.298   1.348  19.438  0.6381  0.4454  0.1247
 1553TIP3    H128854   2.360   1.408  19.480  0.0938  2.6622 -1.9804
 1553TIP3    H228855   2.216   1.362  19.485  0.6454  1.0333 -0.0175
 1554TIP3   OH228856   6.514   1.533  20.268  0.4174  0.2178 -0.2706
 1554TIP3    H128857   6.520   1.504  20.359  0.0950 -0.2221 -0.3832
 1554TIP3    H228858   6.564   1.467  20.219  0.0994  0.1265 -0.4748
 1555TIP3   OH228859   5.159   0.918  17.442 -0.0911 -0.0076 -0.1083
 1555TIP3    H128860   5.184   0.992  17.497  0.2881  0.7454 -1.2608
 1555TIP3    H228861   5.238   0.866  17.434 -0.2696 -0.3708  0.4231
 1556TIP3   OH228862   0.054   0.951  19.727  0.0641  0.0943  0.5906
 1556TIP3    H128863   0.126   0.905  19.771 -0.3118  0.0355  1.1562
 1556TIP3    H228864   0.094   1.030  19.692  1.0239 -1.2499 -1.5445
 1557TIP3   OH228865   1.893   5.981  18.557 -0.9074 -0.1281 -0.9016
 1557TIP3    H128866   1.840   6.026  18.492 -0.0692  0.6795 -1.0513
 1557TIP3    H228867   1.951   5.924  18.507 -1.1228 -0.4398 -0.7926
 1558TIP3   OH228868   2.491   1.967  17.701 -0.0875 -0.3588  0.4050
 1558TIP3    H128869   2.401   1.942  17.722 -0.8081  1.3996 -0.4311
 1558TIP3    H228870   2.499   2.056  17.733  1.1191 -0.2313 -0.2305
 1559TIP3   OH228871   2.757   2.890  18.109 -0.1068  0.4472  0.2653
 1559TIP3    H128872   2.841   2.880  18.153 -0.4565  0.0500  0.8499
 1559TIP3    H228873   2.777   2.938  18.029  1.0175 -1.5237 -0.6880
 1560TIP3   OH228874   6.614   5.180  21.366  0.5251  0.1436  0.3936
 1560TIP3    H128875   6.539   5.161  21.310  0.6879 -0.1074  0.2568
 1560TIP3    H228876   6.656   5.095  21.378  0.2970  0.1295  1.1743
 1561TIP3   OH228877   4.709   0.883  17.930  0.1263 -0.1428  0.5741
 1561TIP3    H128878   4.676   0.969  17.954  0.4362 -0.2027  1.2310
 1561TIP3    H228879   4.683   0.872  17.838 -0.8792  0.1925  0.8015
 1562TIP3   OH228880   5.899   0.214  18.453  0.6989  0.0141 -0.1173
 1562TIP3    H128881   5.934   0.205  18.364 -1.0603  0.1613 -0.8758
 1562TIP3    H228882   5.806   0.191  18.445  0.4527  0.2140  1.6529
 1563TIP3   OH228883   2.671   6.497  20.302  0.2885 -0.0973 -0.1712
 1563TIP3    H128884   2.700   6.407  20.289 -2.1990 -0.9742 -0.1885
 1563TIP3    H228885   2.686   6.515  20.395  1.9955 -0.0114 -0.4309
 1564TIP3   OH228886   1.585   2.419  21.214  0.1188  0.4650 -0.0991
 1564TIP3    H128887   1.670   2.416  21.170  0.1281 -1.2664 -0.0493
 1564TIP3    H228888   1.521   2.407  21.144 -0.0042  0.4478  0.0155
 1565TIP3   OH228889   1.258   0.990  20.112  0.8336  0.5431 -0.2794
 1565TIP3    H128890   1.203   1.061  20.145  0.4068  0.8837 -1.6685
 1565TIP3    H228891   1.342   1.003  20.155  0.7586  1.9003 -0.5052
 1566TIP3   OH228892   3.260   3.221  19.589 -0.4223  0.6942 -0.5027
 1566TIP3    H128893   3.239   3.292  19.529  0.6295  0.8053 -0.7512
 1566TIP3    H228894   3.350   3.239  19.618 -0.2598 -0.3513 -0.3102
 1567TIP3   OH228895   4.465   6.022  20.485 -0.0668 -0.1883 -0.1503
 1567TIP3    H128896   4.477   6.080  20.410 -0.1812 -0.3843 -0.3210
 1567TIP3    H228897   4.376   6.041  20.515 -0.0903 -0.2484 -0.1830
 1568TIP3   OH228898   2.077   0.782  20.421 -0.1974 -0.0120  0.4704
 1568TIP3    H128899   2.164   0.754  20.448  0.2792  2.5461  1.9274
 1568TIP3    H228900   2.035   0.703  20.389  1.9963 -1.6870  1.4843
 1569TIP3   OH228901   4.701   3.072  19.548  0.1984  0.4531 -0.2193
 1569TIP3    H128902   4.612   3.090  19.580 -0.1496 -0.5912 -0.5624
 1569TIP3    H228903   4.759   3.103  19.617 -0.4581  0.4263  0.3501
 1570TIP3   OH228904   4.462   5.330  17.622 -0.5544 -1.2501 -0.3852
 1570TIP3    H128905   4.532   5.278  17.661 -0.4115 -0.2698  0.7295
 1570TIP3    H228906   4.507   5.404  17.581 -0.9571 -0.2893  0.8667
 1571TIP3   OH228907   2.659   2.663  20.915  0.1033  0.3610  0.6240
 1571TIP3    H128908   2.685   2.749  20.881 -0.5278  0.0195 -0.7960
 1571TIP3    H228909   2.742   2.619  20.934  0.5215  0.4893 -0.7491
 1572TIP3   OH228910   2.571   1.470  18.798  1.0465  0.0290  0.3599
 1572TIP3    H128911   2.593   1.395  18.744  1.1495  0.2502  0.0923
 1572TIP3    H228912   2.477   1.460  18.817  1.3286 -0.8659  1.4264
 1573TIP3   OH228913   1.640   3.839  19.437  0.1115  0.4038 -0.6238
 1573TIP3    H128914   1.623   3.754  19.397 -1.5069  0.2982  0.2066
 1573TIP3    H228915   1.620   3.902  19.368 -1.3473  0.1755 -0.4453
 1574TIP3   OH228916   1.839   6.102  19.570  0.8415 -0.3014  0.2759
 1574TIP3    H128917   1.917   6.061  19.533 -0.1696 -0.3029 -2.0685
 1574TIP3    H228918   1.766   6.054  19.530 -0.3621  0.5419  1.3835
 1575TIP3   OH228919   1.325   3.554  19.026  0.6083  0.6905 -0.1017
 1575TIP3    H128920   1.235   3.582  19.011 -0.1171 -1.6406 -0.5179
 1575TIP3    H228921   1.372   3.585  18.948 -0.6034 -0.9211 -1.5713
 1576TIP3   OH228922   6.573   0.746  18.628  0.1142 -0.5009 -0.5851
 1576TIP3    H128923   6.538   0.674  18.576 -1.3567 -0.0675 -0.2296
 1576TIP3    H228924   6.574   0.821  18.569 -0.4253 -0.2942 -0.3347
 1577TIP3   OH228925   2.822   0.512  18.914 -0.4146  0.6017 -0.0271
 1577TIP3    H128926   2.811   0.486  19.006 -1.5329  1.3583  0.0707
 1577TIP3    H228927   2.868   0.439  18.874 -0.2585  0.0877  1.0502
 1578TIP3   OH228928   1.406   0.607  18.975 -0.4696  0.3030 -0.2213
 1578TIP3    H128929   1.453   0.659  18.910  1.8084 -0.8631  0.3896
 1578TIP3    H228930   1.408   0.518  18.941  1.0980 -0.3989  1.5241
 1579TIP3   OH228931   2.728   6.184  18.764  0.4051 -0.2228 -0.3081
 1579TIP3    H128932   2.804   6.169  18.821  0.3767  1.5435  0.2417
 1579TIP3    H228933   2.680   6.255  18.807  0.6629  1.5810 -2.8034
 1580TIP3   OH228934   0.357   0.954  21.096 -0.6647 -0.0918  0.1466
 1580TIP3    H128935   0.316   0.882  21.049  3.0908 -1.7055 -1.0888
 1580TIP3    H228936   0.346   1.030  21.039  0.6260 -1.1887 -1.6599
 1581TIP3   OH228937   0.378   4.544  19.428 -0.2117  0.0168  0.2262
 1581TIP3    H128938   0.434   4.611  19.467  1.8854 -1.0431 -0.8244
 1581TIP3    H228939   0.377   4.566  19.334  0.8593 -1.6012 -0.2022
 1582TIP3   OH228940   3.861   0.243  18.730  0.7016 -0.0821  0.0094
 1582TIP3    H128941   3.820   0.290  18.803  0.6907  1.2181 -0.8009
 1582TIP3    H228942   3.872   0.154  18.762  1.8674  0.7369  2.0711
 1583TIP3   OH228943   3.063   2.825  17.903  0.5301 -0.4441  0.2218
 1583TIP3    H128944   3.082   2.785  17.988  3.5690  1.8162  0.7900
 1583TIP3    H228945   3.059   2.919  17.922  0.7662  0.0754 -2.0553
 1584TIP3   OH228946   4.396   1.655  19.398 -0.2517  0.0078  0.1327
 1584TIP3    H128947   4.424   1.564  19.402 -0.7108 -0.1403  0.0132
 1584TIP3    H228948   4.372   1.670  19.307  1.4734  0.7573 -0.2338
 1585TIP3   OH228949   2.800   1.545  18.929 -0.5425  0.0906  0.0535
 1585TIP3    H128950   2.850   1.467  18.904 -0.8739 -0.5042  1.1972
 1585TIP3    H228951   2.709   1.521  18.909 -0.5038  0.8158 -1.1269
 1586TIP3   OH228952   0.778   1.818  21.556 -0.1896  0.2908  0.4899
 1586TIP3    H128953   0.716   1.761  21.603 -0.2193  1.9252  2.6317
 1586TIP3    H228954   0.761   1.905  21.592  1.4810  1.2513 -0.9088
 1587TIP3   OH228955   1.349   0.622  20.318 -0.6653  0.2274  0.2632
 1587TIP3    H128956   1.337   0.684  20.246 -0.9027 -0.1580 -0.0328
 1587TIP3    H228957   1.388   0.674  20.388 -1.6098  0.9063  0.3058
 1588TIP3   OH228958   4.842   0.625  21.080 -0.6170 -0.3151 -0.2193
 1588TIP3    H128959   4.862   0.541  21.038 -0.6980  0.0548 -1.0235
 1588TIP3    H228960   4.755   0.648  21.048 -0.5809  0.0890 -0.0388
 1589TIP3   OH228961   1.994   6.249  18.073  0.3455 -0.2849 -0.0998
 1589TIP3    H128962   2.070   6.306  18.085 -0.3052  0.8890 -1.3241
 1589TIP3    H228963   1.973   6.256  17.980 -2.5221  1.0824  0.5466
 1590TIP3   OH228964   1.628   0.650  19.123  0.0925  0.0935  0.6238
 1590TIP3    H128965   1.614   0.720  19.186 -1.8109  1.1496 -0.8735
 1590TIP3    H228966   1.543   0.638  19.081  1.0642 -1.1787 -1.1141
 1591TIP3   OH228967   0.224   3.887  18.232 -0.6569  0.6452  0.0138
 1591TIP3    H128968   0.213   3.951  18.162 -0.1582  0.6124 -0.0941
 1591TIP3    H228969   0.181   3.808  18.199  0.8542  0.1663 -0.8892
 1592TIP3   OH228970   1.972   0.580  20.206 -0.4633 -0.4401 -0.1777
 1592TIP3    H128971   1.945   0.489  20.218 -0.7959 -0.1142  1.8790
 1592TIP3    H228972   2.050   0.575  20.150 -1.1815 -1.8591 -1.1358
 1593TIP3   OH228973   2.405   5.007  18.452  0.1924  0.3656  0.0233
 1593TIP3    H128974   2.324   5.015  18.503 -0.0980  0.8194 -0.5116
 1593TIP3    H228975   2.378   5.012  18.361  0.7467 -0.1890 -0.1817
 1594TIP3   OH228976   3.853   2.127  18.898  0.0597 -0.0218  0.6270
 1594TIP3    H128977   3.855   2.199  18.962 -2.1031  0.2824  0.4271
 1594TIP3    H228978   3.782   2.151  18.838  1.5939 -0.6348 -1.5207
 1595TIP3   OH228979   3.590   0.217  18.834  0.3286 -0.1978  0.2942
 1595TIP3    H128980   3.536   0.271  18.776  1.0199  0.9636  0.6928
 1595TIP3    H228981   3.626   0.149  18.777  0.8797  0.8400 -0.6318
 1596TIP3   OH228982   5.456   1.123  18.946 -0.5633  0.0120  0.0677
 1596TIP3    H128983   5.430   1.067  18.873  1.0711 -1.0426  0.2169
 1596TIP3    H228984   5.424   1.077  19.024 -0.5526  0.0811  0.1117
 1597TIP3   OH228985   4.036   1.859  18.542  0.0902 -0.1655 -0.3365
 1597TIP3    H128986   4.062   1.874  18.451  0.9814 -1.0447 -0.2442
 1597TIP3    H228987   4.057   1.767  18.558 -1.4014 -0.4202  0.3305
 1598TIP3   OH228988   5.007   1.742  19.499 -0.1952  0.1147  0.1197
 1598TIP3    H128989   4.923   1.784  19.480  0.5322  1.1921 -0.8665
 1598TIP3    H228990   5.042   1.716  19.414  0.8278  0.4006  0.4275
 1599TIP3   OH228991   5.796   6.187  18.394 -0.2949 -0.4205 -0.4904
 1599TIP3    H128992   5.765   6.172  18.484  1.3184  0.0008  0.1810
 1599TIP3    H228993   5.721   6.225  18.349 -1.4372 -1.5009  0.4054
 1600TIP3   OH228994   3.437   5.869  19.631  0.2712 -0.0644  0.2318
 1600TIP3    H128995   3.473   5.814  19.562  1.1467  0.3853  0.3165
 1600TIP3    H228996   3.361   5.912  19.591  0.4278 -0.2487 -0.2681
 1601TIP3   OH228997   4.634   1.614  18.305  0.1380  0.0987 -0.1766
 1601TIP3    H128998   4.646   1.520  18.291 -1.5069 -0.0913 -0.5695
 1601TIP3    H228999   4.562   1.638  18.247 -2.2063  0.7547  2.7262
 1602TIP3   OH229000   0.140   4.715  20.250 -0.2725 -0.1456  0.4142
 1602TIP3    H129001   0.137   4.667  20.167 -0.0248  1.0930 -0.3347
 1602TIP3    H229002   0.224   4.690  20.289 -1.0317 -1.8688  1.0194
 1603TIP3   OH229003   2.478   3.175  18.039 -0.3076  0.1255 -0.6499
 1603TIP3    H129004   2.491   3.218  18.124  2.8818 -2.0840  0.1961
 1603TIP3    H229005   2.520   3.234  17.976 -1.4829  1.1220 -0.5389
 1604TIP3   OH229006   2.552   0.589  19.474  0.0275  0.0348  0.3219
 1604TIP3    H129007   2.499   0.539  19.412  1.9150  0.0698 -1.4268
 1604TIP3    H229008   2.495   0.604  19.549 -1.8250 -1.4072 -0.7411
 1605TIP3   OH229009   5.971   2.428  19.832  0.5594 -0.1730 -0.1579
 1605TIP3    H129010   6.044   2.385  19.877  0.0652  0.2072  1.0344
 1605TIP3    H229011   5.893   2.386  19.866  0.1472  0.5866 -0.1466
 1606TIP3   OH229012   2.552   6.019  18.626 -0.3295  0.0385  0.3384
 1606TIP3    H129013   2.521   6.081  18.560 -1.2375 -0.4299  0.3089
 1606TIP3    H229014   2.637   6.053  18.653 -0.9408  1.4867  0.5483
 1607TIP3   OH229015   1.642   2.553  18.217  0.5491  0.3324 -0.0304
 1607TIP3    H129016   1.617   2.629  18.166  0.2909 -0.1902 -0.6943
 1607TIP3    H229017   1.721   2.520  18.175  1.1568  0.7258  0.7712
 1608TIP3   OH229018   4.959   4.460  20.651  0.6291 -0.5356  0.3568
 1608TIP3    H129019   5.018   4.424  20.718  0.3506  0.1919  1.0132
 1608TIP3    H229020   4.907   4.525  20.698  0.3050 -0.1342 -0.5415
 1609TIP3   OH229021   0.017   0.875  20.142 -0.0625 -0.3070 -0.2076
 1609TIP3    H129022  -0.045   0.843  20.207  1.1009 -1.0786  0.5515
 1609TIP3    H229023  -0.030   0.867  20.059 -0.6323 -1.8835  0.2218
 1610TIP3   OH229024   2.607   4.900  20.344  0.4323 -0.2303  0.3305
 1610TIP3    H129025   2.610   4.995  20.346 -0.3916 -0.1681 -0.7236
 1610TIP3    H229026   2.683   4.874  20.292 -0.0721 -0.0783 -0.4953
 1611TIP3   OH229027   0.456   1.627  21.039  0.2649  0.0043  0.5901
 1611TIP3    H129028   0.420   1.651  20.954 -0.8953 -2.2956  0.3668
 1611TIP3    H229029   0.537   1.580  21.019 -0.2053 -0.8743  0.7107
 1612TIP3   OH229030   2.466   6.336  19.584 -0.2918  0.5896 -0.0422
 1612TIP3    H129031   2.465   6.334  19.489  0.4858  0.5295 -0.0547
 1612TIP3    H229032   2.467   6.430  19.606 -1.3323  0.6119 -0.0770
 1613TIP3   OH229033   1.051   6.444  19.555 -0.2660 -0.4914 -0.2789
 1613TIP3    H129034   1.086   6.462  19.642 -0.8426  0.1281 -0.1738
 1613TIP3    H229035   1.001   6.363  19.566  0.8325 -1.2004 -0.3576
 1614TIP3   OH229036   2.920   5.821  19.253 -0.0726 -0.8614 -0.2141
 1614TIP3    H129037   2.951   5.821  19.344 -2.0353  0.4384  0.5273
 1614TIP3    H229038   2.960   5.898  19.213  0.1931 -1.0103 -0.2388
 1615TIP3   OH229039   6.529   2.529  20.702  0.2141 -0.3127 -0.1186
 1615TIP3    H129040   6.444   2.566  20.726  0.4667  1.4018 -1.6519
 1615TIP3    H229041   6.542   2.556  20.611  1.7831 -1.7497 -0.3649
 1616TIP3   OH229042   2.214   6.179  20.173 -0.0706 -0.3099  0.0061
 1616TIP3    H129043   2.200   6.086  20.192  0.4342 -0.4465 -0.2604
 1616TIP3    H229044   2.172   6.193  20.089  1.3510 -0.7303 -0.8175
 1617TIP3   OH229045   6.601   4.034  21.131  0.1644 -0.5830  0.0042
 1617TIP3    H129046   6.645   3.968  21.186 -0.0775 -0.4250  0.3925
 1617TIP3    H229047   6.660   4.110  21.134 -0.2454 -0.2773  0.7414
 1618TIP3   OH229048   6.476   3.599  19.883  0.1785  0.8984 -0.6891
 1618TIP3    H129049   6.490   3.517  19.837 -0.0967  1.0269 -1.0125
 1618TIP3    H229050   6.564   3.629  19.906  0.2774  0.5053 -0.5527
 1619TIP3   OH229051   5.257   2.828  21.087  0.2379 -0.0115  0.0397
 1619TIP3    H129052   5.301   2.799  21.167  0.5734  0.1086 -0.0981
 1619TIP3    H229053   5.167   2.844  21.113  0.7220  1.7364  0.8325
 1620TIP3   OH229054   4.853   2.393  19.574 -0.1391  0.3884  0.1158
 1620TIP3    H129055   4.882   2.484  19.570  0.7891  0.1785  1.2869
 1620TIP3    H229056   4.933   2.343  19.591 -0.8622 -0.4498  1.2681
 1621TIP3   OH229057   5.206   5.706  18.600 -0.9101 -0.2725 -0.1553
 1621TIP3    H129058   5.179   5.679  18.512  0.3245 -1.4690 -0.1999
 1621TIP3    H229059   5.268   5.778  18.585  0.6785 -1.6393 -0.4002
 1622TIP3   OH229060   1.786   4.665  21.077 -0.3248  0.2005  0.5441
 1622TIP3    H129061   1.811   4.620  21.158 -0.5191 -1.4233 -0.2570
 1622TIP3    H229062   1.868   4.676  21.029 -0.5569 -1.4667 -0.2933
 1623TIP3   OH229063   3.448   6.152  19.554 -0.0765 -0.1807  0.1896
 1623TIP3    H129064   3.442   6.169  19.460  0.4140 -0.7708  0.0417
 1623TIP3    H229065   3.533   6.189  19.579 -0.6744  0.9581  0.6360
 1624TIP3   OH229066   5.004   2.689  19.286  0.7997  0.3429  0.8922
 1624TIP3    H129067   4.920   2.735  19.289  0.0873 -0.8672  0.5317
 1624TIP3    H229068   4.996   2.632  19.209  2.4231  1.0442  0.1568
 1625TIP3   OH229069   1.064   4.909  19.362 -0.4743 -0.3346 -0.3997
 1625TIP3    H129070   1.057   4.996  19.324 -0.3035 -0.2916 -0.3315
 1625TIP3    H229071   0.979   4.867  19.342 -0.7541  0.0265  0.0210
 1626TIP3   OH229072   3.422   5.481  21.208  0.7194  0.6222 -0.5056
 1626TIP3    H129073   3.343   5.501  21.258  0.5146  0.4269 -0.7486
 1626TIP3    H229074   3.390   5.458  21.121  1.0967  1.2869 -0.8256
 1627TIP3   OH229075   2.109   4.581  18.986  0.0140  0.0293 -0.0268
 1627TIP3    H129076   2.174   4.617  19.046 -1.0310  1.8532  0.0872
 1627TIP3    H229077   2.158   4.517  18.933  1.4875  0.1274  1.1490
 1628TIP3   OH229078   1.558   4.339  19.547 -0.2092 -0.5232  0.3750
 1628TIP3    H129079   1.541   4.246  19.561  0.9296 -0.6803  0.8430
 1628TIP3    H229080   1.497   4.384  19.604 -0.1822 -1.0153  0.7954
 1629TIP3   OH229081   3.220   4.196  20.174  0.4846  0.0972  0.5740
 1629TIP3    H129082   3.194   4.111  20.209  2.3144 -1.7089 -2.0361
 1629TIP3    H229083   3.161   4.210  20.100  1.4837  0.0335 -0.2629
 1630TIP3   OH229084   5.060   2.306  19.102  0.3368 -0.6542 -0.2580
 1630TIP3    H129085   5.089   2.220  19.073  1.1286 -0.8657  1.0547
 1630TIP3    H229086   5.003   2.288  19.177  0.1828 -0.0497 -0.2247
 1631TIP3   OH229087   5.196   2.702  17.229  0.3488  0.3151  0.6952
 1631TIP3    H129088   5.175   2.780  17.177  0.8887  0.2533  0.3694
 1631TIP3    H229089   5.113   2.675  17.267 -0.0671  0.3310 -0.1814
 1632TIP3   OH229090   1.260   0.492  20.081 -0.8296 -0.3368 -0.3394
 1632TIP3    H129091   1.224   0.574  20.046  0.3415 -0.2005 -1.2517
 1632TIP3    H229092   1.324   0.521  20.146  0.2892 -0.4893 -1.3511
 1633TIP3   OH229093   5.824   4.360  18.033 -0.6265 -0.9405 -0.0811
 1633TIP3    H129094   5.786   4.297  18.094  0.2004 -1.3538  0.0319
 1633TIP3    H229095   5.878   4.306  17.975  0.3266 -0.3134  0.1978
 1634TIP3   OH229096   0.740   3.122  18.352 -0.1510  0.8904 -0.5182
 1634TIP3    H129097   0.773   3.093  18.267 -1.3697  2.3198 -1.5339
 1634TIP3    H229098   0.689   3.200  18.332 -3.2105 -0.5365  1.0477
 1635TIP3   OH229099   4.652   0.905  18.997 -0.1030  0.1482 -0.4727
 1635TIP3    H129100   4.712   0.895  18.923  1.4434  1.3248  0.5698
 1635TIP3    H229101   4.624   0.997  18.992  0.5230  0.4256  0.7480
 1636TIP3   OH229102   6.439   0.251  18.345  0.2789  0.0196  0.9186
 1636TIP3    H129103   6.425   0.188  18.416 -2.3898  0.0621  0.5275
 1636TIP3    H229104   6.432   0.199  18.265  0.7077  0.4062  0.6224
 1637TIP3   OH229105   1.347   0.081  18.983 -0.3186  0.0317 -0.1122
 1637TIP3    H129106   1.285   0.143  19.022 -0.8393 -1.0537  0.8318
 1637TIP3    H229107   1.302  -0.003  18.986  0.4637 -0.4455 -1.1910
 1638TIP3   OH229108   3.847   2.066  19.573 -0.4316 -0.4963  1.1910
 1638TIP3    H129109   3.891   2.065  19.658  0.2977 -0.9746  0.8252
 1638TIP3    H229110   3.800   2.150  19.571 -1.8777 -1.2281  2.7397
 1639TIP3   OH229111   1.675   1.269  19.477 -0.0904 -0.0304  0.3184
 1639TIP3    H129112   1.717   1.183  19.480 -0.7323 -0.3688 -0.1807
 1639TIP3    H229113   1.582   1.251  19.466 -0.1494  0.7250 -0.6380
 1640TIP3   OH229114   2.484   1.073  19.068  0.0177  0.0507 -0.1295
 1640TIP3    H129115   2.488   0.977  19.073  0.8679  0.1577  1.7298
 1640TIP3    H229116   2.390   1.092  19.058 -0.0309 -0.9977 -2.3059
 1641TIP3   OH229117   4.820   3.357  20.722 -0.2726 -0.0056 -0.3902
 1641TIP3    H129118   4.840   3.412  20.797 -2.7090 -0.6489  0.8353
 1641TIP3    H229119   4.854   3.271  20.746 -1.7917 -0.4158  0.4201
 1642TIP3   OH229120   2.862   2.548  21.062 -0.0804 -0.4671  0.1435
 1642TIP3    H129121   2.875   2.574  21.153 -2.2568  0.4692  0.2684
 1642TIP3    H229122   2.939   2.496  21.039  1.2064  0.5100  2.0462
 1643TIP3   OH229123   6.581   4.714  17.729 -0.2667 -0.3902  0.0120
 1643TIP3    H129124   6.586   4.789  17.670 -0.0409  0.1058  0.6541
 1643TIP3    H229125   6.672   4.694  17.751 -0.3412 -0.6744  0.0694
 1644TIP3   OH229126   6.612   2.849  20.297 -0.4202 -0.1166  0.7664
 1644TIP3    H129127   6.571   2.934  20.282 -0.8960 -0.4640  0.0437
 1644TIP3    H229128   6.657   2.829  20.215  0.2377 -0.2668  1.1585
 1645TIP3   OH229129   1.044   6.114  18.802  0.1580 -0.1632 -0.2285
 1645TIP3    H129130   1.015   6.054  18.733  0.4318  0.4845 -0.9285
 1645TIP3    H229131   1.133   6.088  18.821 -0.2425 -0.9744  0.6008
 1646TIP3   OH229132   0.837   1.309  19.810 -0.6897 -0.3302  0.0655
 1646TIP3    H129133   0.930   1.295  19.791  0.0147  1.1746  1.9824
 1646TIP3    H229134   0.805   1.223  19.836 -0.2311 -1.1632 -1.9473
 1647TIP3   OH229135   2.628   4.205  20.003  0.3305 -0.0235 -0.0673
 1647TIP3    H129136   2.721   4.210  19.979  0.1822  1.9898 -0.4422
 1647TIP3    H229137   2.582   4.194  19.920  0.1980 -0.7918  0.0961
 1648TIP3   OH229138   4.008   3.119  17.647 -0.6575 -1.2032 -0.5333
 1648TIP3    H129139   4.072   3.081  17.587  0.3624 -1.2881  0.5798
 1648TIP3    H229140   3.971   3.193  17.598  0.4855 -0.9862 -1.1112
 1649TIP3   OH229141   3.604   1.922  19.577  0.0688  0.1084 -0.3338
 1649TIP3    H129142   3.699   1.934  19.568 -0.1979  2.0551 -1.0559
 1649TIP3    H229143   3.569   1.940  19.490 -0.9114 -1.6938 -0.3555
 1650TIP3   OH229144   0.620   5.489  20.444 -0.0749  0.3269 -0.0782
 1650TIP3    H129145   0.598   5.581  20.459 -1.7818  0.0586 -0.6655
 1650TIP3    H229146   0.550   5.457  20.386  0.4265 -1.3658  0.1971
 1651TIP3   OH229147   2.806   4.223  19.319  0.3663  0.5716  0.5041
 1651TIP3    H129148   2.850   4.221  19.404  0.8568  1.2009  0.2731
 1651TIP3    H229149   2.849   4.155  19.267 -0.4563 -0.3549  0.9953
 1652TIP3   OH229150   0.315   0.110  21.322 -0.5437 -0.5955 -0.0571
 1652TIP3    H129151   0.280   0.173  21.260  0.9210  0.1119 -0.1990
 1652TIP3    H229152   0.283   0.140  21.407 -1.2082 -0.6222 -0.2941
 1653TIP3   OH229153   2.000   2.827  19.961  0.0520 -0.1345  0.0857
 1653TIP3    H129154   1.943   2.893  20.002  0.6643 -0.3274  1.3224
 1653TIP3    H229155   2.031   2.868  19.881 -0.4280  0.6678  0.2983
 1654TIP3   OH229156   2.674   3.543  20.669  0.9751  0.2951 -0.0238
 1654TIP3    H129157   2.630   3.570  20.750  0.0682 -0.7903 -0.1341
 1654TIP3    H229158   2.606   3.548  20.602  1.6390  0.8714 -0.6737
 1655TIP3   OH229159   0.582   2.823  20.950  0.4223 -0.0742  0.5970
 1655TIP3    H129160   0.546   2.882  21.016 -0.9301 -0.2258  0.0280
 1655TIP3    H229161   0.529   2.744  20.958  1.3578 -0.7287  0.4594
 1656TIP3   OH229162   0.757   3.242  21.623 -0.2474  0.0783 -0.0269
 1656TIP3    H129163   0.827   3.301  21.652  0.3725 -0.9972  0.7220
 1656TIP3    H229164   0.803   3.170  21.580 -1.0108  0.2364 -1.1495
 1657TIP3   OH229165   4.011   4.799  17.986 -0.0745 -0.7092  0.6485
 1657TIP3    H129166   4.065   4.734  17.942 -1.6521 -2.0651  0.6119
 1657TIP3    H229167   3.923   4.786  17.950 -0.2969  2.1190 -0.0717
 1658TIP3   OH229168   1.909   2.493  20.670 -0.2261 -0.1677 -0.4979
 1658TIP3    H129169   1.969   2.418  20.671  1.7332  1.2440  2.9167
 1658TIP3    H229170   1.826   2.456  20.638  1.2151 -3.2414 -1.0765
 1659TIP3   OH229171   0.143   1.856  17.886 -0.3794 -0.0156 -0.1237
 1659TIP3    H129172   0.139   1.926  17.951  0.8178  0.4998 -0.5778
 1659TIP3    H229173   0.138   1.902  17.802 -1.3063 -0.6238 -0.4089
 1660TIP3   OH229174   4.489   6.199  17.679  0.0845 -0.0313  0.2818
 1660TIP3    H129175   4.501   6.249  17.598  1.5582  0.1585  0.5753
 1660TIP3    H229176   4.469   6.110  17.649  0.3603  0.0896 -0.2888
 1661TIP3   OH229177   0.616   3.689  18.311  0.2871 -0.3251 -1.0146
 1661TIP3    H129178   0.568   3.615  18.347  0.2690 -0.0865 -0.5396
 1661TIP3    H229179   0.590   3.764  18.365  1.2192 -0.1998 -0.7111
 1662TIP3   OH229180   2.868   6.573  21.469  0.7306 -0.0722  0.2599
 1662TIP3    H129181   2.851   6.604  21.558  2.2450  0.7860  0.2942
 1662TIP3    H229182   2.962   6.555  21.468  0.9865  1.0756 -1.4902
 1663TIP3   OH229183   3.816   0.360  18.983 -0.4345  0.2484 -0.0666
 1663TIP3    H129184   3.909   0.381  18.991 -0.5272  1.4736 -1.7299
 1663TIP3    H229185   3.775   0.441  18.955 -1.5542 -0.9678 -2.1995
 1664TIP3   OH229186   4.092   4.611  17.815 -0.0151 -0.0464 -0.8852
 1664TIP3    H129187   4.115   4.652  17.731 -0.7671 -0.8875 -1.5339
 1664TIP3    H229188   4.138   4.528  17.814 -0.5432 -0.3418 -0.7598
 1665TIP3   OH229189   2.961   3.406  20.498  1.0807  0.1628 -0.1573
 1665TIP3    H129190   2.918   3.394  20.414  1.7791  0.3477 -0.5431
 1665TIP3    H229191   2.950   3.498  20.519 -0.1240 -0.1171  0.5319
 1666TIP3   OH229192   4.512   0.285  20.249 -0.1818 -0.2175  0.2792
 1666TIP3    H129193   4.468   0.350  20.196  0.0080 -0.9279 -0.7766
 1666TIP3    H229194   4.461   0.205  20.237 -0.1796 -0.3795  1.2310
 1667TIP3   OH229195   5.154   4.848  20.147 -0.2997 -0.0619 -0.1408
 1667TIP3    H129196   5.129   4.932  20.109 -0.3173 -0.1714 -0.3676
 1667TIP3    H229197   5.087   4.831  20.214 -0.2609  0.1339 -0.0512
 1668TIP3   OH229198   5.452   2.204  21.120  0.5038  0.0236  0.3319
 1668TIP3    H129199   5.501   2.130  21.155 -0.0530 -0.2115  0.6220
 1668TIP3    H229200   5.482   2.212  21.029  1.7300  0.4466  0.7490
 1669TIP3   OH229201   3.692   3.677  18.451  0.5949 -0.4244 -0.0518
 1669TIP3    H129202   3.773   3.659  18.498  1.6315 -0.5611 -1.8061
 1669TIP3    H229203   3.626   3.684  18.519  1.8269 -1.6778  1.3443
 1670TIP3   OH229204   4.030   4.641  20.682 -0.1102 -0.1076 -0.3777
 1670TIP3    H129205   4.045   4.708  20.616 -0.5411 -0.5919 -0.9731
 1670TIP3    H229206   3.938   4.650  20.706  0.3196  0.8771  1.0802
 1671TIP3   OH229207   4.903   4.103  20.411 -0.3324  0.1708 -0.5125
 1671TIP3    H129208   4.971   4.113  20.344  0.8519  0.1084  0.6461
 1671TIP3    H229209   4.827   4.073  20.362  0.1673  1.1694 -1.9965
 1672TIP3   OH229210   0.612   4.514  18.574 -0.3046 -0.1406  0.4669
 1672TIP3    H129211   0.525   4.552  18.587 -0.2422  0.3889 -0.5379
 1672TIP3    H229212   0.608   4.429  18.619 -1.3550 -0.1458  0.3934
 1673TIP3   OH229213   2.363   2.252  18.960  0.1678  0.0508 -0.2013
 1673TIP3    H129214   2.423   2.229  18.888 -0.8938  0.2171 -1.1747
 1673TIP3    H229215   2.378   2.184  19.026  2.1835  0.6901  0.0762
 1674TIP3   OH229216   3.695   1.425  18.936 -0.3084 -0.2643 -0.0576
 1674TIP3    H129217   3.657   1.346  18.974  0.0161 -0.5093 -0.2480
 1674TIP3    H229218   3.779   1.398  18.901 -0.0371  0.2407  0.1920
 1675TIP3   OH229219   1.161   0.256  19.081 -0.2180 -0.0779 -0.4588
 1675TIP3    H129220   1.154   0.326  19.146  0.4542  1.0585 -1.5707
 1675TIP3    H229221   1.073   0.219  19.076 -0.5842  0.6880  0.1495
 1676TIP3   OH229222   0.701   5.054  18.840 -0.0532  0.7025  0.7801
 1676TIP3    H129223   0.792   5.041  18.814  0.3008  1.7559  1.3902
 1676TIP3    H229224   0.665   4.966  18.848  0.7370  0.2861 -0.0573
 1677TIP3   OH229225   2.075   6.062  19.467  0.1073  0.0440  0.7493
 1677TIP3    H129226   2.114   6.094  19.549  0.3944 -0.6896  0.9084
 1677TIP3    H229227   2.131   6.098  19.398  0.6323 -0.3823  0.9414
 1678TIP3   OH229228   0.905   0.166  20.345  0.3006  0.3416  0.4614
 1678TIP3    H129229   0.849   0.227  20.296  0.1535  1.6111  2.1230
 1678TIP3    H229230   0.993   0.201  20.333  0.3750  0.1070  0.3313
 1679TIP3   OH229231   4.430   3.877  19.934  0.4100  0.3952  0.3120
 1679TIP3    H129232   4.485   3.818  19.986  0.9670  0.5703 -0.0685
 1679TIP3    H229233   4.436   3.844  19.845 -0.8101 -0.1028  0.3912
 1680TIP3   OH229234   6.428   0.819  20.365  0.8386 -0.6079  0.0278
 1680TIP3    H129235   6.428   0.909  20.398 -0.1422 -0.8045  0.6039
 1680TIP3    H229236   6.357   0.816  20.301  1.4487 -0.7454 -0.6504
 1681TIP3   OH229237   1.198   3.879  18.710 -0.3607 -0.0665  0.4654
 1681TIP3    H129238   1.247   3.805  18.745 -0.5995 -1.5650 -2.1180
 1681TIP3    H229239   1.264   3.937  18.673 -0.3144 -0.2989  0.1814
 1682TIP3   OH229240   4.429   5.334  19.231  0.1815  0.4303  0.2275
 1682TIP3    H129241   4.450   5.301  19.144  0.7984  0.1012  0.4963
 1682TIP3    H229242   4.501   5.304  19.286 -0.2697  0.5245  0.8792
 1683TIP3   OH229243   3.975   1.975  21.189 -0.2865  0.1210 -0.3032
 1683TIP3    H129244   3.970   2.056  21.138  0.5381  0.6922  0.4868
 1683TIP3    H229245   4.064   1.974  21.224 -0.5350 -0.7289  0.3500
 1684TIP3   OH229246   5.521   2.531  18.467 -0.0228  0.2639  0.4015
 1684TIP3    H129247   5.553   2.584  18.393  0.1006 -1.6201 -0.9669
 1684TIP3    H229248   5.427   2.544  18.467 -0.1222 -0.4015 -0.6600
 1685TIP3   OH229249   3.117   6.422  20.717  0.2225 -0.6509 -0.0194
 1685TIP3    H129250   3.171   6.478  20.774  0.2140  0.6440 -1.2383
 1685TIP3    H229251   3.168   6.415  20.636  0.0814 -2.1983  0.0080
 1686TIP3   OH229252   5.352   0.899  18.713 -0.2270  0.1806 -0.2446
 1686TIP3    H129253   5.271   0.890  18.763  0.8220 -2.3397  1.2021
 1686TIP3    H229254   5.347   0.830  18.647  0.9576 -0.3620  0.2118
 1687TIP3   OH229255   3.046   4.195  18.634  0.0152  0.3832 -0.2120
 1687TIP3    H129256   3.060   4.214  18.727 -0.1263  1.4142 -0.3812
 1687TIP3    H229257   3.130   4.212  18.592 -0.3303  1.4881 -0.4884
 1688TIP3   OH229258   4.065   2.771  19.743 -0.0318 -0.6327 -0.1824
 1688TIP3    H129259   4.064   2.773  19.839 -2.2119 -0.2929 -0.1631
 1688TIP3    H229260   3.989   2.718  19.719  0.7366 -1.0717 -1.7287
 1689TIP3   OH229261   0.494   1.518  18.607 -0.4783 -1.0991 -0.2837
 1689TIP3    H129262   0.508   1.607  18.573  0.4477  0.2525  3.1684
 1689TIP3    H229263   0.576   1.472  18.588  0.5628  0.0563  1.1550
 1690TIP3   OH229264   2.858   4.908  18.986 -0.4261 -0.6796 -0.5602
 1690TIP3    H129265   2.926   4.974  19.001 -1.1325  0.6475 -2.7351
 1690TIP3    H229266   2.905   4.825  18.986  0.9212  0.0519 -0.3689
 1691TIP3   OH229267   1.528   6.223  19.586  0.4040  0.2747  0.3662
 1691TIP3    H129268   1.535   6.152  19.523  0.5523  1.5554 -1.1345
 1691TIP3    H229269   1.545   6.302  19.535 -1.0331  1.5106  1.6822
 1692TIP3   OH229270   4.282   3.480  18.493  0.3177 -0.1982 -0.3887
 1692TIP3    H129271   4.202   3.499  18.443 -0.2159 -2.5424 -0.5307
 1692TIP3    H229272   4.250   3.443  18.575  1.2586  1.2875  0.7146
 1693TIP3   OH229273   4.960   2.949  19.474 -0.3228  0.1451 -0.2319
 1693TIP3    H129274   4.935   3.034  19.510 -1.2420  0.5130 -1.6185
 1693TIP3    H229275   4.878   2.898  19.475 -0.1005 -0.2303 -0.6872
 1694TIP3   OH229276   6.573   5.645  19.106 -0.7631  0.7656 -0.0670
 1694TIP3    H129277   6.611   5.559  19.123 -2.1374  0.3187  1.0060
 1694TIP3    H229278   6.582   5.658  19.012  0.1710 -0.1932 -0.1235
 1695TIP3   OH229279   0.939   4.645  18.576  0.2946 -0.0733  0.4148
 1695TIP3    H129280   0.968   4.733  18.551 -1.7526  0.8138  0.8734
 1695TIP3    H229281   0.925   4.600  18.493  0.2169  0.4502  0.1368
 1696TIP3   OH229282   6.310   1.318  20.496  0.3900  0.3024  0.6341
 1696TIP3    H129283   6.333   1.297  20.586  0.4698  0.3803  0.6329
 1696TIP3    H229284   6.215   1.313  20.493  0.4452 -0.7728  0.4595
 1697TIP3   OH229285   0.097   4.943  21.294 -0.1696  0.0313  0.3870
 1697TIP3    H129286   0.189   4.944  21.267 -0.4102  0.3323 -0.4643
 1697TIP3    H229287   0.053   4.893  21.225 -0.9198  1.4535 -0.1890
 1698TIP3   OH229288   4.936   5.324  20.438  0.2575 -0.0455 -0.0314
 1698TIP3    H129289   4.927   5.251  20.376 -1.7326  0.5947 -0.5717
 1698TIP3    H229290   4.862   5.315  20.497  0.4667  1.0629  0.4317
 1699TIP3   OH229291   6.031   0.646  19.700  0.0593  0.5048 -0.1828
 1699TIP3    H129292   6.068   0.638  19.612 -0.5893 -0.4076 -0.3795
 1699TIP3    H229293   6.088   0.592  19.755 -0.2302  0.1301 -0.2533
 1700TIP3   OH229294   0.649   2.302  20.996  0.0920 -0.2400  0.2725
 1700TIP3    H129295   0.698   2.364  21.050  0.5142 -0.3907  0.0655
 1700TIP3    H229296   0.667   2.329  20.906 -0.9019  0.2363  0.1985
 1701TIP3   OH229297   1.859   2.624  19.826 -0.1322 -0.0132 -0.2127
 1701TIP3    H129298   1.905   2.695  19.871 -1.2966  2.4262 -2.5760
 1701TIP3    H229299   1.766   2.649  19.832 -0.5918 -1.4110 -1.0437
 1702TIP3   OH229300   0.909   3.593  20.393 -0.0352 -0.3551 -0.4819
 1702TIP3    H129301   0.916   3.529  20.322  1.6430  0.9061 -1.4873
 1702TIP3    H229302   0.908   3.539  20.472  1.9145 -1.6593 -1.2612
 1703TIP3   OH229303   2.015   2.903  18.829 -0.2030 -0.2870 -0.2026
 1703TIP3    H129304   2.068   2.950  18.765  1.9508 -1.7934  0.3678
 1703TIP3    H229305   2.071   2.896  18.907 -2.0567 -0.1142  1.2366
 1704TIP3   OH229306   4.165   4.576  19.419 -0.0388 -0.0892  0.3491
 1704TIP3    H129307   4.243   4.607  19.464 -1.1321  3.4627  0.0743
 1704TIP3    H229308   4.127   4.511  19.479  1.9592 -0.3369  1.4323
 1705TIP3   OH229309   4.870   2.749  18.204 -0.2433  0.3070  0.2053
 1705TIP3    H129310   4.819   2.756  18.123 -0.7126 -1.0076  0.3668
 1705TIP3    H229311   4.956   2.718  18.175 -0.5320 -0.5433  0.2349
 1706TIP3   OH229312   5.145   2.139  17.856  0.0996 -0.1273  0.0854
 1706TIP3    H129313   5.099   2.161  17.775  0.7114 -0.2671 -0.3103
 1706TIP3    H229314   5.085   2.082  17.904 -0.2099 -0.1585 -0.3377
 1707TIP3   OH229315   0.009   0.546  19.695  0.2187  0.3265  0.3763
 1707TIP3    H129316  -0.049   0.586  19.760  0.3741  2.1990 -0.5595
 1707TIP3    H229317   0.097   0.557  19.731  0.1407 -1.1031  1.0708
 1708TIP3   OH229318   1.343   3.651  21.558 -0.3418 -0.8200  0.4810
 1708TIP3    H129319   1.252   3.669  21.581  0.2514  3.1397  0.4522
 1708TIP3    H229320   1.341   3.628  21.465 -1.2168  1.4603 -0.1276
 1709TIP3   OH229321   1.166   1.192  19.623  0.1667 -0.4627  0.4685
 1709TIP3    H129322   1.220   1.266  19.596  1.2452 -1.6326 -0.7408
 1709TIP3    H229323   1.199   1.169  19.710  0.4796 -0.1197  0.4453
 1710TIP3   OH229324   4.248   1.060  20.008  0.5447  0.6076  0.1107
 1710TIP3    H129325   4.295   1.116  19.946  1.8756 -0.2798  0.2778
 1710TIP3    H229326   4.290   1.079  20.092  0.0431  0.4021  0.4071
 1711TIP3   OH229327   3.225   4.451  19.024  0.0014  0.0984  0.1399
 1711TIP3    H129328   3.287   4.496  18.967 -0.6353  0.3858 -0.3435
 1711TIP3    H229329   3.161   4.413  18.963 -0.6022  0.2857  0.6521
 1712TIP3   OH229330   2.440   4.284  18.521  0.1750 -0.0630  0.2526
 1712TIP3    H129331   2.450   4.288  18.616  0.3916 -0.1230  0.2345
 1712TIP3    H229332   2.488   4.361  18.489  0.7804 -0.4765  0.1477
 1713TIP3   OH229333   3.267   4.869  20.430 -0.4507 -0.8062  0.0184
 1713TIP3    H129334   3.359   4.871  20.405  0.4574  2.3051  2.8468
 1713TIP3    H229335   3.260   4.795  20.489 -0.4214 -2.4875 -1.9877
 1714TIP3   OH229336   5.109   6.574  19.924 -0.2465 -0.1521  0.0705
 1714TIP3    H129337   5.163   6.586  20.002 -0.1756 -2.9628  0.5760
 1714TIP3    H229338   5.023   6.608  19.948  0.5374  1.8039  0.2463
 1715TIP3   OH229339   2.814   3.485  21.031 -0.1811  0.1702 -0.0187
 1715TIP3    H129340   2.875   3.468  21.103  1.9483  1.8827 -1.2735
 1715TIP3    H229341   2.862   3.457  20.953 -1.9400 -0.4816 -0.9060
 1716TIP3   OH229342   6.522   6.041  19.849  0.5090 -1.1435  0.2592
 1716TIP3    H129343   6.546   6.089  19.769 -0.2509  1.7347  1.6047
 1716TIP3    H229344   6.456   5.978  19.821 -0.2706  0.2906 -1.3088
 1717TIP3   OH229345   4.998   6.531  20.825  0.1074 -0.5034  0.3574
 1717TIP3    H129346   4.974   6.511  20.915 -0.1132  2.3951  1.0369
 1717TIP3    H229347   5.010   6.446  20.784 -2.3313 -1.9788  2.4045
 1718TIP3   OH229348   0.861   0.446  21.105  0.6716  0.1033  0.1999
 1718TIP3    H129349   0.811   0.520  21.140  1.4966  0.1731  1.2796
 1718TIP3    H229350   0.933   0.435  21.166  1.0070 -1.1001 -0.3898
 1719TIP3   OH229351   2.686   5.825  20.400  0.0788 -0.2531 -0.7526
 1719TIP3    H129352   2.745   5.787  20.334 -0.3132 -1.6087 -0.3587
 1719TIP3    H229353   2.610   5.853  20.349  0.0308 -0.7452 -0.9646
 1720TIP3   OH229354   1.397   2.399  21.008  0.2191 -0.1165  0.7083
 1720TIP3    H129355   1.452   2.462  20.963  1.9622  0.2491  3.1583
 1720TIP3    H229356   1.313   2.444  21.019 -0.1361 -0.0695 -1.6326
 1721TIP3   OH229357   3.782   3.884  19.738 -0.5701 -0.4414  0.2626
 1721TIP3    H129358   3.827   3.964  19.711 -0.1273  0.0913  2.4083
 1721TIP3    H229359   3.778   3.831  19.658  0.5998  1.0226 -0.8280
 1722TIP3   OH229360   1.699   1.618  21.456  0.8279  0.4115  0.2512
 1722TIP3    H129361   1.792   1.629  21.476  1.1763  0.3318 -1.2604
 1722TIP3    H229362   1.688   1.651  21.367 -0.4900 -0.1004  0.1904
 1723TIP3   OH229363   3.548   6.127  18.241  0.1904  0.1047  0.3259
 1723TIP3    H129364   3.481   6.060  18.254  0.2206  0.0104 -0.0010
 1723TIP3    H229365   3.518   6.175  18.164  1.1274 -0.7044 -0.5578
 1724TIP3   OH229366   3.179   1.026  18.680 -0.0784 -0.0646  0.2865
 1724TIP3    H129367   3.184   1.052  18.772  2.8933 -1.2348  0.5831
 1724TIP3    H229368   3.167   1.108  18.633 -0.6542  0.6745  1.6656
 1725TIP3   OH229369   3.835   1.300  19.498  0.0092 -0.0195 -0.0514
 1725TIP3    H129370   3.757   1.353  19.514  0.6511  0.3039  2.4440
 1725TIP3    H229371   3.901   1.362  19.468 -0.2291 -0.0210 -0.5877
 1726TIP3   OH229372   4.371   5.674  18.941 -0.0187 -0.5471 -0.0144
 1726TIP3    H129373   4.444   5.729  18.913 -1.1190  1.2049  0.4319
 1726TIP3    H229374   4.382   5.593  18.892  2.2950 -0.4025  0.1436
 1727TIP3   OH229375   5.283   4.672  19.423  0.3405 -0.3480  0.3869
 1727TIP3    H129376   5.220   4.601  19.405 -0.2667  0.3690 -0.3951
 1727TIP3    H229377   5.368   4.628  19.424  0.0277 -1.0228 -0.6607
 1728TIP3   OH229378   0.862   0.042  21.719  0.0615 -0.0646  0.1823
 1728TIP3    H129379   0.842   0.032  21.812  0.2605  0.9655  0.3524
 1728TIP3    H229380   0.822  -0.034  21.677 -0.9143 -0.0135  0.9861
 1729TIP3   OH229381   1.171   1.046  21.400 -0.2730 -0.2472 -0.1779
 1729TIP3    H129382   1.108   1.117  21.412  0.9005  0.6385  1.0806
 1729TIP3    H229383   1.243   1.067  21.460  0.5546 -1.9974 -0.4835
 1730TIP3   OH229384   4.559   3.870  20.462 -0.9195  0.1111 -0.0428
 1730TIP3    H129385   4.581   3.921  20.385 -1.9759  0.9184  0.1591
 1730TIP3    H229386   4.527   3.787  20.428 -2.4039  0.8602 -0.5565
 1731TIP3   OH229387   1.168   2.032  19.176 -0.2759  0.3122  0.7276
 1731TIP3    H129388   1.258   2.042  19.210 -0.8080  0.7457  2.0861
 1731TIP3    H229389   1.125   2.115  19.199 -0.6858  0.6428 -1.0741
 1732TIP3   OH229390   6.419   5.146  20.239  0.0050 -0.1378 -0.0058
 1732TIP3    H129391   6.498   5.199  20.240 -1.0112  1.6564 -2.7440
 1732TIP3    H229392   6.357   5.195  20.293 -0.0483 -0.1216 -0.0810
 1733TIP3   OH229393   0.705   2.080  21.625  0.2373 -0.1835  0.0612
 1733TIP3    H129394   0.744   2.121  21.548  0.3489  0.6547  0.5486
 1733TIP3    H229395   0.616   2.114  21.627  0.9415  1.7695  1.6400
 1734TIP3   OH229396   5.916   1.386  20.994  0.2548  0.1621 -0.0082
 1734TIP3    H129397   5.952   1.328  21.062 -0.1130  0.7375  0.6803
 1734TIP3    H229398   5.983   1.453  20.982 -0.3605  0.9827  0.9606
 1735TIP3   OH229399   1.238   2.560  20.623 -0.0990  0.0298 -0.0268
 1735TIP3    H129400   1.226   2.646  20.663 -0.0080 -0.3311  0.7821
 1735TIP3    H229401   1.174   2.558  20.551  1.2353  1.5439 -1.3467
 1736TIP3   OH229402   0.922   2.193  18.987 -0.3784  0.0868 -0.2391
 1736TIP3    H129403   0.855   2.260  18.975 -0.7963 -0.2511  0.1822
 1736TIP3    H229404   0.996   2.239  19.026 -1.3867 -0.0508  1.9526
 1737TIP3   OH229405   1.939   1.587  19.165  0.0198 -0.0482 -0.0624
 1737TIP3    H129406   1.985   1.618  19.243  0.0492  1.0117 -0.4789
 1737TIP3    H229407   1.912   1.498  19.186 -0.0771  0.2669  1.2098
 1738TIP3   OH229408   1.353   0.934  17.851 -0.0572  0.0911 -0.4203
 1738TIP3    H129409   1.267   0.894  17.863  0.1602 -0.3954 -0.4539
 1738TIP3    H229410   1.340   1.026  17.870 -0.0981 -0.3411  1.8482
 1739TIP3   OH229411   0.896   2.396  19.656 -0.0744  0.2432  0.0319
 1739TIP3    H129412   0.962   2.336  19.621 -0.6580 -0.1784 -0.3732
 1739TIP3    H229413   0.878   2.364  19.744  1.2205  1.1600  0.6601
 1740TIP3   OH229414   1.284   1.425  19.763  0.5220  0.1875 -0.2833
 1740TIP3    H129415   1.238   1.352  19.804  0.8455 -0.3085 -0.7800
 1740TIP3    H229416   1.324   1.473  19.835  0.0488  0.0529  0.0703
 1741TIP3   OH229417   2.094   3.420  20.833 -0.3038  0.2819 -0.5855
 1741TIP3    H129418   2.180   3.426  20.874 -1.1669  1.8058  1.1741
 1741TIP3    H229419   2.075   3.326  20.829  0.3290  0.0102  1.5191
 1742TIP3   OH229420   5.954   0.851  18.961  0.3914  0.3919 -0.2042
 1742TIP3    H129421   5.886   0.822  19.022 -0.5278  1.5369 -0.6446
 1742TIP3    H229422   6.035   0.812  18.995 -0.3756 -0.4722  0.6997
 1743TIP3   OH229423   2.439   5.042  20.738 -0.0576 -0.2298 -0.3235
 1743TIP3    H129424   2.381   5.063  20.812 -0.3598  2.2315 -1.1465
 1743TIP3    H229425   2.400   5.089  20.664  1.6996 -0.4685 -1.4385
 1744TIP3   OH229426   2.945   5.958  18.456 -0.2914  0.2355  0.3042
 1744TIP3    H129427   2.893   5.901  18.513 -0.8225  0.4919  0.0766
 1744TIP3    H229428   3.013   5.993  18.514  0.0533 -0.6356  0.4474
 1745TIP3   OH229429   4.264   3.917  18.614 -0.4305 -0.4156 -0.1391
 1745TIP3    H129430   4.192   3.903  18.552  0.2098 -0.4261 -0.9005
 1745TIP3    H229431   4.239   3.867  18.692 -0.2861 -2.1965 -1.1625
 1746TIP3   OH229432   1.885   0.341  20.280  0.4019 -0.2823  0.1699
 1746TIP3    H129433   1.862   0.265  20.227  0.2018 -2.3744  3.0150
 1746TIP3    H229434   1.805   0.393  20.285 -0.4151 -1.5627  0.7357
 1747TIP3   OH229435   2.244   2.774  19.344  0.4208 -0.2787  0.0598
 1747TIP3    H129436   2.265   2.788  19.436  0.6320  0.3735 -0.0766
 1747TIP3    H229437   2.150   2.761  19.341 -0.0243  2.3396  0.1215
 1748TIP3   OH229438   5.923   4.781  20.099 -0.2220  0.3477 -0.5241
 1748TIP3    H129439   5.974   4.844  20.150 -1.2349  0.5887  0.2246
 1748TIP3    H229440   5.985   4.713  20.076  0.8873  1.5825 -1.3025
 1749TIP3   OH229441   1.505   5.114  19.161 -0.0880 -0.2200  0.3570
 1749TIP3    H129442   1.411   5.101  19.143 -0.1946 -3.2136  2.4070
 1749TIP3    H229443   1.547   5.096  19.077 -1.3181  3.5391 -1.2800
 1750TIP3   OH229444   3.933   2.605  18.023  0.0783  0.2869 -0.0401
 1750TIP3    H129445   3.852   2.622  18.070  0.3259  0.1920  0.4294
 1750TIP3    H229446   3.922   2.516  17.989 -0.5239  0.7351 -1.0579
 1751TIP3   OH229447   4.585   2.356  18.964  0.4973 -0.4560 -0.2040
 1751TIP3    H129448   4.581   2.436  18.911 -0.3383 -1.0428 -1.0545
 1751TIP3    H229449   4.607   2.387  19.052 -1.0959  0.8665 -0.2121
 1752TIP3   OH229450   3.686   3.904  21.276  0.4292  0.5921 -0.2520
 1752TIP3    H129451   3.732   3.881  21.356  0.1280 -0.8663 -0.4743
 1752TIP3    H229452   3.607   3.850  21.277  0.3266  0.6964 -1.4356
 1753TIP3   OH229453   5.396   6.321  19.103  0.1595  0.2806  0.7563
 1753TIP3    H129454   5.384   6.380  19.029  2.6701 -0.0873 -0.0557
 1753TIP3    H229455   5.367   6.235  19.071  0.3227  0.3109  0.5230
 1754TIP3   OH229456   1.425   2.489  19.123 -0.1520  0.3740  0.2069
 1754TIP3    H129457   1.461   2.404  19.149 -1.4962 -0.2729  0.0638
 1754TIP3    H229458   1.331   2.474  19.118 -0.4758  2.0281  0.6989
 1755TIP3   OH229459   5.374   2.707  20.681  0.5283 -0.3026  0.0777
 1755TIP3    H129460   5.410   2.651  20.613  0.9677  1.1630 -0.9354
 1755TIP3    H229461   5.450   2.755  20.715  0.2197 -0.5749  1.1898
 1756TIP3   OH229462   2.602   0.610  20.161  0.4335 -0.0327 -0.4366
 1756TIP3    H129463   2.682   0.599  20.213 -0.5639  0.9473  1.4223
 1756TIP3    H229464   2.551   0.530  20.178  1.1413 -0.8392 -1.9352
 1757TIP3   OH229465   3.244   2.174  18.907 -0.4221 -0.3363 -0.4978
 1757TIP3    H129466   3.336   2.177  18.935 -0.6764 -0.0786  0.3742
 1757TIP3    H229467   3.203   2.110  18.965 -0.6869 -0.8558 -1.2437
 1758TIP3   OH229468   0.496   0.769  21.242 -0.0928 -0.5327 -0.3496
 1758TIP3    H129469   0.423   0.828  21.231 -0.1564 -0.4711  0.3759
 1758TIP3    H229470   0.495   0.715  21.163  0.1370  0.6016 -1.1558
 1759TIP3   OH229471   6.048   3.111  18.540 -0.3728 -0.2415 -0.5578
 1759TIP3    H129472   5.997   3.090  18.462  1.0561 -0.8189 -1.3896
 1759TIP3    H229473   6.139   3.102  18.511  0.1992 -1.3237  1.4136
 1760TIP3   OH229474   1.060   3.224  20.438 -0.6214 -0.9472 -0.1246
 1760TIP3    H129475   1.070   3.243  20.345 -0.2051 -0.3151  0.0451
 1760TIP3    H229476   1.144   3.247  20.477 -1.1663 -0.0749  0.5839
 1761TIP3   OH229477   1.337   0.980  19.096  0.4911 -0.3528  0.1670
 1761TIP3    H129478   1.406   1.043  19.075  0.1309 -0.3777 -1.1646
 1761TIP3    H229479   1.351   0.960  19.189  0.3652  1.9859  0.7681
 1762TIP3   OH229480   6.296   2.713  20.679  0.3338 -0.2204  0.7157
 1762TIP3    H129481   6.277   2.672  20.763  0.9811 -0.1835  0.8857
 1762TIP3    H229482   6.210   2.731  20.641  0.0290 -1.6035  0.6945
 1763TIP3   OH229483   6.099   5.296  19.660  0.3057  0.1839  0.1080
 1763TIP3    H129484   6.115   5.344  19.579 -0.0174  1.1294  0.5857
 1763TIP3    H229485   6.127   5.356  19.730  0.4874 -0.5720  0.7001
 1764TIP3   OH229486   2.463   3.025  20.088  0.1803  0.0553 -0.5018
 1764TIP3    H129487   2.399   2.972  20.136 -1.0326  0.5547 -1.4803
 1764TIP3    H229488   2.411   3.066  20.018  1.1763  2.0557 -0.1343
 1765TIP3   OH229489   4.284   2.487  18.135  0.1212  0.4732  0.3474
 1765TIP3    H129490   4.194   2.475  18.164 -0.0039 -1.0870 -0.6035
 1765TIP3    H229491   4.282   2.469  18.042  1.6904 -1.2362  0.5949
 1766TIP3   OH229492   3.815   1.128  19.064  0.2030 -0.6148 -0.0134
 1766TIP3    H129493   3.890   1.168  19.108  1.0784 -0.4920 -1.5456
 1766TIP3    H229494   3.818   1.035  19.090  0.7352 -0.5568  0.1356
 1767TIP3   OH229495   1.090   0.251  21.458 -0.2027  0.2000  0.0356
 1767TIP3    H129496   1.093   0.214  21.370 -0.3586  0.0746  0.0806
 1767TIP3    H229497   1.013   0.307  21.458  0.4089  1.0522 -0.2306
 1768TIP3   OH229498   3.597   1.527  17.645  0.0159  0.0487 -0.3351
 1768TIP3    H129499   3.510   1.564  17.657 -1.1301 -2.7218  0.7030
 1768TIP3    H229500   3.599   1.497  17.554 -0.7543 -1.2319  0.0387
 1769TIP3   OH229501   3.649   3.874  18.294  0.0946  0.1223 -0.5170
 1769TIP3    H129502   3.676   3.805  18.355 -0.2961  1.4857  1.2847
 1769TIP3    H229503   3.723   3.934  18.292 -0.2180  0.5023 -0.7726
 1770TIP3   OH229504   1.417   4.899  19.719 -0.1237 -0.0758  0.4843
 1770TIP3    H129505   1.330   4.919  19.685  0.7431  1.9740 -0.6924
 1770TIP3    H229506   1.474   4.964  19.679  2.1307 -1.9025  0.5016
 1771TIP3   OH229507   1.491   0.230  19.920 -0.3434 -0.1389  0.0868
 1771TIP3    H129508   1.515   0.141  19.949 -0.3145  0.0658  0.7110
 1771TIP3    H229509   1.398   0.224  19.900 -0.4924 -0.1514  0.7709
 1772TIP3   OH229510   4.669   5.817  19.588 -0.0431  0.5782  0.0520
 1772TIP3    H129511   4.763   5.797  19.593 -0.1331 -0.2209 -1.0773
 1772TIP3    H229512   4.648   5.809  19.495 -1.1771  1.0442  0.2551
 1773TIP3   OH229513   4.978   1.725  20.546 -0.3772  0.0745  0.3757
 1773TIP3    H129514   4.899   1.672  20.558  0.8422 -2.0204 -0.2992
 1773TIP3    H229515   4.961   1.773  20.465 -0.4758 -1.3769 -0.5065
 1774TIP3   OH229516   1.873   3.559  19.724 -0.1888  0.4389 -0.9325
 1774TIP3    H129517   1.864   3.469  19.756  1.5920  0.2908 -0.7614
 1774TIP3    H229518   1.863   3.613  19.802 -1.7882  0.4528 -1.1147
 1775TIP3   OH229519   4.316   5.816  18.578 -0.0285  0.1701  0.3723
 1775TIP3    H129520   4.329   5.785  18.488  1.8241  0.7895  0.3697
 1775TIP3    H229521   4.232   5.860  18.577 -1.0763 -1.7279 -0.4953
 1776TIP3   OH229522   5.580   3.937  20.896 -0.2231  0.0639  0.2838
 1776TIP3    H129523   5.485   3.935  20.905 -0.2129  0.9507  0.6555
 1776TIP3    H229524   5.608   4.013  20.948  0.7557 -0.6486  0.8341
 1777TIP3   OH229525   6.508   6.156  19.596 -0.1088 -0.1944  0.2425
 1777TIP3    H129526   6.462   6.174  19.514 -0.9876  0.0168  0.7783
 1777TIP3    H229527   6.560   6.235  19.612 -0.8112  0.2267  0.4716
 1778TIP3   OH229528   4.681   2.892  21.394 -0.9400  0.0987 -0.2248
 1778TIP3    H129529   4.694   2.923  21.484  0.1561 -0.3019 -0.2331
 1778TIP3    H229530   4.715   2.963  21.339  0.8229 -0.7297 -0.2594
 1779TIP3   OH229531   5.785   4.807  19.883 -0.2151 -0.5105  0.1587
 1779TIP3    H129532   5.821   4.729  19.841 -0.4024 -0.0537 -0.8745
 1779TIP3    H229533   5.822   4.806  19.971  1.4309 -0.6530 -0.5092
 1780TIP3   OH229534   4.993   6.423  19.434  0.3975 -0.1825  0.0681
 1780TIP3    H129535   5.049   6.437  19.510  0.0820 -1.1681  0.5046
 1780TIP3    H229536   5.043   6.362  19.379 -0.2252 -1.0627  0.4559
 1781TIP3   OH229537   4.574   6.551  19.231 -0.0515  0.0542 -0.5024
 1781TIP3    H129538   4.627   6.507  19.298  1.2963  0.6522 -1.1544
 1781TIP3    H229539   4.621   6.536  19.149 -0.7694  0.8011 -1.0610
 1782TIP3   OH229540   0.883   6.609  19.364 -0.2170  0.5608 -1.1890
 1782TIP3    H129541   0.930   6.572  19.438 -1.5706 -0.0282 -0.5752
 1782TIP3    H229542   0.806   6.651  19.403 -1.3446 -0.4116 -2.2936
 1783TIP3   OH229543   1.939   0.753  19.439 -0.1555  0.4252 -0.1852
 1783TIP3    H129544   1.988   0.673  19.419  2.3855  1.7374  0.2804
 1783TIP3    H229545   1.893   0.734  19.521 -0.9145 -1.0505 -0.9264
 1784TIP3   OH229546   6.581   3.999  18.607  0.7453 -0.4280  0.2193
 1784TIP3    H129547   6.487   4.012  18.595  0.7902 -0.5296 -0.2498
 1784TIP3    H229548   6.590   3.972  18.698  0.3235 -0.3998  0.2705
 1785TIP3   OH229549   2.403   2.744  21.258  0.0951  0.0849  0.1701
 1785TIP3    H129550   2.407   2.746  21.354 -2.2570  1.3569  0.3144
 1785TIP3    H229551   2.420   2.834  21.232 -0.0751 -0.0853 -0.5516
 1786TIP3   OH229552   1.699   1.009  20.681 -0.4877 -0.1065 -0.3497
 1786TIP3    H129553   1.765   0.983  20.616  1.4820  1.8303  0.7386
 1786TIP3    H229554   1.636   1.062  20.632 -0.7995 -1.2594 -1.2399
 1787TIP3   OH229555   6.366   2.708  19.947 -0.0455  0.4242 -0.3297
 1787TIP3    H129556   6.447   2.683  19.992  0.4959  0.6258 -1.1776
 1787TIP3    H229557   6.299   2.703  20.015  0.4978 -0.7291  0.1508
 1788TIP3   OH229558   6.307   5.582  20.239  0.5787 -0.6716 -0.8004
 1788TIP3    H129559   6.335   5.660  20.287 -0.8505  0.2144 -1.3306
 1788TIP3    H229560   6.359   5.585  20.158  0.3667 -0.1236 -0.9266
 1789TIP3   OH229561   2.419   6.205  18.975 -0.6891  0.1836 -0.5852
 1789TIP3    H129562   2.390   6.117  18.949  2.9164 -0.9921 -1.2527
 1789TIP3    H229563   2.431   6.252  18.892  1.0816 -0.1064 -0.5462
 1790TIP3   OH229564   6.252   1.884  21.219 -0.1734  0.2287 -0.6491
 1790TIP3    H129565   6.268   1.968  21.261  0.6892 -0.4432  0.4252
 1790TIP3    H229566   6.316   1.825  21.259 -1.8754 -1.3513 -0.1061
 1791TIP3   OH229567   6.315   0.554  20.859 -0.4069 -0.7004 -0.3364
 1791TIP3    H129568   6.257   0.628  20.877 -0.5212 -0.9732  0.4556
 1791TIP3    H229569   6.306   0.498  20.936  1.9155 -0.1194  0.4196
 1792TIP3   OH229570   5.599   2.080  20.638 -0.0851  0.1051 -0.3553
 1792TIP3    H129571   5.651   2.160  20.634 -0.5400  0.3869 -0.7137
 1792TIP3    H229572   5.628   2.029  20.563 -0.1844  0.1747 -0.4411
 1793TIP3   OH229573   2.198   2.168  19.292  0.4993  0.0475 -0.5675
 1793TIP3    H129574   2.252   2.222  19.350 -0.6634 -0.1600  0.7508
 1793TIP3    H229575   2.262   2.120  19.239  1.5734  1.5908 -0.7532
 1794TIP3   OH229576   3.261   6.115  20.520  0.0620 -0.0373 -0.2681
 1794TIP3    H129577   3.238   6.187  20.461 -0.2636 -0.2095 -0.3522
 1794TIP3    H229578   3.244   6.036  20.470  1.7986 -0.1688 -0.6968
 1795TIP3   OH229579   5.578   0.894  19.831  0.2040 -0.0797  0.6681
 1795TIP3    H129580   5.521   0.821  19.805 -0.8788  0.4657  1.4531
 1795TIP3    H229581   5.662   0.875  19.788 -1.1089  0.1599 -2.2350
 1796TIP3   OH229582   0.827   3.390  20.194 -0.1920 -0.6494 -0.0670
 1796TIP3    H129583   0.902   3.341  20.162  0.3084 -0.0317  0.1461
 1796TIP3    H229584   0.783   3.421  20.115 -0.5510 -1.4735 -0.2076
 1797TIP3   OH229585   6.166   3.142  21.255  0.2909 -0.0755  0.4819
 1797TIP3    H129586   6.155   3.155  21.160  0.2324 -1.5859  0.2603
 1797TIP3    H229587   6.180   3.230  21.289 -0.0678  0.5451 -0.8821
 1798TIP3   OH229588   5.414   2.821  18.523  0.4019  0.0496 -0.8166
 1798TIP3    H129589   5.456   2.859  18.447 -1.1325  0.1765 -1.6445
 1798TIP3    H229590   5.343   2.767  18.487  0.3826 -0.8346  0.4734
 1799TIP3   OH229591   6.004   4.564  19.260  0.0885 -0.2243  0.3008
 1799TIP3    H129592   5.911   4.540  19.267 -1.1482  3.4381 -1.3095
 1799TIP3    H229593   6.025   4.552  19.167  2.4816 -4.3113  1.0884
 1800TIP3   OH229594   0.971   1.714  18.762  0.1667 -0.3352 -0.2558
 1800TIP3    H129595   0.900   1.773  18.784  0.9341  0.5592 -0.1036
 1800TIP3    H229596   0.947   1.631  18.804 -0.5964  0.0546  0.0954
 1801TIP3   OH229597   3.119   6.560  21.419  0.2400  0.6155 -0.1881
 1801TIP3    H129598   3.146   6.468  21.423  1.0288  0.8785  0.9124
 1801TIP3    H229599   3.162   6.595  21.341 -0.6787 -0.1189 -1.0526
 1802TIP3   OH229600   0.532   3.815  20.303 -0.2473  0.0925  0.0942
 1802TIP3    H129601   0.621   3.802  20.270 -0.3748  2.0394 -1.1882
 1802TIP3    H229602   0.537   3.895  20.356 -1.1270 -0.0553  0.4138
 1803TIP3   OH229603   4.963   5.623  21.258 -0.0834 -0.1499  0.2004
 1803TIP3    H129604   4.895   5.673  21.213  1.7500  0.2815 -2.3025
 1803TIP3    H229605   4.920   5.542  21.284 -1.9966  0.8779  0.4235
 1804TIP3   OH229606   0.542   6.606  18.932 -0.0669  0.3833  0.2740
 1804TIP3    H129607   0.626   6.620  18.889 -0.1817  0.4581  0.0731
 1804TIP3    H229608   0.479   6.656  18.880 -0.0143  1.5287  1.2521
 1805TIP3   OH229609   4.247   1.491  20.503  0.1601  0.2196 -0.2162
 1805TIP3    H129610   4.203   1.410  20.530 -0.5595  0.5532 -0.3632
 1805TIP3    H229611   4.251   1.485  20.408 -1.5096  1.1537 -0.3725
 1806TIP3   OH229612   1.829   3.406  21.041  0.0289 -0.0516 -0.4204
 1806TIP3    H129613   1.883   3.340  21.084  2.1584  2.3204  0.8534
 1806TIP3    H229614   1.843   3.391  20.947  0.1550 -1.5870 -0.1843
 1807TIP3   OH229615   1.175   5.981  19.629 -0.0867 -0.3116  0.2410
 1807TIP3    H129616   1.152   6.067  19.594  1.4738 -0.4764 -1.3837
 1807TIP3    H229617   1.143   5.919  19.563 -0.1384 -0.8946  0.8049
 1808TIP3   OH229618   5.083   2.508  21.258 -0.2348  0.3889  0.0860
 1808TIP3    H129619   5.059   2.419  21.233 -0.6413  0.6600 -0.4890
 1808TIP3    H229620   5.175   2.501  21.282 -0.7839 -0.6335  2.1660
 1809TIP3   OH229621   4.900   3.440  19.185  0.3333  0.0842 -0.1666
 1809TIP3    H129622   4.869   3.351  19.169 -0.0399  0.0033  0.9125
 1809TIP3    H229623   4.992   3.438  19.158  0.3595 -0.6643 -0.0529
 1810TIP3   OH229624   0.661   5.809  19.263  0.2191 -0.2052  0.1020
 1810TIP3    H129625   0.588   5.764  19.306 -1.1004  1.3133 -0.4490
 1810TIP3    H229626   0.714   5.843  19.335 -1.1137  0.9691  0.5779
 1811TIP3   OH229627   1.509   6.097  20.264  0.3494  0.1876 -0.0438
 1811TIP3    H129628   1.451   6.031  20.302  0.2897  0.5813  0.5613
 1811TIP3    H229629   1.555   6.051  20.194 -0.6783 -0.1347 -0.5291
 1812TIP3   OH229630   2.301   2.136  19.882 -0.8673  0.3274 -0.2556
 1812TIP3    H129631   2.224   2.155  19.935 -1.8900 -1.4399 -1.0354
 1812TIP3    H229632   2.315   2.042  19.892  1.7591  0.7089  0.5595
 1813TIP3   OH229633   5.381   0.457  21.190  0.1826 -0.0289  0.0251
 1813TIP3    H129634   5.440   0.493  21.124  3.0229 -1.0316  1.8318
 1813TIP3    H229635   5.367   0.366  21.162 -0.4846  0.1786 -0.3454
 1814TIP3   OH229636   3.061   1.355  18.168 -0.7573  0.3568 -0.4111
 1814TIP3    H129637   3.071   1.328  18.077  0.7399  0.2831 -0.2489
 1814TIP3    H229638   3.111   1.437  18.174 -2.7591  1.6236 -0.1895
 1815TIP3   OH229639   1.510   6.060  21.277 -0.2733 -0.2128 -0.2046
 1815TIP3    H129640   1.597   6.099  21.264 -1.3441  1.4282 -3.5350
 1815TIP3    H229641   1.470   6.115  21.344 -0.1430  1.7491 -1.6416
 1816TIP3   OH229642   0.750   1.314  20.170  0.6323  0.0385 -0.0070
 1816TIP3    H129643   0.708   1.228  20.178  0.3433  0.2636  0.9056
 1816TIP3    H229644   0.678   1.375  20.155  0.8598  0.0981 -0.9309
 1817TIP3   OH229645   0.799   5.457  19.614  0.4185 -0.6334 -0.2140
 1817TIP3    H129646   0.776   5.544  19.582 -0.0737 -0.5732  0.2842
 1817TIP3    H229647   0.718   5.423  19.650  0.9321 -0.7350  0.8814
 1818TIP3   OH229648   0.007   0.071  18.473 -0.5139 -0.4409 -0.2693
 1818TIP3    H129649   0.091   0.031  18.451 -1.0477 -2.0115  0.4186
 1818TIP3    H229650   0.019   0.164  18.452  0.7795 -0.9188 -1.9047
 1819TIP3   OH229651   0.730   3.344  19.054  0.3347 -0.1756 -0.3631
 1819TIP3    H129652   0.706   3.436  19.065  0.7754  0.0603 -1.2502
 1819TIP3    H229653   0.655   3.296  19.087 -1.3982  0.5291 -2.9626
 1820TIP3   OH229654   1.231   6.109  18.540  0.1755 -0.8533 -0.7376
 1820TIP3    H129655   1.177   6.060  18.478 -0.3557 -1.4164  0.1589
 1820TIP3    H229656   1.208   6.201  18.525 -0.6176 -1.0506 -0.7422
 1821TIP3   OH229657   5.275   2.808  17.555  0.1120  0.2536 -0.5701
 1821TIP3    H129658   5.200   2.749  17.559  1.1891 -1.1722 -0.3011
 1821TIP3    H229659   5.238   2.896  17.567 -1.3913 -0.4842  0.5822
 1822TIP3   OH229660   5.156   5.468  20.352 -0.1882  0.2173  0.1257
 1822TIP3    H129661   5.080   5.411  20.362 -0.8115  0.0677 -3.8509
 1822TIP3    H229662   5.118   5.553  20.329  0.8370  0.5950 -0.2064
 1823TIP3   OH229663   6.221   4.825  18.350 -0.4347 -0.0907 -0.4060
 1823TIP3    H129664   6.239   4.735  18.322 -1.3190 -0.0634 -1.0837
 1823TIP3    H229665   6.240   4.824  18.444 -1.9212 -1.3966 -0.0810
 1824TIP3   OH229666   4.961   5.431  19.689  0.8435 -0.1682 -0.0558
 1824TIP3    H129667   4.880   5.445  19.642 -0.6457 -1.0583  2.0861
 1824TIP3    H229668   4.959   5.496  19.760  0.8538 -1.6346  1.3460
 1825TIP3   OH229669   0.223   2.994  19.787  0.5510 -0.3958 -0.2360
 1825TIP3    H129670   0.155   3.039  19.737  0.7247 -0.0797 -0.1921
 1825TIP3    H229671   0.181   2.914  19.818 -0.9910  1.4144  2.8126
 1826TIP3   OH229672   0.479   1.229  19.596 -0.2378  0.1928  0.0556
 1826TIP3    H129673   0.411   1.167  19.623  0.2771 -0.4566 -0.1350
 1826TIP3    H229674   0.438   1.282  19.528 -0.1202 -1.1091 -1.0446
 1827TIP3   OH229675   1.857   5.814  18.133 -0.4071 -0.1923 -0.2392
 1827TIP3    H129676   1.774   5.767  18.131 -0.0434 -0.8462 -1.9172
 1827TIP3    H229677   1.921   5.751  18.100  0.6194  0.5699  0.2186
 1828TIP3   OH229678   6.109   1.224  19.613  0.1911  0.0390 -0.3840
 1828TIP3    H129679   6.069   1.228  19.699  1.1971  0.8630  0.0657
 1828TIP3    H229680   6.091   1.135  19.582 -1.4856  0.2130  0.0037
 1829TIP3   OH229681   6.421   2.936  20.586  0.0020 -0.3629  0.4209
 1829TIP3    H129682   6.373   2.986  20.652 -0.5288  0.2904 -0.4305
 1829TIP3    H229683   6.391   2.846  20.597 -1.9205  0.1168 -0.4782
 1830TIP3   OH229684   4.584   4.780  20.315  0.4822 -0.3397 -0.1029
 1830TIP3    H129685   4.610   4.702  20.364  0.6857 -0.7954 -0.9208
 1830TIP3    H229686   4.632   4.774  20.233 -2.0284 -1.1624 -1.6175
 1831TIP3   OH229687   0.725   4.254  19.583 -0.4303  0.2224 -0.2271
 1831TIP3    H129688   0.690   4.266  19.671  3.4641  2.1251  1.3274
 1831TIP3    H229689   0.798   4.193  19.593  1.1513  1.7147 -1.6989
 1832TIP3   OH229690   6.180   0.123  20.767  0.2145  0.2736  0.4491
 1832TIP3    H129691   6.176   0.029  20.748 -1.6166  0.1683  1.1188
 1832TIP3    H229692   6.088   0.149  20.778  0.7779  1.7494  2.1369
 1833TIP3   OH229693   1.523   6.428  19.412  0.2097 -0.4603 -0.0403
 1833TIP3    H129694   1.583   6.419  19.338 -0.6890 -1.0069 -0.7132
 1833TIP3    H229695   1.437   6.445  19.373 -0.2034 -0.3121  0.8912
 1834TIP3   OH229696   3.253   4.490  19.471 -0.1301  0.2911  0.7141
 1834TIP3    H129697   3.160   4.511  19.474 -0.0653  0.5435  0.9815
 1834TIP3    H229698   3.257   4.407  19.424 -0.4618  0.4399  0.4181
 1835TIP3   OH229699   3.274   4.570  20.414  0.8893 -0.3484 -0.3832
 1835TIP3    H129700   3.368   4.574  20.429  0.7746  0.4342  0.2071
 1835TIP3    H229701   3.235   4.582  20.501  0.2354  0.0660 -0.7232
 1836TIP3   OH229702   4.021   1.789  19.240  0.5693 -0.0968 -0.0655
 1836TIP3    H129703   4.077   1.768  19.314  0.4630 -0.3585 -0.0581
 1836TIP3    H229704   3.948   1.728  19.247 -0.7181  1.5152  1.0234
 1837TIP3   OH229705   0.961   0.790  19.820 -0.4088  0.4890 -0.7510
 1837TIP3    H129706   0.882   0.830  19.784 -0.8718 -0.2550 -0.6067
 1837TIP3    H229707   1.033   0.832  19.774 -0.8710  1.4000 -0.6693
 1838TIP3   OH229708   6.163   4.650  20.476  0.3307  0.1735 -0.2561
 1838TIP3    H129709   6.234   4.586  20.465 -0.0902 -0.3346 -0.0615
 1838TIP3    H229710   6.180   4.717  20.409 -1.3376 -2.0583 -3.1749
 1839TIP3   OH229711   2.885   1.129  18.026  0.0716 -0.0321  0.4429
 1839TIP3    H129712   2.805   1.104  17.981  0.9669 -0.4820 -0.9797
 1839TIP3    H229713   2.923   1.198  17.971  1.0826 -0.4369  0.6022
 1840TIP3   OH229714   2.945   2.329  20.291  0.0789  0.4606 -0.2601
 1840TIP3    H129715   2.946   2.239  20.322  1.3620  0.0661 -1.3534
 1840TIP3    H229716   2.862   2.337  20.243 -0.4481  0.1452  0.5867
 1841TIP3   OH229717   1.615   5.194  20.776  0.0480  0.2291  0.9660
 1841TIP3    H129718   1.672   5.148  20.837 -3.2660 -1.9449  2.7441
 1841TIP3    H229719   1.529   5.152  20.786 -1.3679  1.4881 -3.3677
 1842TIP3   OH229720   2.255   3.260  18.562 -0.5554  0.1132 -0.7999
 1842TIP3    H129721   2.236   3.250  18.655  0.4574  1.0547 -0.4800
 1842TIP3    H229722   2.193   3.326  18.531 -0.3250  0.4233 -0.6015
 1843TIP3   OH229723   0.828   2.505  20.967 -0.1374 -0.8338  0.3532
 1843TIP3    H129724   0.793   2.466  20.887 -2.6581 -1.0411  1.4854
 1843TIP3    H229725   0.817   2.600  20.955  0.6691 -0.7808 -0.0375
 1844TIP3   OH229726   4.624   6.418  19.915 -0.1242  0.1531 -0.1986
 1844TIP3    H129727   4.644   6.329  19.943 -1.1411  0.5143  1.8464
 1844TIP3    H229728   4.545   6.409  19.862  0.1377 -0.2213 -0.5345
 1845TIP3   OH229729   0.813   4.918  20.852 -0.1198  0.3134 -0.4868
 1845TIP3    H129730   0.758   4.935  20.929  0.0807 -1.4267  0.0738
 1845TIP3    H229731   0.750   4.909  20.780 -0.4386  0.1740 -0.1978
 1846TIP3   OH229732   4.100   6.591  19.139  0.1818  0.3074  0.7415
 1846TIP3    H129733   4.166   6.547  19.192 -1.0178 -0.7842  1.4035
 1846TIP3    H229734   4.143   6.607  19.055  1.0732 -1.0311  0.9001
 1847TIP3   OH229735   3.046   5.710  19.495 -0.4594  0.2373 -0.2514
 1847TIP3    H129736   3.127   5.760  19.493 -0.9596  1.1198  0.3971
 1847TIP3    H229737   3.063   5.633  19.441 -0.2679  2.0539 -2.9530
 1848TIP3   OH229738   1.476   3.185  19.429 -0.0888 -0.1909 -0.1480
 1848TIP3    H129739   1.456   3.243  19.503 -0.3010 -0.0415 -0.3197
 1848TIP3    H229740   1.484   3.244  19.354  1.4102 -0.1988 -0.0258
 1849TIP3   OH229741   0.742   1.545  19.955 -0.0449  0.2689  0.1826
 1849TIP3    H129742   0.650   1.518  19.964  0.6063 -1.8282  1.2362
 1849TIP3    H229743   0.784   1.473  19.908  1.0859  1.1925 -0.2711
 1850TIP3   OH229744   0.079   4.458  20.061 -0.3163  0.1449 -0.0330
 1850TIP3    H129745   0.038   4.402  20.126 -0.9878  0.4200 -0.2175
 1850TIP3    H229746   0.036   4.435  19.979  1.2868 -1.0173 -0.6237
 1851TIP3   OH229747   1.874   3.967  20.113 -0.0034  0.1535 -0.2629
 1851TIP3    H129748   1.887   4.048  20.162  1.3630 -0.9328  1.3013
 1851TIP3    H229749   1.812   3.989  20.044 -0.7100  2.1785  0.9590
 1852TIP3   OH229750   6.159   4.185  20.897 -0.3022  0.2909 -0.0189
 1852TIP3    H129751   6.171   4.247  20.825 -0.5526  1.3338  0.8167
 1852TIP3    H229752   6.244   4.141  20.905 -0.1856  0.3691 -0.7573
 1853TIP3   OH229753   6.311   6.041  20.830 -0.3032 -0.2040  0.0020
 1853TIP3    H129754   6.395   6.084  20.816  0.4442 -1.7325 -0.4394
 1853TIP3    H229755   6.285   6.067  20.918  0.9522 -0.2064  0.3967
 1854TIP3   OH229756   3.550   3.118  16.880 -0.2358 -0.3362  0.4225
 1854TIP3    H129757   3.631   3.094  16.834 -0.4973 -1.3322  0.4448
 1854TIP3    H229758   3.569   3.203  16.920 -0.6728  1.6847 -3.2620
 1855TIP3   OH229759   5.760   1.599  18.541  0.6579 -0.4205  0.4238
 1855TIP3    H129760   5.810   1.659  18.485 -1.2819  1.3554  0.4285
 1855TIP3    H229761   5.808   1.597  18.623  0.8954  1.0409  0.3540
 1856TIP3   OH229762   5.044   1.837  21.117 -0.2021  0.3029  0.3392
 1856TIP3    H129763   5.033   1.760  21.173 -1.8687  0.5904  0.4279
 1856TIP3    H229764   5.139   1.854  21.119  0.1005 -1.2851  0.9098
 1857TIP3   OH229765   3.517   4.026  19.729  0.3703 -0.2753 -0.4061
 1857TIP3    H129766   3.445   3.989  19.779  1.0696  0.0613  0.8912
 1857TIP3    H229767   3.578   3.954  19.718 -0.1241 -0.5495 -1.4705
 1858TIP3   OH229768   0.787   6.436  19.891 -0.1734 -0.4270  0.3463
 1858TIP3    H129769   0.820   6.524  19.907 -0.3954 -0.7926  3.2568
 1858TIP3    H229770   0.864   6.379  19.902 -0.2918 -0.7329 -0.2941
 1859TIP3   OH229771   5.804   2.349  20.287  0.4122 -0.1469 -0.2254
 1859TIP3    H129772   5.737   2.322  20.224  1.0302 -0.1898 -0.8843
 1859TIP3    H229773   5.779   2.437  20.314  0.1543 -0.1162 -0.5579
 1860TIP3   OH229774   4.502   1.261  20.055  0.6108 -0.0188  0.0454
 1860TIP3    H129775   4.592   1.284  20.030  0.9339 -1.2040  0.0452
 1860TIP3    H229776   4.465   1.222  19.976  1.2682 -2.7523  0.9958
 1861TIP3   OH229777   5.507   4.498  19.472  0.3997 -0.0607 -0.0639
 1861TIP3    H129778   5.473   4.426  19.525 -0.9253  0.3240 -0.3502
 1861TIP3    H229779   5.506   4.573  19.532 -0.8088  0.3062 -0.5156
 1862TIP3   OH229780   2.126   3.324  20.383  0.3819  0.6357 -0.6685
 1862TIP3    H129781   2.203   3.300  20.434  1.1716  0.4243 -1.9119
 1862TIP3    H229782   2.151   3.307  20.292 -1.2470  0.2256 -1.0833
 1863TIP3   OH229783   3.910   2.550  19.279  0.0081 -0.6552 -0.5002
 1863TIP3    H129784   3.936   2.638  19.303 -0.2832 -0.1801 -1.8344
 1863TIP3    H229785   3.993   2.505  19.260  0.0533  0.1990 -2.5798
 1864TIP3   OH229786   2.553   3.653  20.336  0.2716  0.2634 -0.2629
 1864TIP3    H129787   2.560   3.676  20.243 -0.0021 -0.4569 -0.4685
 1864TIP3    H229788   2.513   3.566  20.336 -1.2672  0.9143  0.5792
 1865TIP3   OH229789   2.037   2.327  18.761  0.4111 -0.2059 -0.1500
 1865TIP3    H129790   1.960   2.294  18.809 -0.6013 -1.0028 -2.2108
 1865TIP3    H229791   2.086   2.377  18.827 -1.5898 -0.0936  1.3679
 1866TIP3   OH229792   5.261   3.916  18.827  0.1832  0.5079 -0.9295
 1866TIP3    H129793   5.222   3.996  18.863  1.9758  0.8812  0.3695
 1866TIP3    H229794   5.355   3.927  18.844  0.2910 -3.1788  2.1321
 1867TIP3   OH229795   5.543   1.080  20.103  0.1294  0.2949  0.2250
 1867TIP3    H129796   5.633   1.064  20.131  0.1021 -0.0374  0.1310
 1867TIP3    H229797   5.517   1.160  20.149  0.5452  0.5160  0.0827
 1868TIP3   OH229798   0.650   1.063  18.411  0.2138  0.4760  0.2453
 1868TIP3    H129799   0.674   1.057  18.503 -0.4347 -0.9961  0.3373
 1868TIP3    H229800   0.675   0.979  18.374  0.2117  0.9521 -0.8736
 1869TIP3   OH229801   2.577   1.745  20.812  0.0041 -0.4713 -0.2124
 1869TIP3    H129802   2.592   1.828  20.767  1.7587  0.7499  2.3701
 1869TIP3    H229803   2.664   1.708  20.824 -0.6657 -2.1800 -0.3506
 1870TIP3   OH229804   1.629   0.603  18.532 -0.2366  0.0405 -0.5767
 1870TIP3    H129805   1.648   0.514  18.501 -0.6566 -0.5705  0.8476
 1870TIP3    H229806   1.540   0.597  18.568 -1.1283  1.5628 -2.3395
 1871TIP3   OH229807   0.162   6.618  20.062  0.1910  0.5951 -0.1388
 1871TIP3    H129808   0.243   6.667  20.074  0.5505  1.3223 -4.0354
 1871TIP3    H229809   0.093   6.685  20.065  0.3305  0.8716 -1.8663
 1872TIP3   OH229810   1.420   1.377  20.549  0.6381  0.0371 -0.3085
 1872TIP3    H129811   1.486   1.447  20.555  0.5269  0.0562  0.9497
 1872TIP3    H229812   1.340   1.422  20.525  0.4031  0.4818  1.1990
 1873TIP3   OH229813   2.156   0.813  21.481  0.5471  0.5380  0.3439
 1873TIP3    H129814   2.092   0.769  21.424 -0.8806 -0.1450  2.3439
 1873TIP3    H229815   2.181   0.891  21.433  0.0171 -0.3911 -1.5573
 1874TIP3   OH229816   3.745   5.089  21.347  0.4044 -0.5742  0.0314
 1874TIP3    H129817   3.697   5.007  21.335 -0.3135 -0.4158  1.6548
 1874TIP3    H229818   3.682   5.157  21.323  0.5632 -0.4389 -0.0051
 1875TIP3   OH229819   4.767   2.412  20.128  0.3383  0.2744 -0.7116
 1875TIP3    H129820   4.846   2.401  20.180  1.3684  0.9573 -2.0686
 1875TIP3    H229821   4.787   2.371  20.044 -1.1098 -0.3872 -0.7627
 1876TIP3   OH229822   6.342   1.045  18.295  0.0959  0.1599  0.1488
 1876TIP3    H129823   6.279   0.990  18.249 -0.4847  1.3110 -0.4722
 1876TIP3    H229824   6.366   1.113  18.231 -0.0232  1.2494  1.2154
 1877TIP3   OH229825   5.675   1.820  18.229 -0.5841  0.4265 -0.1953
 1877TIP3    H129826   5.702   1.907  18.200  0.4415  1.4947  3.4682
 1877TIP3    H229827   5.720   1.760  18.169  1.4071  2.3907 -0.8060
 1878TIP3   OH229828   0.722   3.206  17.742  0.2218 -0.2327  0.1044
 1878TIP3    H129829   0.734   3.142  17.672  0.8698  0.4584 -0.4263
 1878TIP3    H229830   0.660   3.164  17.802 -1.1817 -0.3883 -1.3981
 1879TIP3   OH229831   0.897   1.611  18.473 -0.2038  0.2955 -0.2357
 1879TIP3    H129832   0.892   1.696  18.428 -4.3972  0.7896  0.8200
 1879TIP3    H229833   0.915   1.633  18.564 -1.0433  0.0546 -0.0063
 1880TIP3   OH229834   4.780   2.082  20.471 -0.4478 -0.0418 -0.1315
 1880TIP3    H129835   4.712   2.067  20.405  0.6467 -2.0355 -0.8875
 1880TIP3    H229836   4.750   2.035  20.548  0.7834 -2.3914 -1.0041
 1881TIP3   OH229837   4.133   1.096  18.142 -0.2289 -0.4252  0.2449
 1881TIP3    H129838   4.116   1.049  18.223 -1.2354 -1.2491 -0.4241
 1881TIP3    H229839   4.184   1.173  18.169  0.1494 -1.1046  1.5367
 1882TIP3   OH229840   1.721   1.190  20.327  0.1958 -0.0241 -0.3221
 1882TIP3    H129841   1.776   1.235  20.263  0.1982 -1.0403 -1.0533
 1882TIP3    H229842   1.768   1.200  20.410  0.5957  0.6163 -0.6195
 1883TIP3   OH229843   5.528   5.873  18.009  0.0665 -0.6490 -0.5501
 1883TIP3    H129844   5.454   5.908  18.059  1.9221  1.4198  0.9715
 1883TIP3    H229845   5.504   5.888  17.917 -1.2114  0.4198 -0.0769
 1884TIP3   OH229846   4.662   0.726  19.504  0.5161  0.6569 -0.1090
 1884TIP3    H129847   4.640   0.759  19.591 -2.7453  1.6084 -1.1280
 1884TIP3    H229848   4.704   0.799  19.460  2.0332  0.2231  0.5539
 1885TIP3   OH229849   1.911   1.267  17.835  0.4129 -0.0785 -0.2294
 1885TIP3    H129850   1.860   1.204  17.886 -0.0183 -0.5732 -1.2345
 1885TIP3    H229851   1.994   1.222  17.818  0.1839 -0.3101 -0.7717
 1886TIP3   OH229852   2.111   2.517  20.965  0.2823  0.0889 -0.8974
 1886TIP3    H129853   2.205   2.520  20.982 -0.2626  0.9319  2.7941
 1886TIP3    H229854   2.082   2.608  20.973 -1.1110 -0.4169  0.2963
 1887TIP3   OH229855   6.606   2.796  18.668  0.2577 -0.2090 -0.4412
 1887TIP3    H129856   6.669   2.750  18.723 -0.6261 -1.6628 -0.6116
 1887TIP3    H229857   6.521   2.780  18.709 -0.1171  1.0297 -0.6813
 1888TIP3   OH229858   1.209   4.207  19.499 -0.2322  0.4123 -0.6291
 1888TIP3    H129859   1.303   4.199  19.509 -0.2388  1.6819  0.6792
 1888TIP3    H229860   1.195   4.222  19.405  1.0230  2.1514 -0.5651
 1889TIP3   OH229861   1.682   0.466  19.574 -0.6232 -0.0426  0.0575
 1889TIP3    H129862   1.756   0.515  19.612 -0.9850 -0.5094  1.4236
 1889TIP3    H229863   1.709   0.449  19.484  0.1910  1.2896  0.0121
 1890TIP3   OH229864   0.866   2.266  20.521 -0.0919 -0.8845 -0.0531
 1890TIP3    H129865   0.951   2.268  20.477 -0.4756 -2.2441 -0.9313
 1890TIP3    H229866   0.886   2.238  20.610  0.6747  1.7244  0.7074
 1891TIP3   OH229867   2.844   4.441  19.695 -0.2549  0.1788 -0.1749
 1891TIP3    H129868   2.880   4.397  19.772  0.4772 -0.5442 -0.9249
 1891TIP3    H229869   2.797   4.517  19.731 -0.4994 -0.5191  1.0339
 1892TIP3   OH229870   3.283   4.310  18.565 -0.2309  0.2475  0.1641
 1892TIP3    H129871   3.221   4.378  18.591 -0.3873  0.4651 -0.7312
 1892TIP3    H229872   3.366   4.356  18.556 -0.5299  0.5380 -1.3745
 1893TIP3   OH229873   3.841   3.221  20.023 -0.3035 -0.1889 -0.0435
 1893TIP3    H129874   3.883   3.225  19.938  0.8493  0.3340  0.5319
 1893TIP3    H229875   3.755   3.181  20.006 -1.4541  2.7521 -1.9497
 1894TIP3   OH229876   1.177   3.727  20.573 -0.4165 -0.2598 -0.2962
 1894TIP3    H129877   1.203   3.636  20.588  2.5177  0.8431  2.8421
 1894TIP3    H229878   1.110   3.744  20.638  0.6299  0.3117  0.6757
 1895TIP3   OH229879   5.248   0.045  20.142 -0.3659  0.0233  0.3508
 1895TIP3    H129880   5.331   0.006  20.168  0.6868  1.0067 -1.3165
 1895TIP3    H229881   5.259   0.139  20.157 -1.1404  0.1797  0.0216
 1896TIP3   OH229882   1.136   1.798  21.267  0.4664  0.6536 -0.3726
 1896TIP3    H129883   1.225   1.781  21.236  0.7628 -0.1778  0.8784
 1896TIP3    H229884   1.144   1.804  21.362 -0.7967  0.7233 -0.2544
 1897TIP3   OH229885   0.202   2.953  20.489 -0.2911  0.6744 -0.2205
 1897TIP3    H129886   0.293   2.932  20.468 -0.2480  0.7773 -0.1364
 1897TIP3    H229887   0.150   2.889  20.439 -0.1202 -0.5146  1.0737
 1898TIP3   OH229888   5.653   2.004  21.164  0.1065  0.1616 -0.1389
 1898TIP3    H129889   5.669   1.953  21.244  1.8547  0.5560 -0.2005
 1898TIP3    H229890   5.702   1.958  21.096  0.8001  1.2859 -0.4232
 1899TIP3   OH229891   2.682   5.059  18.526  0.6891  0.0704 -0.0125
 1899TIP3    H129892   2.714   5.081  18.614  0.9677 -1.6047  0.3301
 1899TIP3    H229893   2.587   5.067  18.533  0.7786  1.4072 -0.0007
 1900TIP3   OH229894   0.708   2.970  19.568  0.2398  0.8616  0.0236
 1900TIP3    H129895   0.779   2.968  19.633 -1.3651 -0.5468  1.8647
 1900TIP3    H229896   0.655   2.893  19.589 -1.0152  1.0169 -2.2784
 1901TIP3   OH229897   3.052   4.381  19.278  0.5270 -0.4810  0.0568
 1901TIP3    H129898   3.017   4.339  19.357 -0.3124  0.1542  0.0354
 1901TIP3    H229899   3.134   4.335  19.262 -0.2394 -1.9726  0.1591
 1902TIP3   OH229900   3.554   2.186  17.187  0.4634 -0.0899 -0.1183
 1902TIP3    H129901   3.541   2.117  17.252 -0.1838 -1.0160 -1.2022
 1902TIP3    H229902   3.608   2.146  17.120 -0.2751  0.3123 -0.9690
 1903TIP3   OH229903   4.215   4.299  19.699  0.1211 -0.2900  0.2826
 1903TIP3    H129904   4.141   4.337  19.746 -0.2464  0.1103 -0.5889
 1903TIP3    H229905   4.203   4.204  19.709 -1.1847 -0.2766 -0.7996
 1904TIP3   OH229906   0.269   6.133  20.734  0.0791 -0.2708 -0.0305
 1904TIP3    H129907   0.306   6.172  20.656 -0.1211 -0.2915 -0.1384
 1904TIP3    H229908   0.334   6.148  20.803  0.8333 -1.3489 -0.4725
 1905TIP3   OH229909   0.396   2.827  20.249 -0.0650 -0.3369 -0.1002
 1905TIP3    H129910   0.436   2.913  20.262 -0.1865 -0.0720 -1.3157
 1905TIP3    H229911   0.444   2.769  20.308  0.3299  0.4791  0.3982
 1906TIP3   OH229912   4.825   4.622  20.845 -0.1170  0.4756  0.1211
 1906TIP3    H129913   4.865   4.658  20.925  2.0808  0.8273 -1.0519
 1906TIP3    H229914   4.761   4.688  20.819  1.2241  1.8028  0.0349
 1907TIP3   OH229915   6.353   0.894  18.914 -0.2762 -0.0223 -0.6538
 1907TIP3    H129916   6.382   0.817  18.962  1.4153  0.8437 -0.2163
 1907TIP3    H229917   6.321   0.859  18.830 -2.3218 -1.4370  0.6315
 1908TIP3   OH229918   0.433   1.819  17.845  0.1883  0.3262  0.2587
 1908TIP3    H129919   0.486   1.898  17.847  0.7706 -0.0682  1.4285
 1908TIP3    H229920   0.358   1.839  17.901 -0.9283  0.8711 -1.3617
 1909TIP3   OH229921   1.861   0.455  21.605  0.1220 -0.1138  0.2322
 1909TIP3    H129922   1.785   0.493  21.649 -1.6935 -1.0472 -1.9098
 1909TIP3    H229923   1.892   0.525  21.547  0.8853  0.2386  1.0459
 1910TIP3   OH229924   3.015   0.084  17.941  0.4092  0.2457  0.5159
 1910TIP3    H129925   3.108   0.067  17.925  1.0033  1.7650  2.0760
 1910TIP3    H229926   2.996   0.163  17.890 -0.3203 -0.6576 -0.6363
 1911TIP3   OH229927   4.217   2.857  21.169  0.1630  0.1930 -0.5759
 1911TIP3    H129928   4.204   2.775  21.121 -1.9379  0.3507 -0.3572
 1911TIP3    H229929   4.305   2.849  21.205 -0.1824 -2.2491 -0.0684
 1912TIP3   OH229930   2.581   6.445  18.334  0.8525  0.2430  0.2774
 1912TIP3    H129931   2.627   6.375  18.382 -1.4538 -1.4309  0.2274
 1912TIP3    H229932   2.622   6.445  18.248  1.8843  0.0004  0.7450
 1913TIP3   OH229933   6.416   4.336  21.067 -0.0116 -0.2385 -0.4692
 1913TIP3    H129934   6.397   4.271  21.135  0.6171 -1.2309 -1.2158
 1913TIP3    H229935   6.505   4.316  21.039  1.0538  2.3133  0.7687
 1914TIP3   OH229936   5.675   1.155  19.845 -0.6511  0.0856 -0.2354
 1914TIP3    H129937   5.609   1.113  19.900  0.2463  0.3018  1.0637
 1914TIP3    H229938   5.656   1.249  19.853  0.6510  0.2508  1.3221
 1915TIP3   OH229939   6.398   6.501  20.107 -0.2856  0.0069  0.1085
 1915TIP3    H129940   6.311   6.527  20.075 -1.1413 -0.3631  1.9676
 1915TIP3    H229941   6.398   6.405  20.102 -0.2416 -0.0293  0.6546
 1916TIP3   OH229942   3.795   2.024  18.540 -0.5071 -0.0409  0.3991
 1916TIP3    H129943   3.877   1.991  18.503 -1.2760 -0.8993 -0.5978
 1916TIP3    H229944   3.775   1.961  18.610 -0.1869  0.3329  0.8379
 1917TIP3   OH229945   1.382   6.578  21.807  0.2024  0.0514 -0.2371
 1917TIP3    H129946   1.352   6.514  21.870 -1.4462  0.9915 -0.0047
 1917TIP3    H229947   1.302   6.609  21.763  0.9299  1.8295 -0.4264
 1918TIP3   OH229948   1.145   0.017  21.684  0.1825  0.5558  0.1933
 1918TIP3    H129949   1.050   0.006  21.680  0.0940  0.9217  1.0702
 1918TIP3    H229950   1.160   0.107  21.655  0.2661  0.5052  0.0752
 1919TIP3   OH229951   0.472   0.839  18.707  0.2008  0.1451 -0.7145
 1919TIP3    H129952   0.447   0.751  18.737  2.0141 -1.6592 -3.9790
 1919TIP3    H229953   0.434   0.846  18.620  2.0113  1.6558 -1.4336
 1920TIP3   OH229954   5.750   5.648  18.806  0.1296 -0.3780 -0.0182
 1920TIP3    H129955   5.729   5.741  18.802  0.7060 -0.1835  1.1007
 1920TIP3    H229956   5.803   5.632  18.728  1.1439  0.5451  0.4478
 1921TIP3   OH229957   1.401   3.079  21.300 -0.0150 -0.1850  0.2314
 1921TIP3    H129958   1.395   3.158  21.355  0.3377  0.4889 -0.6793
 1921TIP3    H229959   1.492   3.050  21.310  0.0163 -0.1318  0.1010
 1922TIP3   OH229960   2.721   1.255  18.754  0.3109 -0.6668 -0.0126
 1922TIP3    H129961   2.787   1.323  18.736  0.6991 -1.1593 -0.4588
 1922TIP3    H229962   2.755   1.177  18.712  0.6453 -1.5627  1.8166
 1923TIP3   OH229963   2.546   0.467  20.506  0.2045 -0.2805  0.1254
 1923TIP3    H129964   2.456   0.470  20.474 -0.1411  0.2300  1.1092
 1923TIP3    H229965   2.558   0.549  20.554  2.1652  1.0672 -2.4418
 1924TIP3   OH229966   0.861   6.058  20.172  0.3091 -0.1264  0.2250
 1924TIP3    H129967   0.878   5.969  20.204  1.1436 -0.0700 -0.0347
 1924TIP3    H229968   0.943   6.105  20.189 -0.9578  1.3535  2.8522
 1925TIP3   OH229969   1.041   1.253  19.045  0.3308 -0.2040 -0.3793
 1925TIP3    H129970   0.985   1.254  19.123  1.3830  0.7379  0.3974
 1925TIP3    H229971   1.023   1.336  19.002  0.0919 -0.5255 -0.9027
 1926TIP3   OH229972   5.475   2.905  18.278 -0.5842 -0.0683  0.1013
 1926TIP3    H129973   5.464   2.994  18.245  1.3699  0.3709  0.5257
 1926TIP3    H229974   5.539   2.865  18.219 -1.5024 -1.2401 -0.1354
 1927TIP3   OH229975   3.697   4.982  19.475  0.4059  0.6132 -0.2059
 1927TIP3    H129976   3.792   4.971  19.476  0.4182  0.1086 -2.6106
 1927TIP3    H229977   3.667   4.928  19.548  1.8753 -0.1617 -0.1354
 1928TIP3   OH229978   0.534   4.425  18.910 -0.1440 -0.1787 -0.4798
 1928TIP3    H129979   0.454   4.474  18.894 -0.6666 -0.8382  0.0548
 1928TIP3    H229980   0.511   4.362  18.978  0.9628 -0.0522  0.0500
 1929TIP3   OH229981   2.075   4.431  17.844  0.6042  0.2569  0.0428
 1929TIP3    H129982   2.082   4.430  17.749  1.7061 -0.9990  0.1033
 1929TIP3    H229983   2.045   4.520  17.865  0.6586  0.6572 -1.4457
 1930TIP3   OH229984   2.421   5.572  20.247 -0.7008 -0.6106  0.7246
 1930TIP3    H129985   2.341   5.550  20.199  0.8291 -0.7618 -1.9767
 1930TIP3    H229986   2.394   5.636  20.312 -2.8537  0.0503 -0.7256
 1931TIP3   OH229987   4.461   5.212  20.727  0.2537 -0.3089 -0.3323
 1931TIP3    H129988   4.395   5.145  20.744  0.7276 -0.7737 -0.2874
 1931TIP3    H229989   4.411   5.290  20.703 -0.2732 -1.1780 -2.2030
 1932TIP3   OH229990   2.829   3.691  20.134  0.5043 -0.3496 -0.1711
 1932TIP3    H129991   2.895   3.702  20.065  0.4631 -0.0301 -0.1601
 1932TIP3    H229992   2.751   3.734  20.099  0.2106 -0.9840 -0.3127
 1933TIP3   OH229993   1.829   0.922  19.051 -0.0004  0.3048 -0.5177
 1933TIP3    H129994   1.889   0.913  18.977 -0.3008  0.6701 -0.8109
 1933TIP3    H229995   1.755   0.865  19.030  0.0756  0.1337 -0.3262
 1934TIP3   OH229996   0.739   3.195  19.793 -0.2414  0.0633  0.2356
 1934TIP3    H129997   0.804   3.130  19.768 -0.9930 -1.1244  1.2145
 1934TIP3    H229998   0.704   3.229  19.710  0.9161  0.0088 -0.2841
 1935TIP3   OH229999   1.627   1.539  20.607 -0.0855 -0.0061 -0.1602
 1935TIP3    H130000   1.639   1.526  20.701 -1.8262  1.2168  0.2686
 1935TIP3    H230001   1.632   1.634  20.595 -0.9866 -0.0604 -1.1245
 1936TIP3   OH230002   1.453   5.745  18.881  0.0447 -0.0510  0.0992
 1936TIP3    H130003   1.523   5.693  18.841 -0.1549  0.4693 -0.9378
 1936TIP3    H230004   1.417   5.797  18.810 -1.0927  0.0475  0.7210
 1937TIP3   OH230005   1.297   2.398  18.700 -0.6236  0.1418  0.1994
 1937TIP3    H130006   1.326   2.311  18.672 -0.1236 -0.5105  2.5658
 1937TIP3    H230007   1.378   2.450  18.700 -0.4479 -0.1126  1.2436
 1938TIP3   OH230008   6.141   2.086  19.619  0.5649 -0.3424 -0.1666
 1938TIP3    H130009   6.056   2.130  19.630  1.1633  0.6572  0.6850
 1938TIP3    H230010   6.132   2.035  19.539 -1.0977 -0.8680  0.3269
 1939TIP3   OH230011   6.391   1.333  19.638  0.2682 -1.1379 -0.1274
 1939TIP3    H130012   6.376   1.379  19.720  1.5500 -2.4758  0.9088
 1939TIP3    H230013   6.317   1.271  19.631 -0.6674  0.0100 -0.7940
 1940TIP3   OH230014   5.130   3.916  19.478 -0.2044 -0.2941 -0.0107
 1940TIP3    H130015   5.053   3.860  19.479 -0.7067  0.3687 -0.4370
 1940TIP3    H230016   5.182   3.885  19.404 -1.1064  0.5959 -1.0549
 1941TIP3   OH230017   1.241   5.834  20.737  0.2296 -0.2159 -0.0416
 1941TIP3    H130018   1.194   5.808  20.658 -0.1337 -0.1276  0.1422
 1941TIP3    H230019   1.213   5.924  20.754 -1.1307 -0.8167  1.1964
 1942TIP3   OH230020   3.845   3.991  19.141  0.3288 -0.1938 -0.0660
 1942TIP3    H130021   3.938   3.992  19.118  0.2813  1.0159 -0.2834
 1942TIP3    H230022   3.805   4.056  19.083 -0.0766  1.7543  2.2121
 1943TIP3   OH230023   3.775   2.814  18.268  0.0811 -0.3646  0.1320
 1943TIP3    H130024   3.701   2.753  18.263 -0.9007  0.7700  0.4661
 1943TIP3    H230025   3.793   2.839  18.178 -0.2908 -0.2250  0.0992
 1944TIP3   OH230026   2.641   0.430  20.871 -0.5082 -0.4253  0.6580
 1944TIP3    H130027   2.663   0.380  20.793  1.0479 -0.0305  0.8037
 1944TIP3    H230028   2.656   0.370  20.944 -0.1086 -0.2188  0.7494
 1945TIP3   OH230029   1.811   2.728  20.808 -0.6518  0.3562  0.3358
 1945TIP3    H130030   1.770   2.701  20.890 -0.2071 -1.4423  0.0186
 1945TIP3    H230031   1.839   2.646  20.768 -2.0081  1.0482 -2.2519
 1946TIP3   OH230032   1.337   0.278  21.547  0.9300  0.2781  0.1463
 1946TIP3    H130033   1.383   0.275  21.464  1.7020  3.3321  0.3377
 1946TIP3    H230034   1.245   0.262  21.524  1.3661 -0.8505 -0.9510
 1947TIP3   OH230035   4.962   6.110  19.546 -0.1987  0.1548  0.3363
 1947TIP3    H130036   5.049   6.148  19.559 -0.4974  1.0534 -0.2337
 1947TIP3    H230037   4.904   6.167  19.596 -0.6311  0.3238 -0.3582
 1948TIP3   OH230038   6.530   1.089  20.309 -0.6187  0.0259  0.4998
 1948TIP3    H130039   6.600   1.083  20.244 -0.5188  0.1154  0.5997
 1948TIP3    H230040   6.574   1.075  20.392 -0.5982  0.8234  0.6257
 1949TIP3   OH230041   0.935   1.564  19.605 -0.7022  0.4845  0.2178
 1949TIP3    H130042   0.891   1.479  19.608 -1.8849  1.0852  0.6770
 1949TIP3    H230043   0.938   1.594  19.696 -0.0199  0.8079  0.1034
 1950TIP3   OH230044   5.874   1.250  18.109 -0.1326 -0.2379 -0.4086
 1950TIP3    H130045   5.938   1.184  18.137 -1.6815 -1.8286 -0.4039
 1950TIP3    H230046   5.875   1.244  18.013 -0.0653 -0.0594 -0.4194
 1951TIP3   OH230047   2.084   3.261  19.153  0.5031 -0.4011 -0.0190
 1951TIP3    H130048   2.048   3.299  19.073  0.7325  1.7039  0.8204
 1951TIP3    H230049   2.036   3.179  19.164 -0.3720 -0.1567 -1.6608
 1952TIP3   OH230050   3.520   6.196  20.589 -0.0672 -0.0020 -0.9154
 1952TIP3    H130051   3.428   6.181  20.566 -0.8793  0.5106  1.6313
 1952TIP3    H230052   3.560   6.109  20.583 -1.6972 -1.0417  1.5658
 1953TIP3   OH230053   3.228   1.096  17.734  0.1933  0.1254  0.3806
 1953TIP3    H130054   3.192   1.007  17.741 -0.8279  0.5676  1.1016
 1953TIP3    H230055   3.321   1.084  17.715  0.0239 -1.0930  0.2723
 1954TIP3   OH230056   2.699   0.694  19.848  0.0295  0.3954  0.2345
 1954TIP3    H130057   2.652   0.743  19.781 -0.4744 -0.1561  0.1824
 1954TIP3    H230058   2.633   0.637  19.887  0.6746 -0.4679  0.0896
 1955TIP3   OH230059   0.258   5.947  19.496  0.1736 -0.2094 -0.0078
 1955TIP3    H130060   0.306   5.978  19.419 -0.6754  0.9058 -0.1171
 1955TIP3    H230061   0.282   6.009  19.565 -0.5335 -0.0796  0.1267
 1956TIP3   OH230062   4.566   6.182  18.136 -0.0535  0.4056  0.3123
 1956TIP3    H130063   4.589   6.098  18.176  0.8923 -0.0846 -1.1922
 1956TIP3    H230064   4.500   6.161  18.070  1.3267  0.5710 -1.1779
 1957TIP3   OH230065   3.328   6.441  18.797  0.1678  0.6197  0.3534
 1957TIP3    H130066   3.255   6.380  18.781  1.0400 -0.5816  0.8001
 1957TIP3    H230067   3.285   6.523  18.821 -1.0494  0.2487 -0.4585
 1958TIP3   OH230068   1.082   0.288  20.621 -0.0496 -0.2157 -0.3411
 1958TIP3    H130069   1.167   0.302  20.663  0.3020 -1.8545 -0.4625
 1958TIP3    H230070   1.048   0.208  20.661 -0.8013 -0.4757 -1.4561
 1959TIP3   OH230071   5.708   2.338  19.847 -0.3829  0.7036  0.2322
 1959TIP3    H130072   5.630   2.326  19.901 -0.6927 -0.7272 -0.4750
 1959TIP3    H230073   5.684   2.408  19.787 -1.3175  0.0022 -0.2524
 1960TIP3   OH230074   3.778   3.604  20.748  0.2505  0.5370  0.1579
 1960TIP3    H130075   3.762   3.568  20.661  2.6917  0.0204 -0.1538
 1960TIP3    H230076   3.692   3.610  20.788 -1.2186  2.5667 -2.9344
 1961TIP3   OH230077   2.442   2.917  18.203  0.8810  0.0304 -0.5734
 1961TIP3    H130078   2.372   2.983  18.210  2.1923  1.3664  0.4037
 1961TIP3    H230079   2.513   2.963  18.158  1.6631 -0.8791 -0.2780
 1962TIP3   OH230080   3.842   4.441  18.883 -1.0627 -0.2281 -0.8524
 1962TIP3    H130081   3.751   4.433  18.856 -1.5256  0.5296  0.3683
 1962TIP3    H230082   3.874   4.519  18.838 -1.6596  0.7008  0.2587
 1963TIP3   OH230083   1.503   0.859  20.190  0.3370  0.8641  0.0468
 1963TIP3    H130084   1.598   0.856  20.195  0.2531 -0.3869  1.6521
 1963TIP3    H230085   1.474   0.852  20.281 -1.2969  1.1557 -0.4171
 1964TIP3   OH230086   0.988   1.650  20.700  0.6303  0.2905  0.3506
 1964TIP3    H130087   0.973   1.667  20.793  0.6221 -1.3900  0.6840
 1964TIP3    H230088   0.923   1.704  20.655 -1.1039 -0.7985  1.4507
 1965TIP3   OH230089   1.764   4.538  19.190 -0.1952  0.0853  0.0687
 1965TIP3    H130090   1.819   4.552  19.267 -0.5134 -0.6851  0.4466
 1965TIP3    H230091   1.679   4.576  19.214 -0.0104  0.7602 -0.2993
 1966TIP3   OH230092   4.667   1.414  19.071  0.6496 -0.6001  0.8924
 1966TIP3    H130093   4.761   1.407  19.085  0.7438 -0.1977  0.4874
 1966TIP3    H230094   4.652   1.508  19.057  0.3746 -0.8206 -0.3420
 1967TIP3   OH230095   3.223   6.171  19.685  0.0876  0.2122  0.0620
 1967TIP3    H130096   3.265   6.130  19.760  1.2040  3.6913  1.5273
 1967TIP3    H230097   3.289   6.169  19.615 -0.1606 -1.0665 -0.1614
 1968TIP3   OH230098   0.943   3.600  19.865 -0.5462  0.2803 -0.1618
 1968TIP3    H130099   0.949   3.693  19.886  1.5627 -0.1836  1.6421
 1968TIP3    H230100   0.943   3.597  19.769 -2.3602  2.1538 -0.2988
 1969TIP3   OH230101   5.090   4.519  19.688 -0.2997 -0.0982  0.5304
 1969TIP3    H130102   5.132   4.557  19.765  2.1317  0.1879 -0.8534
 1969TIP3    H230103   5.126   4.430  19.681 -0.9677 -0.3468  0.0592
 1970TIP3   OH230104   1.169   1.177  19.900 -0.1510 -0.1488  0.6779
 1970TIP3    H130105   1.133   1.229  19.972  1.2780  1.1691  0.4904
 1970TIP3    H230106   1.185   1.091  19.939 -0.7264  0.1203  1.5363
 1971TIP3   OH230107   1.313   0.308  17.835  0.2242  0.3656 -0.8953
 1971TIP3    H130108   1.360   0.266  17.907  1.0446  0.8560 -1.1333
 1971TIP3    H230109   1.285   0.235  17.780 -0.3126 -0.0088 -0.1545
 1972TIP3   OH230110   2.528   4.576  19.356  0.4770 -0.3615  0.6521
 1972TIP3    H130111   2.598   4.637  19.336  0.3196 -0.0311  1.0961
 1972TIP3    H230112   2.535   4.508  19.289  0.2886  0.4439 -0.2050
 1973TIP3   OH230113   0.222   0.291  21.528  0.2160  0.1728 -0.1741
 1973TIP3    H130114   0.195   0.266  21.617  0.7552 -1.9584 -0.5384
 1973TIP3    H230115   0.142   0.319  21.485 -0.1863  0.5106  0.7730
 1974TIP3   OH230116   0.003   4.536  20.507 -0.0914 -0.6892  0.1456
 1974TIP3    H130117  -0.014   4.544  20.601  0.5472  0.4558  0.1835
 1974TIP3    H230118   0.095   4.512  20.501  0.6303  1.8394 -0.1894
 1975TIP3   OH230119   4.360   2.478  19.940 -0.1605  0.0632  0.1476
 1975TIP3    H130120   4.348   2.503  20.032  1.0227  1.0601  0.0450
 1975TIP3    H230121   4.407   2.395  19.944  0.1486  0.2484  0.4423
 1976TIP3   OH230122   4.452   3.454  19.995 -0.0745  0.1728 -0.0240
 1976TIP3    H130123   4.497   3.386  20.045  0.2936  1.1554  1.0370
 1976TIP3    H230124   4.360   3.427  19.994  0.1104 -0.4596  0.1780
 1977TIP3   OH230125   1.087   3.632  18.634 -0.2895 -0.0838 -0.4075
 1977TIP3    H130126   1.116   3.611  18.545  0.5689 -2.1276  0.2898
 1977TIP3    H230127   1.136   3.710  18.657  1.5043 -1.0361 -0.8100
 1978TIP3   OH230128   6.419   4.505  18.762 -0.0175 -0.0175 -0.3296
 1978TIP3    H130129   6.332   4.513  18.800  0.4798  1.4216  0.5853
 1978TIP3    H230130   6.403   4.480  18.671 -1.2989 -1.5681  0.2681
 1979TIP3   OH230131   3.006   1.207  19.184  0.0121  0.1124 -0.3709
 1979TIP3    H130132   3.020   1.158  19.103 -1.3274 -0.1198 -0.4728
 1979TIP3    H230133   2.915   1.236  19.180  0.4806  1.8228  0.1244
 1980TIP3   OH230134   4.017   1.733  18.840 -0.2982  0.1611  0.3617
 1980TIP3    H130135   4.093   1.791  18.845 -0.8924  0.9832  0.1712
 1980TIP3    H230136   4.053   1.645  18.839  0.5925  0.4792  1.7656
 1981TIP3   OH230137   4.923   3.092  18.286  0.0594 -0.5740 -0.2648
 1981TIP3    H130138   4.838   3.051  18.273 -1.1369  1.7255 -0.2861
 1981TIP3    H230139   4.934   3.149  18.210  1.8254 -1.1243 -0.4630
 1982TIP3   OH230140   5.099   1.442  17.828 -0.3153 -0.4092 -0.0466
 1982TIP3    H130141   5.083   1.425  17.735 -0.8832  0.4609 -0.1142
 1982TIP3    H230142   5.031   1.504  17.854  0.6724  0.4423  0.6111
 1983TIP3   OH230143   2.398   2.618  21.002 -0.4012  0.4016 -0.2340
 1983TIP3    H130144   2.415   2.662  21.085 -2.5496  1.9305 -0.5173
 1983TIP3    H230145   2.473   2.639  20.947  0.3593  0.5723  0.8402
 1984TIP3   OH230146   1.970   2.081  20.415  0.0972 -0.1333  0.1280
 1984TIP3    H130147   1.950   1.988  20.402  0.4654 -0.3291  0.8973
 1984TIP3    H230148   1.957   2.096  20.508 -0.7646  0.7986 -0.1236
 1985TIP3   OH230149   0.259   3.505  19.845 -0.1780 -0.5933 -0.5443
 1985TIP3    H130150   0.306   3.435  19.799 -0.9088 -0.9958 -0.6939
 1985TIP3    H230151   0.318   3.531  19.915 -0.3620 -2.1874  0.2562
 1986TIP3   OH230152   4.134   0.767  17.632  0.3506 -0.4512 -1.1170
 1986TIP3    H130153   4.201   0.810  17.580  0.7042  0.0819 -0.2316
 1986TIP3    H230154   4.166   0.677  17.641  2.0659  0.2889  1.0710
 1987TIP3   OH230155   6.079   3.451  20.951  0.2438 -0.6009  0.0950
 1987TIP3    H130156   6.171   3.430  20.936  0.4048 -0.2785  0.6162
 1987TIP3    H230157   6.060   3.521  20.888  0.3479 -0.6843 -0.0294
 1988TIP3   OH230158   4.942   1.349  20.914 -0.0837 -0.4448  0.0741
 1988TIP3    H130159   5.005   1.308  20.973  0.0270  0.4308  0.5826
 1988TIP3    H230160   4.873   1.383  20.971  0.9387  2.0787 -0.0361
 1989TIP3   OH230161   5.499   0.466  19.831  0.6233  0.7781 -0.0376
 1989TIP3    H130162   5.452   0.549  19.825  0.0400  0.6211  1.6867
 1989TIP3    H230163   5.430   0.401  19.846  1.3076  0.4820  2.1276
 1990TIP3   OH230164   0.338   5.614  20.029 -0.1381 -0.1498  0.1224
 1990TIP3    H130165   0.379   5.675  19.968 -1.7796  1.2636  0.3543
 1990TIP3    H230166   0.395   5.616  20.106 -0.0679  0.9824  0.0577
 1991TIP3   OH230167   3.291   0.308  21.130 -0.0358 -0.6506  0.0258
 1991TIP3    H130168   3.294   0.351  21.044  1.1835  0.4753  0.5967
 1991TIP3    H230169   3.203   0.327  21.163  0.7014  2.2054  0.6067
 1992TIP3   OH230170   6.543   1.079  19.275 -0.4584  0.1063 -0.5015
 1992TIP3    H130171   6.523   1.056  19.366 -0.4731  1.5895 -0.1063
 1992TIP3    H230172   6.634   1.051  19.263 -1.0468 -1.8718 -0.6617
 1993TIP3   OH230173   1.752   3.521  20.270  0.4546  0.8805 -0.0280
 1993TIP3    H130174   1.795   3.607  20.277  1.9251  0.1244  0.5965
 1993TIP3    H230175   1.691   3.531  20.197  1.6689  2.0267 -0.9279
 1994TIP3   OH230176   6.480   5.136  19.051 -0.2405 -0.1868  0.3370
 1994TIP3    H130177   6.516   5.072  19.111 -0.7603 -1.6327 -0.8340
 1994TIP3    H230178   6.395   5.159  19.089  0.3778  0.6175  1.2865
 1995TIP3   OH230179   3.848   0.235  17.827 -0.0881 -0.1139  0.2194
 1995TIP3    H130180   3.866   0.319  17.785 -1.1930 -0.1130 -0.2804
 1995TIP3    H230181   3.769   0.251  17.878 -0.0401 -0.7334  0.4924
 1996TIP3   OH230182   3.221   3.296  19.899 -0.0330  0.0349  0.7776
 1996TIP3    H130183   3.148   3.247  19.862  0.1463  0.0057  0.4626
 1996TIP3    H230184   3.297   3.267  19.849  0.0379  0.8162  0.4178
 1997TIP3   OH230185   2.726   4.919  19.756 -0.0682 -1.1122  0.1089
 1997TIP3    H130186   2.721   4.925  19.661 -0.6969 -0.8012  0.1579
 1997TIP3    H230187   2.795   4.981  19.780 -0.7590 -0.2604 -0.0548
 1998TIP3   OH230188   2.986   2.991  19.180 -0.3207  0.0226 -0.3305
 1998TIP3    H130189   2.989   3.072  19.231  0.4843  0.0758 -0.4606
 1998TIP3    H230190   2.924   3.009  19.109 -0.1240  0.5276 -0.3731
 1999TIP3   OH230191   4.556   4.544  21.320  0.0221 -0.3531 -0.4800
 1999TIP3    H130192   4.486   4.480  21.304 -0.8561  0.7797 -1.4406
 1999TIP3    H230193   4.509   4.627  21.332  0.9973 -0.1337  2.6373
 2000TIP3   OH230194   2.138   6.297  19.026  0.5904 -0.6024 -0.3352
 2000TIP3    H130195   2.105   6.236  18.960  1.0772 -2.1036  0.7518
 2000TIP3    H230196   2.092   6.379  19.008 -1.2149 -1.6865 -0.9350
 2001TIP3   OH230197   2.002   2.268  19.596 -0.5652  0.2546  0.3570
 2001TIP3    H130198   2.028   2.359  19.610  1.8157 -0.2267 -0.5013
 2001TIP3    H230199   2.004   2.229  19.683 -0.6380  0.8008  0.6052
 2002TIP3   OH230200   1.584   4.739  19.422 -0.2235 -0.3064 -0.3283
 2002TIP3    H130201   1.538   4.674  19.369 -1.6228 -0.0126  0.4540
 2002TIP3    H230202   1.622   4.689  19.494 -0.8278 -0.3521 -0.0305
 2003TIP3   OH230203   2.300   5.926  18.601 -0.3271 -0.0794 -0.4305
 2003TIP3    H130204   2.255   5.999  18.558  0.0346 -0.3012 -1.1995
 2003TIP3    H230205   2.392   5.939  18.581  0.2606  1.3937  2.6286
 2004TIP3   OH230206   6.311   0.451  19.194  0.1207  0.6504 -0.0555
 2004TIP3    H130207   6.235   0.467  19.250 -0.2291  0.6743 -0.5300
 2004TIP3    H230208   6.277   0.400  19.120  0.8072 -0.4788  0.3634
 2005TIP3   OH230209   6.100   5.210  21.364  0.1190 -0.0128 -0.4023
 2005TIP3    H130210   6.161   5.192  21.293 -1.1944  0.3697 -1.6715
 2005TIP3    H230211   6.153   5.254  21.431  1.2208  0.3226 -1.4661
 2006TIP3   OH230212   4.762   3.733  20.718 -0.1693 -0.1259 -0.7317
 2006TIP3    H130213   4.719   3.818  20.717  0.9358  0.4752  0.2037
 2006TIP3    H230214   4.835   3.742  20.657  1.7245  0.6360  1.4862
 2007TIP3   OH230215   6.038   6.069  20.540 -0.1604  0.2585  0.1491
 2007TIP3    H130216   5.951   6.048  20.506  0.0250  1.2535 -0.9894
 2007TIP3    H230217   6.098   6.045  20.469  0.2497  2.1855 -0.2273
 2008TIP3   OH230218   4.988   0.089  20.560 -0.6999  0.7476  0.6389
 2008TIP3    H130219   5.080   0.066  20.573 -0.4881  2.4331  2.6740
 2008TIP3    H230220   4.942   0.050  20.634 -1.5632  0.3816 -0.0708
 2009TIP3   OH230221   3.226   2.100  19.778  0.8993  0.1377 -0.4857
 2009TIP3    H130222   3.252   2.146  19.858 -0.2633  1.9260 -1.0688
 2009TIP3    H230223   3.148   2.050  19.802 -0.4959  2.0297 -0.8140
 2010TIP3   OH230224   6.070   1.211  20.062 -0.0557  0.3145 -0.2431
 2010TIP3    H130225   6.153   1.198  20.109 -0.5112 -0.2189  0.4319
 2010TIP3    H230226   6.064   1.306  20.050  0.6478  0.3592 -0.2848
 2011TIP3   OH230227   2.655   6.163  20.782 -0.1069  0.1070 -0.0219
 2011TIP3    H130228   2.725   6.112  20.742 -0.4647 -0.7689  0.4293
 2011TIP3    H230229   2.582   6.156  20.721 -0.6853 -1.3114  0.7636
 2012TIP3   OH230230   3.032   4.695  18.955 -0.4376 -0.5388 -0.8446
 2012TIP3    H130231   3.082   4.614  18.964  2.6203  1.3442  1.2250
 2012TIP3    H230232   3.025   4.708  18.861  1.2252 -1.9760 -1.2376
 2013TIP3   OH230233   0.330   0.078  20.797  0.5338  0.1921  0.1451
 2013TIP3    H130234   0.235   0.068  20.802  0.3260  1.7510 -0.2858
 2013TIP3    H230235   0.348   0.084  20.703  1.1241 -0.4861  0.2024
 2014TIP3   OH230236   3.015   1.165  19.791 -0.3049  0.4259 -0.2900
 2014TIP3    H130237   3.005   1.177  19.697  1.3038 -0.5195 -0.6084
 2014TIP3    H230238   3.102   1.128  19.802 -1.2143 -1.4059  1.3920
 2015TIP3   OH230239   0.982   0.840  20.821  0.2342 -0.5702 -0.0902
 2015TIP3    H130240   1.024   0.814  20.739  0.7926 -0.5081  0.1753
 2015TIP3    H230241   0.991   0.935  20.824 -1.0703 -0.4027 -0.6513
 2016TIP3   OH230242   3.333   0.502  18.097  0.0818 -0.0885  0.3293
 2016TIP3    H130243   3.293   0.449  18.028 -1.2270  1.0999  0.1302
 2016TIP3    H230244   3.398   0.444  18.137 -0.6955 -1.5425 -0.4301
 2017TIP3   OH230245   0.397   5.566  18.303 -0.0098 -0.3985  0.1997
 2017TIP3    H130246   0.396   5.635  18.237  2.0457  0.2200  0.7382
 2017TIP3    H230247   0.305   5.543  18.315 -0.8299  2.5119  0.2695
 2018TIP3   OH230248   2.809   1.400  21.044  0.0817  0.3203 -0.0935
 2018TIP3    H130249   2.886   1.345  21.031 -0.2688  0.0780 -1.2798
 2018TIP3    H230250   2.815   1.429  21.135  0.3466 -1.5987  0.5473
 2019TIP3   OH230251   2.577   2.243  17.889 -0.2249 -0.8805  0.2853
 2019TIP3    H130252   2.550   2.257  17.980  1.2005  0.5630  0.5376
 2019TIP3    H230253   2.656   2.297  17.879  0.6704 -2.3750 -1.3025
 2020TIP3   OH230254   2.478   6.170  20.052 -0.2414 -0.2193  0.0866
 2020TIP3    H130255   2.403   6.212  20.095 -1.5507 -0.8476 -1.4603
 2020TIP3    H230256   2.491   6.089  20.102  1.8652  1.5516  2.6628
 2021TIP3   OH230257   3.877   5.080  17.637 -0.0501 -0.4240 -0.4851
 2021TIP3    H130258   3.866   4.991  17.604  2.5219  0.0877 -3.1088
 2021TIP3    H230259   3.794   5.124  17.617 -0.5927 -1.6725 -1.0560
 2022TIP3   OH230260   4.082   2.821  17.954 -0.0266  0.1435 -0.2411
 2022TIP3    H130261   4.030   2.746  17.982 -0.8954 -0.6838 -3.6868
 2022TIP3    H230262   4.021   2.895  17.955  0.7902  0.9753  2.9970
 2023TIP3   OH230263   5.037   4.811  20.703  0.4028 -0.0674  0.3851
 2023TIP3    H130264   4.977   4.754  20.655 -0.1643 -0.5596  1.6256
 2023TIP3    H230265   5.094   4.751  20.751 -0.1959  0.3715  1.7081
 2024TIP3   OH230266   0.359   5.359  19.000 -0.1332 -0.4910  0.1022
 2024TIP3    H130267   0.417   5.422  18.959 -0.3963  0.7333  1.5415
 2024TIP3    H230268   0.411   5.279  19.006  0.8884  0.1509  0.0119
 2025TIP3   OH230269   2.615   3.435  21.236  0.4233  0.0008 -0.2457
 2025TIP3    H130270   2.672   3.469  21.167  0.6614  1.3491  0.5833
 2025TIP3    H230271   2.564   3.510  21.264 -0.0370 -0.6467  0.6943
 2026TIP3   OH230272   2.665   4.055  19.695 -0.0417  0.3915 -0.1407
 2026TIP3    H130273   2.575   4.027  19.677 -0.5061  0.9819  1.1429
 2026TIP3    H230274   2.674   4.139  19.650 -0.4044  0.7101  0.3700
 2027TIP3   OH230275   1.772   5.896  19.234 -0.7541 -0.2128  0.0789
 2027TIP3    H130276   1.838   5.955  19.198 -0.6333 -0.6817 -0.4732
 2027TIP3    H230277   1.716   5.874  19.160 -1.0151 -0.5036  0.3606
 2028TIP3   OH230278   6.576   3.231  20.732  0.0407 -0.6525 -0.0055
 2028TIP3    H130279   6.615   3.217  20.646 -0.0203 -2.2038  0.1883
 2028TIP3    H230280   6.646   3.268  20.785  0.5128 -1.0638 -0.3352
 2029TIP3   OH230281   4.203   0.321  18.765  0.1055 -0.4600  0.2298
 2029TIP3    H130282   4.176   0.375  18.691  1.5101  1.3616  0.9674
 2029TIP3    H230283   4.299   0.325  18.764  0.1647 -0.8192  1.8357
 2030TIP3   OH230284   1.628   4.188  20.798  0.2500 -0.1978  0.5021
 2030TIP3    H130285   1.688   4.113  20.800  1.3302  0.6045 -0.9050
 2030TIP3    H230286   1.642   4.229  20.713  0.5358  2.3087  1.6708
 2031TIP3   OH230287   1.054   6.578  18.803  0.2845 -0.3479  0.3877
 2031TIP3    H130288   1.103   6.537  18.875 -2.2696 -0.4543  2.2010
 2031TIP3    H230289   1.033   6.505  18.745 -0.0373 -0.7770  1.0275
 2032TIP3   OH230290   6.527   3.651  18.478 -0.3246  0.5313  0.1047
 2032TIP3    H130291   6.562   3.715  18.540  0.0478  1.7022 -1.2672
 2032TIP3    H230292   6.563   3.567  18.507  1.8714  1.3970  0.0202
 2033TIP3   OH230293   6.560   6.434  18.393 -0.4813 -0.4873 -0.0597
 2033TIP3    H130294   6.564   6.529  18.396 -1.0651 -0.4429 -0.6291
 2033TIP3    H230295   6.611   6.406  18.469 -2.2535  0.3101  1.4950
 2034TIP3   OH230296   4.903   2.286  20.347 -0.6019 -0.0398 -0.0696
 2034TIP3    H130297   4.851   2.219  20.391 -0.8354 -0.3379 -0.7889
 2034TIP3    H230298   4.994   2.258  20.359 -0.6149  0.3038  0.9006
 2035TIP3   OH230299   5.977   6.055  18.259 -0.3310 -0.0491 -0.2121
 2035TIP3    H130300   5.927   6.019  18.185  2.2040 -0.5818 -1.7786
 2035TIP3    H230301   5.917   6.118  18.299 -2.4103 -0.9661 -1.6564
 2036TIP3   OH230302   0.946   4.456  20.210  0.0753  0.5246 -0.3710
 2036TIP3    H130303   0.893   4.527  20.245 -1.0224  0.4592 -1.8087
 2036TIP3    H230304   0.961   4.480  20.118  2.5706  0.5410 -0.0396
 2037TIP3   OH230305   0.486   0.380  21.106 -0.2412  0.0213 -0.1127
 2037TIP3    H130306   0.432   0.396  21.184 -1.8781  1.9166 -1.5243
 2037TIP3    H230307   0.491   0.465  21.063 -1.7360 -1.4298 -3.5059
 2038TIP3   OH230308   4.290   4.080  21.317 -0.4413  0.1714 -0.0539
 2038TIP3    H130309   4.252   4.166  21.338 -0.2967 -0.0760  1.2417
 2038TIP3    H230310   4.227   4.041  21.256 -1.9013  0.1125  1.4272
 2039TIP3   OH230311   3.941   5.581  19.332 -0.1927 -0.0090  0.2909
 2039TIP3    H130312   3.899   5.643  19.273 -0.1965  1.4967  1.7825
 2039TIP3    H230313   4.030   5.571  19.298 -1.0378 -1.5923 -1.6791
 2040TIP3   OH230314   3.387   0.971  20.044 -0.2393 -0.1242 -0.2236
 2040TIP3    H130315   3.441   0.923  20.107  1.4837  0.4659 -1.1988
 2040TIP3    H230316   3.415   1.062  20.052 -3.1497  0.7722  1.2768
 2041TIP3   OH230317   5.768   5.402  18.933 -0.4039 -0.3223 -0.2012
 2041TIP3    H130318   5.690   5.346  18.941 -1.0291  0.6729  1.3700
 2041TIP3    H230319   5.735   5.482  18.892  0.4696 -1.0025 -2.3771
 2042TIP3   OH230320   4.865   6.494  19.058  0.0790 -0.0869 -0.2384
 2042TIP3    H130321   4.873   6.399  19.071 -2.3436 -0.3559 -0.1764
 2042TIP3    H230322   4.833   6.503  18.968 -0.1275  0.6559 -0.0980
 2043TIP3   OH230323   6.502   5.496  18.534  0.7661  0.7433 -0.2824
 2043TIP3    H130324   6.410   5.484  18.555  0.6654  0.8014 -0.6823
 2043TIP3    H230325   6.520   5.587  18.556  0.9922  0.4630  0.7575
 2044TIP3   OH230326   2.804   6.080  19.781  0.3438  0.1934 -0.2211
 2044TIP3    H130327   2.875   6.128  19.739  0.4060  0.2899 -0.0075
 2044TIP3    H230328   2.775   6.136  19.853  0.1267  0.1040 -0.2368
 2045TIP3   OH230329   5.902   3.287  19.445 -0.2367 -0.2531 -0.4321
 2045TIP3    H130330   5.901   3.345  19.522  1.6696 -1.5789  0.6789
 2045TIP3    H230331   5.816   3.244  19.447 -0.7480  0.7409  0.1290
 2046TIP3   OH230332   1.856   3.789  18.198  0.0077 -0.2116 -0.3262
 2046TIP3    H130333   1.789   3.735  18.155 -1.1175  1.6858 -1.1185
 2046TIP3    H230334   1.811   3.828  18.273  1.0989 -1.1576  0.8434
 2047TIP3   OH230335   5.811   3.670  21.040 -0.1850 -0.1585  0.5683
 2047TIP3    H130336   5.886   3.679  20.981  0.4930 -0.7631  1.3221
 2047TIP3    H230337   5.735   3.670  20.982  0.3871  0.5370 -0.2023
 2048TIP3   OH230338   2.555   3.289  18.277 -0.3384  0.3795  0.1261
 2048TIP3    H130339   2.590   3.353  18.338 -0.7208 -1.1522  2.0482
 2048TIP3    H230340   2.580   3.204  18.314 -1.4687 -0.6309 -1.3144
 2049TIP3   OH230341   1.897   3.397  20.503 -0.1523 -0.0010  0.2376
 2049TIP3    H130342   1.822   3.389  20.444 -0.9895  1.3697  1.0735
 2049TIP3    H230343   1.973   3.382  20.446 -0.9476  0.8910 -1.1135
 2050TIP3   OH230344   1.631   4.271  18.878 -0.2691  0.7583 -0.2343
 2050TIP3    H130345   1.582   4.258  18.796  0.1381  1.2262 -0.5604
 2050TIP3    H230346   1.640   4.366  18.886 -3.0081  0.9439  1.9999
 2051TIP3   OH230347   4.081   1.611  21.425 -0.6595  0.7296  0.1771
 2051TIP3    H130348   4.175   1.612  21.410 -0.7782  0.1740 -0.7025
 2051TIP3    H230349   4.069   1.650  21.512  0.2986  1.6288 -0.0799
 2052TIP3   OH230350   4.321   2.031  20.648  0.2086 -0.6153 -0.3441
 2052TIP3    H130351   4.265   2.035  20.725 -1.0713 -0.8456 -1.2181
 2052TIP3    H230352   4.367   2.115  20.647 -0.6922 -0.1106  0.0042
 2053TIP3   OH230353   4.545   2.795  18.511 -0.7893 -0.2727 -1.0431
 2053TIP3    H130354   4.459   2.759  18.491 -0.8687  0.0938 -1.3733
 2053TIP3    H230355   4.532   2.890  18.510  0.0614 -0.1147 -3.2881
 2054TIP3   OH230356   6.124   3.453  20.507  0.4329  0.0593 -0.0241
 2054TIP3    H130357   6.034   3.486  20.508  0.3625 -0.0956 -0.8259
 2054TIP3    H230358   6.175   3.521  20.551 -0.3358 -0.6509  2.0889
 2055TIP3   OH230359   0.567   1.631  19.171  0.1343  0.4524 -0.0469
 2055TIP3    H130360   0.600   1.546  19.143  1.2215  0.8342  0.0078
 2055TIP3    H230361   0.606   1.645  19.258 -1.6720  0.1201  0.8637
 2056TIP3   OH230362   3.932   0.501  17.766  0.2286 -0.4519  0.4964
 2056TIP3    H130363   3.884   0.548  17.698 -1.5020  0.4539  2.2147
 2056TIP3    H230364   3.936   0.563  17.839  3.4535 -0.7809  0.7358
 2057TIP3   OH230365   0.816   2.778  21.172  0.0175 -0.1895 -0.3769
 2057TIP3    H130366   0.815   2.873  21.156 -0.3116 -0.1423 -0.0895
 2057TIP3    H230367   0.869   2.768  21.252 -0.1696 -0.2233 -0.2572
 2058TIP3   OH230368   1.131   0.243  20.079 -0.1395  0.0583  0.1870
 2058TIP3    H130369   1.191   0.312  20.050 -0.7524  0.7806  0.5884
 2058TIP3    H230370   1.159   0.224  20.169 -0.5242  0.4264  0.3899
 2059TIP3   OH230371   3.937   1.352  17.730  0.1656  0.2571 -0.5538
 2059TIP3    H130372   4.031   1.362  17.716  0.1215  0.1288 -0.9648
 2059TIP3    H230373   3.912   1.278  17.674  0.4105 -2.0198  2.0999
 2060TIP3   OH230374   5.472   0.169  19.637  0.2792 -0.4822  0.2651
 2060TIP3    H130375   5.535   0.133  19.699 -0.9653 -2.6653  0.3601
 2060TIP3    H230376   5.415   0.226  19.690 -0.1799 -1.5677  0.9716
 2061TIP3   OH230377   6.521   2.630  20.439  0.0478  0.1996  0.1455
 2061TIP3    H130378   6.569   2.704  20.403 -0.5334  0.4701 -0.0951
 2061TIP3    H230379   6.541   2.557  20.380  1.2714 -0.0509  0.8485
 2062TIP3   OH230380   5.892   6.500  18.993 -0.0613 -0.2323 -0.1478
 2062TIP3    H130381   5.816   6.501  19.051 -0.5981 -0.7188 -0.8334
 2062TIP3    H230382   5.864   6.548  18.915 -0.5239 -2.4767 -1.4405
 2063TIP3   OH230383   6.416   2.575  19.244 -0.5047  0.1431 -0.1272
 2063TIP3    H130384   6.480   2.512  19.279  1.3425  2.1057  0.2457
 2063TIP3    H230385   6.353   2.586  19.315 -1.3603 -1.8461 -0.5066
 2064TIP3   OH230386   4.738   2.663  20.561  0.3518  0.3518  0.0555
 2064TIP3    H130387   4.777   2.575  20.560  0.8096  0.5246  1.0222
 2064TIP3    H230388   4.654   2.651  20.605  0.1707  0.3092 -0.2983
 2065TIP3   OH230389   6.408   1.857  18.773  0.2781  0.0230  0.6232
 2065TIP3    H130390   6.502   1.861  18.790  0.4468 -0.3000 -0.1801
 2065TIP3    H230391   6.370   1.824  18.854  0.8423  0.2972  1.0039
 2066TIP3   OH230392   3.916   2.094  19.874 -0.2161 -0.1660  0.0301
 2066TIP3    H130393   3.911   2.101  19.970 -1.7205  2.2310 -0.1519
 2066TIP3    H230394   4.003   2.058  19.858  0.5763  0.5463  2.2910
 2067TIP3   OH230395   0.192   4.663  17.831  0.4928  0.3505  0.3812
 2067TIP3    H130396   0.219   4.675  17.922  1.1127  2.6491 -0.0441
 2067TIP3    H230397   0.264   4.699  17.779 -0.1173 -0.3456 -1.0122
 2068TIP3   OH230398   6.413   4.084  20.335  0.7533  0.0937  0.2048
 2068TIP3    H130399   6.454   4.097  20.420 -0.1468  0.3007  0.6235
 2068TIP3    H230400   6.379   3.994  20.338 -0.9412  0.7056  0.8311
 2069TIP3   OH230401   4.041   3.149  20.441  0.2644  0.2275 -0.0003
 2069TIP3    H130402   3.963   3.124  20.489  0.4590  1.1146  0.8098
 2069TIP3    H230403   4.011   3.162  20.351 -0.1179 -1.3648 -0.1419
 2070TIP3   OH230404   4.453   1.239  20.617 -0.3640  0.6766 -0.0829
 2070TIP3    H130405   4.450   1.143  20.613 -0.3855  0.6731  0.0188
 2070TIP3    H230406   4.371   1.264  20.659  0.2134  0.6731  1.0839
 2071TIP3   OH230407   5.412   1.405  20.914  0.5451  0.2825 -0.0613
 2071TIP3    H130408   5.497   1.363  20.901  0.9071 -0.0422  2.7404
 2071TIP3    H230409   5.423   1.492  20.876  1.8559 -0.0294 -0.4624
 2072TIP3   OH230410   5.694   2.572  19.184  0.3006  0.1137  0.0421
 2072TIP3    H130411   5.647   2.489  19.185 -1.2419  0.9245 -0.5681
 2072TIP3    H230412   5.705   2.593  19.092 -0.2376  1.0407  0.1665
 2073TIP3   OH230413   1.535   0.056  20.150  0.1582  0.2624 -0.8540
 2073TIP3    H130414   1.504   0.070  20.240 -1.7340  1.1034 -1.5608
 2073TIP3    H230415   1.572  -0.032  20.150  0.0539  0.1901  0.7139
 2074TIP3   OH230416   4.621   2.012  19.898  0.3093 -0.1916  0.0478
 2074TIP3    H130417   4.577   1.933  19.930  1.1769 -0.4611  0.5917
 2074TIP3    H230418   4.618   2.003  19.802  1.2070 -1.3478  0.1032
 2075TIP3   OH230419   0.519   2.067  18.804  0.5457 -0.7578  0.3117
 2075TIP3    H130420   0.449   2.052  18.868  1.5182 -3.4523  0.8620
 2075TIP3    H230421   0.565   2.145  18.837 -1.1441  0.0771  0.8286
 2076TIP3   OH230422   0.045   6.306  18.043  0.1712 -0.0414  0.3664
 2076TIP3    H130423  -0.025   6.252  18.081 -0.5664  0.4828 -0.2154
 2076TIP3    H230424   0.007   6.393  18.039  0.4088  0.0104 -1.1148
 2077TIP3   OH230425   5.759   5.230  20.178  0.6305  0.2922 -0.0236
 2077TIP3    H130426   5.739   5.162  20.243 -1.8154 -0.1136 -1.0740
 2077TIP3    H230427   5.758   5.312  20.228 -3.6963  0.2830  0.2699
 2078TIP3   OH230428   3.623   2.137  17.558 -0.0623  0.1289  0.0036
 2078TIP3    H130429   3.610   2.213  17.501 -0.1765  1.5493  1.8354
 2078TIP3    H230430   3.623   2.063  17.498  1.6284  1.6500 -2.0846
 2079TIP3   OH230431   0.407   3.360  19.433 -0.5825  0.8017 -0.0001
 2079TIP3    H130432   0.412   3.271  19.468 -0.3839  1.2714  1.2050
 2079TIP3    H230433   0.475   3.408  19.479 -0.4365  1.5014 -0.9144
 2080TIP3   OH230434   3.072   1.326  20.379  0.2456  0.2671 -0.0558
 2080TIP3    H130435   3.087   1.284  20.464  0.9960  1.8396  0.6346
 2080TIP3    H230436   3.151   1.308  20.328 -1.0027 -2.3763 -1.2335
 2081TIP3   OH230437   5.331   1.239  18.580 -0.0246 -0.2398  0.0179
 2081TIP3    H130438   5.284   1.194  18.510  0.1409  0.2121 -0.3856
 2081TIP3    H230439   5.402   1.179  18.604 -0.0224 -0.3525 -0.2688
 2082TIP3   OH230440   0.029   0.451  21.398  0.2162  0.8939  0.2516
 2082TIP3    H130441   0.113   0.461  21.354  0.7833  0.4703  1.1959
 2082TIP3    H230442  -0.002   0.541  21.413  0.3928  1.0451 -0.2860
 2083TIP3   OH230443   0.976   5.916  20.914 -0.1721 -0.2820  0.1513
 2083TIP3    H130444   0.954   5.871  20.833  1.3697 -1.5122  0.3642
 2083TIP3    H230445   1.038   5.984  20.888 -2.4041  1.8046 -0.1501
 2084TIP3   OH230446   3.067   3.130  19.748 -0.7964  0.0349  0.0425
 2084TIP3    H130447   3.055   3.036  19.735 -2.1941  0.5745 -4.2247
 2084TIP3    H230448   3.129   3.155  19.680  0.6850  2.1168  2.0029
 2085TIP3   OH230449   3.724   3.569  20.482  0.0837  0.5192  0.9217
 2085TIP3    H130450   3.722   3.654  20.439 -1.7474  0.5671  1.0312
 2085TIP3    H230451   3.773   3.513  20.421 -0.4721  1.1493 -0.1333
 2086TIP3   OH230452   4.669   5.036  20.665  0.7236  0.2174 -0.3949
 2086TIP3    H130453   4.603   5.077  20.722  0.5374 -0.2034 -0.3052
 2086TIP3    H230454   4.625   5.029  20.580  1.1517  1.2523 -0.7260
 2087TIP3   OH230455   3.750   6.420  18.894 -0.1960 -0.4763  0.2365
 2087TIP3    H130456   3.808   6.404  18.969 -0.3469 -0.3019  0.3905
 2087TIP3    H230457   3.668   6.377  18.919 -0.3331 -0.1883  0.2884
 2088TIP3   OH230458   5.177   2.548  18.387 -0.3420 -0.6272 -0.4069
 2088TIP3    H130459   5.158   2.563  18.294  1.1657 -2.3378 -1.0567
 2088TIP3    H230460   5.106   2.591  18.433 -3.0766 -2.5549 -2.4621
 2089TIP3   OH230461   4.864   3.933  20.059 -0.3723 -0.7140 -0.0006
 2089TIP3    H130462   4.946   3.980  20.046 -1.1416  0.2664 -1.7142
 2089TIP3    H230463   4.876   3.885  20.141  1.5793  0.0622  0.2185
 2090TIP3   OH230464   4.016   3.464  17.740  0.3196 -0.6755 -0.2823
 2090TIP3    H130465   3.959   3.488  17.813  1.3801  0.7539  0.1228
 2090TIP3    H230466   4.067   3.389  17.774  1.0500  0.1923  0.6009
 2091TIP3   OH230467   2.387   0.042  20.496  0.1885 -0.1139 -0.5371
 2091TIP3    H130468   2.338  -0.035  20.525 -0.1356  0.2727 -0.0527
 2091TIP3    H230469   2.333   0.081  20.428  1.9060 -2.2085 -3.3026
 2092TIP3   OH230470   4.641   2.272  19.697 -0.0069 -0.0729 -0.3124
 2092TIP3    H130471   4.671   2.266  19.788 -0.8783 -0.3498 -0.0379
 2092TIP3    H230472   4.713   2.316  19.651  0.4581  0.0320  0.5009
 2093TIP3   OH230473   4.786   6.079  21.052  0.1432  0.0250 -0.3470
 2093TIP3    H130474   4.875   6.102  21.025  0.2349  0.4013  0.2523
 2093TIP3    H230475   4.749   6.035  20.976  0.9982 -0.5513 -0.4497
 2094TIP3   OH230476   5.656   5.919  21.127  0.2167  0.0478  0.7082
 2094TIP3    H130477   5.752   5.915  21.127  0.2237  0.1371  0.1495
 2094TIP3    H230478   5.633   5.941  21.218  0.6883 -0.7295  1.0306
 2095TIP3   OH230479   2.829   0.915  19.419  0.7883 -0.7314 -0.0067
 2095TIP3    H130480   2.755   0.873  19.375  0.8760  0.2379 -1.1392
 2095TIP3    H230481   2.904   0.900  19.361  1.1021 -0.1910  0.2493
 2096TIP3   OH230482   2.004   5.690  20.287  0.7307  0.2283 -0.0584
 2096TIP3    H130483   2.055   5.644  20.220  0.5502 -0.0357 -0.0195
 2096TIP3    H230484   1.970   5.620  20.343 -1.9682  0.0764 -1.6781
 2097TIP3   OH230485   3.372   2.680  20.492  0.1225  0.3401  0.3304
 2097TIP3    H130486   3.435   2.666  20.421 -0.6379  0.7114 -0.4331
 2097TIP3    H230487   3.403   2.624  20.562 -0.1023 -1.4128 -0.9189
 2098TIP3   OH230488   1.303   4.239  20.313 -0.5021  0.0843 -0.1035
 2098TIP3    H130489   1.295   4.145  20.326  1.9162 -0.2839 -0.8324
 2098TIP3    H230490   1.235   4.260  20.249 -1.0089 -1.1671 -0.0007
 2099TIP3   OH230491   2.425   0.433  19.274 -0.1106  0.7134  0.3166
 2099TIP3    H130492   2.347   0.413  19.325 -0.4895 -1.7176 -1.0792
 2099TIP3    H230493   2.391   0.470  19.192  0.2533  0.7354  0.1736
 2100TIP3   OH230494   4.035   4.670  19.202 -0.6803  0.0158 -0.1383
 2100TIP3    H130495   3.957   4.615  19.214 -0.5363  0.1480  1.6998
 2100TIP3    H230496   4.102   4.628  19.256  0.4083  0.1663 -1.3345
 2101TIP3   OH230497   4.479   6.195  20.279  0.0310 -0.2796  0.3135
 2101TIP3    H130498   4.508   6.284  20.298 -0.2646 -0.0142 -0.4780
 2101TIP3    H230499   4.394   6.205  20.236  0.6428 -0.8708 -1.0838
 2102TIP3   OH230500   4.949   5.038  19.224 -0.1010  0.3246  0.4798
 2102TIP3    H130501   5.011   4.986  19.275 -1.8485 -0.0398  2.3401
 2102TIP3    H230502   4.871   4.982  19.216 -0.2879  0.7795 -1.7556
 2103TIP3   OH230503   2.370   0.928  20.791 -0.3034 -0.1275 -0.4226
 2103TIP3    H130504   2.356   0.843  20.833  0.8826  0.1550  0.5922
 2103TIP3    H230505   2.295   0.981  20.820 -0.5266 -0.5232 -0.2576
 2104TIP3   OH230506   2.589   3.448  19.053 -0.0082  0.4013 -0.0954
 2104TIP3    H130507   2.498   3.465  19.026 -0.1818 -0.1525  0.1158
 2104TIP3    H230508   2.621   3.385  18.988 -0.4554 -1.0122  1.0112
 2105TIP3   OH230509   4.753   6.091  21.342  0.0180  0.6731  0.5919
 2105TIP3    H130510   4.766   6.140  21.261  1.9569  0.1643  0.5451
 2105TIP3    H230511   4.683   6.137  21.387 -1.4923  0.6651 -1.5787
 2106TIP3   OH230512   4.025   5.507  20.877 -0.1949  0.2751  0.6218
 2106TIP3    H130513   4.088   5.578  20.892  0.8823 -0.0365 -1.8441
 2106TIP3    H230514   3.954   5.548  20.828 -0.6142  0.0779  1.0606
 2107TIP3   OH230515   5.944   2.649  19.638 -0.2190  0.3378  0.8620
 2107TIP3    H130516   5.953   2.573  19.695 -1.5632  0.0104  0.6856
 2107TIP3    H230517   5.877   2.623  19.574  0.5900  1.0222 -0.3131
 2108TIP3   OH230518   0.655   6.022  19.745  0.5039  0.2488  0.6759
 2108TIP3    H130519   0.591   5.955  19.721  1.7960 -0.5247 -0.7948
 2108TIP3    H230520   0.611   6.105  19.726  0.0013 -0.2624 -0.5266
 2109TIP3   OH230521   0.433   4.722  18.700  0.2253  0.3984  0.6607
 2109TIP3    H130522   0.392   4.807  18.685 -0.6500 -0.2000 -0.5975
 2109TIP3    H230523   0.414   4.702  18.791  0.6509  1.6444  1.0460
 2110TIP3   OH230524   3.285   6.415  18.485  0.4663  0.6134  0.5269
 2110TIP3    H130525   3.238   6.386  18.563 -1.0657 -1.3371 -1.0060
 2110TIP3    H230526   3.376   6.392  18.502  0.2189  0.4927  1.8207
 2111TIP3   OH230527   3.353   3.950  18.805  0.0444 -0.0856  0.5371
 2111TIP3    H130528   3.362   3.865  18.849 -0.2682 -0.2850  0.2251
 2111TIP3    H230529   3.280   3.938  18.745  1.2244 -0.2103 -0.9348
 2112TIP3   OH230530   3.474   4.629  19.577 -0.0245  0.8850 -0.0710
 2112TIP3    H130531   3.396   4.584  19.546  0.4234 -0.1083  0.2137
 2112TIP3    H230532   3.469   4.716  19.537 -0.6180  0.4005 -1.0685
 2113TIP3   OH230533   4.951   4.157  20.888 -1.0201  0.5779  0.1718
 2113TIP3    H130534   4.886   4.209  20.841 -2.1357  0.9634  2.0228
 2113TIP3    H230535   4.935   4.177  20.980  1.4229  0.2876  0.7236
 2114TIP3   OH230536   4.826   3.429  17.681  0.0065  0.4294 -0.0192
 2114TIP3    H130537   4.765   3.496  17.712 -0.7754 -0.5819  0.6737
 2114TIP3    H230538   4.904   3.440  17.735  0.9288  2.4205 -1.5982
 2115TIP3   OH230539   0.731   3.964  18.680  0.6201  0.0872 -0.2047
 2115TIP3    H130540   0.638   3.947  18.664  0.9748 -1.3614 -0.9708
 2115TIP3    H230541   0.775   3.885  18.648  1.9704 -0.1225  1.9573
 2116TIP3   OH230542   0.028   5.819  19.944 -0.3868 -0.8002  0.0762
 2116TIP3    H130543  -0.023   5.898  19.924 -0.2370 -0.4657  0.9866
 2116TIP3    H230544   0.094   5.849  20.006 -0.4874 -1.7021  0.6226
 2117TIP3   OH230545   4.209   0.957  17.178  0.0751 -0.4729  0.5560
 2117TIP3    H130546   4.258   0.898  17.121  0.5133  0.5265 -0.1370
 2117TIP3    H230547   4.122   0.919  17.184 -0.0068 -0.5606 -0.8640
 2118TIP3   OH230548   0.801   1.581  20.407  0.1300 -0.4076  0.1192
 2118TIP3    H130549   0.833   1.662  20.446  0.8731  0.0030 -1.2872
 2118TIP3    H230550   0.720   1.607  20.361  0.0896 -0.5679  0.0997
 2119TIP3   OH230551   3.949   5.128  20.152 -0.0700  0.1673 -0.2903
 2119TIP3    H130552   3.957   5.158  20.062  0.3276 -1.5251 -0.8705
 2119TIP3    H230553   4.016   5.177  20.200  0.3539  0.4065 -1.1106
 2120TIP3   OH230554   1.203   4.729  18.417  0.1403 -0.2704  1.0319
 2120TIP3    H130555   1.210   4.682  18.333 -0.0379 -0.0729  0.9071
 2120TIP3    H230556   1.164   4.813  18.394  2.0106  0.6233  1.0130
 2121TIP3   OH230557   0.686   2.283  18.070 -0.1595 -0.2074  0.3536
 2121TIP3    H130558   0.721   2.262  18.156 -0.9733  0.9331  0.9861
 2121TIP3    H230559   0.593   2.264  18.076 -0.0269 -1.2928 -0.6770
 2122TIP3   OH230560   1.144   2.603  19.909  0.0784 -0.3818 -0.0006
 2122TIP3    H130561   1.104   2.516  19.912  0.5141 -0.5622  1.2706
 2122TIP3    H230562   1.100   2.652  19.978  0.1664  0.2688 -0.3977
 2123TIP3   OH230563   1.165   0.782  20.626 -0.2930 -0.0179 -0.2786
 2123TIP3    H130564   1.171   0.808  20.534 -0.2499 -1.9493 -0.8570
 2123TIP3    H230565   1.256   0.788  20.657 -0.2746  0.4398 -0.4035
 2124TIP3   OH230566   0.554   5.172  19.424  0.1661  0.1537 -0.1396
 2124TIP3    H130567   0.638   5.159  19.467  0.7862 -0.0733 -1.3596
 2124TIP3    H230568   0.498   5.213  19.490  1.2347  0.2977  0.6907
 2125TIP3   OH230569   5.740   6.511  19.240  0.0892 -0.0414  0.4279
 2125TIP3    H130570   5.660   6.488  19.288 -0.2669  0.1042 -0.0735
 2125TIP3    H230571   5.771   6.591  19.282 -0.4314  0.2998  0.1863
 2126TIP3   OH230572   1.618   1.593  20.237  0.0708  0.1104  1.0210
 2126TIP3    H130573   1.644   1.670  20.185 -1.5943  0.2123  0.2867
 2126TIP3    H230574   1.697   1.539  20.241  0.4130  0.3596 -1.1764
 2127TIP3   OH230575   0.971   0.257  18.080  0.7793 -0.4495  0.6481
 2127TIP3    H130576   0.940   0.295  17.998 -0.7875 -2.0021  0.4683
 2127TIP3    H230577   0.989   0.332  18.136 -0.9439  0.6042 -0.1280
 2128TIP3   OH230578   2.786   4.556  19.461  0.4626  0.1900  0.0412
 2128TIP3    H130579   2.691   4.543  19.459  0.4687  0.1982 -0.7340
 2128TIP3    H230580   2.812   4.529  19.549 -0.4597  1.7079  0.8361
 2129TIP3   OH230581   1.762   0.991  21.580  0.1365  0.1150  0.2552
 2129TIP3    H130582   1.836   0.939  21.611 -0.4744 -1.0282 -0.1580
 2129TIP3    H230583   1.689   0.929  21.575 -0.4688  0.8759 -0.8082
 2130TIP3   OH230584   3.409   3.538  18.241 -0.5447  0.0502  0.2257
 2130TIP3    H130585   3.406   3.464  18.181 -1.6671  0.7569 -0.6258
 2130TIP3    H230586   3.384   3.613  18.187 -2.1556  0.6233  1.6986
 2131TIP3   OH230587   4.723   6.274  19.685  0.0227  0.2188  0.1714
 2131TIP3    H130588   4.771   6.234  19.758  0.1533  1.6335  0.9013
 2131TIP3    H230589   4.659   6.331  19.727 -1.6845 -0.8886 -0.8094
 2132TIP3   OH230590   6.610   0.438  20.240 -0.4926  0.0265 -0.3244
 2132TIP3    H130591   6.649   0.440  20.327  0.0728 -1.3821 -0.5101
 2132TIP3    H230592   6.674   0.483  20.184 -0.0981 -0.4600 -0.2729
 2133TIP3   OH230593   3.430   3.835  20.118 -0.3650 -0.7445  0.0571
 2133TIP3    H130594   3.359   3.810  20.059 -0.0505 -2.1961  0.2604
 2133TIP3    H230595   3.435   3.930  20.109 -0.6355 -0.8582 -1.9004
 2134TIP3   OH230596   6.420   1.809  19.961 -0.3925 -0.7142  0.7825
 2134TIP3    H130597   6.455   1.730  19.920 -0.7676 -0.9804  0.9722
 2134TIP3    H230598   6.468   1.817  20.043  0.1154 -0.3720  0.4551
 2135TIP3   OH230599   3.963   1.360  18.818  0.0877 -0.3473  0.3335
 2135TIP3    H130600   4.002   1.277  18.791  1.0579 -0.1065  0.9439
 2135TIP3    H230601   4.007   1.426  18.764  0.1664 -0.1188  0.6752
 2136TIP3   OH230602   6.169   0.180  20.194  0.1310  0.4482  0.1766
 2136TIP3    H130603   6.217   0.099  20.177  0.0159  0.4644 -0.2604
 2136TIP3    H230604   6.226   0.249  20.159 -0.3349  0.4411 -0.6282
 2137TIP3   OH230605   5.670   0.118  19.816 -0.1471 -0.3356  0.5414
 2137TIP3    H130606   5.762   0.092  19.816  0.6929  2.2775 -0.7940
 2137TIP3    H230607   5.666   0.193  19.875 -1.4313 -0.4482  0.6185
 2138TIP3   OH230608   0.146   0.967  18.141 -0.4162  0.7093  0.0715
 2138TIP3    H130609   0.056   0.975  18.109 -0.2625  2.2619 -0.0352
 2138TIP3    H230610   0.150   1.027  18.216 -0.0101 -0.8268  1.3425
 2139TIP3   OH230611   0.693   4.622  19.310 -0.6347  0.0391  0.6103
 2139TIP3    H130612   0.716   4.641  19.219  0.9311  0.7677  1.1234
 2139TIP3    H230613   0.645   4.699  19.340  1.6478  1.2851  1.3017
 2140TIP3   OH230614   2.145   5.673  20.602  0.0665 -0.3038 -0.2555
 2140TIP3    H130615   2.126   5.760  20.566 -0.3961 -0.4466 -0.3590
 2140TIP3    H230616   2.063   5.625  20.593 -0.4810  0.0407  2.1115
 2141TIP3   OH230617   0.636   3.865  19.783 -0.2400  0.0905 -0.1937
 2141TIP3    H130618   0.557   3.918  19.791 -0.2081  0.0505  0.4309
 2141TIP3    H230619   0.699   3.923  19.739 -0.3883  0.3743 -0.0385
 2142TIP3   OH230620   1.466   5.159  21.118  0.2857  0.3521 -0.1464
 2142TIP3    H130621   1.548   5.110  21.128  0.0504  0.2311  1.4195
 2142TIP3    H230622   1.399   5.091  21.106  0.1759  0.3461  0.4510
 2143TIP3   OH230623   3.860   5.287  20.795 -0.2780  0.2450  0.2118
 2143TIP3    H130624   3.945   5.330  20.807  0.8996 -2.2605  1.8161
 2143TIP3    H230625   3.802   5.334  20.854  0.5179  0.7449  0.6225
 2144TIP3   OH230626   2.851   2.641  17.804  0.4592 -0.0779 -0.3603
 2144TIP3    H130627   2.795   2.704  17.758 -0.5973 -0.8890 -0.2174
 2144TIP3    H230628   2.913   2.696  17.854 -0.4295  0.8484 -0.2413
 2145TIP3   OH230629   0.286   1.183  20.078  0.3948  0.5064 -0.6216
 2145TIP3    H130630   0.375   1.218  20.084  0.5134  0.0969  0.1150
 2145TIP3    H230631   0.273   1.166  19.985  1.5540 -0.5914 -0.6158
 2146TIP3   OH230632   3.586   2.752  19.226  0.5444 -0.4893  0.4095
 2146TIP3    H130633   3.592   2.832  19.277  1.7579  0.2733 -0.8686
 2146TIP3    H230634   3.510   2.766  19.169  0.7058 -0.2762  0.2450
 2147TIP3   OH230635   5.792   5.930  18.074  0.2825  0.2466 -0.3916
 2147TIP3    H130636   5.801   5.834  18.075  1.6733  0.2629 -3.0794
 2147TIP3    H230637   5.697   5.945  18.081  0.0787 -1.2715  0.6262
 2148TIP3   OH230638   3.942   6.396  18.263 -0.1567 -0.0200 -0.2442
 2148TIP3    H130639   3.888   6.342  18.205 -2.4949  1.4357  0.4521
 2148TIP3    H230640   4.008   6.434  18.205 -1.8360  0.6453 -1.8256
 2149TIP3   OH230641   1.915   1.655  20.876 -0.9474  0.2963  0.2270
 2149TIP3    H130642   1.845   1.594  20.897 -0.8173  0.0650 -0.0088
 2149TIP3    H230643   1.978   1.646  20.947 -1.3875  0.8618  0.6988
 2150TIP3   OH230644   4.363   4.740  21.271  0.0778  0.2998  0.1167
 2150TIP3    H130645   4.313   4.659  21.283 -0.0508  0.2334 -0.7438
 2150TIP3    H230646   4.309   4.808  21.312 -0.2535  0.0763  0.0580
 2151TIP3   OH230647   3.463   0.740  20.469 -0.3357  0.5506  0.5274
 2151TIP3    H130648   3.485   0.662  20.521 -0.4197  0.3252  0.2214
 2151TIP3    H230649   3.428   0.802  20.533 -1.0493  0.0324  0.6382
 2152TIP3   OH230650   2.947   4.599  21.129  0.3915 -0.5511 -0.5925
 2152TIP3    H130651   2.862   4.601  21.173  0.8278 -0.7324  0.2810
 2152TIP3    H230652   2.961   4.507  21.106  1.1914 -0.8503  0.9793
 2153TIP3   OH230653   6.031   2.890  19.504  0.1217  0.2171  0.0790
 2153TIP3    H130654   6.000   2.810  19.546 -1.9860  0.7297 -0.3626
 2153TIP3    H230655   5.995   2.885  19.415 -0.2447  1.7287  0.1207
 2154TIP3   OH230656   5.796   3.297  18.464  0.3630 -0.1264  0.0583
 2154TIP3    H130657   5.845   3.216  18.475 -0.8435 -1.0720 -1.2285
 2154TIP3    H230658   5.768   3.297  18.373  0.4395  1.8206 -0.0131
 2155TIP3   OH230659   6.399   3.319  17.760  0.2713  0.3701  0.3095
 2155TIP3    H130660   6.419   3.252  17.695  1.3502  0.8873  0.0803
 2155TIP3    H230661   6.458   3.391  17.739  0.2751  0.7550  1.5412
 2156TIP3   OH230662   3.138   1.009  20.574 -0.6280  0.4628 -0.1519
 2156TIP3    H130663   3.046   0.983  20.579 -1.3973  3.0685  2.5075
 2156TIP3    H230664   3.135   1.105  20.572  2.0396  0.6392  0.4538
 2157TIP3   OH230665   3.958   0.650  19.793 -0.0048  0.0204 -0.5484
 2157TIP3    H130666   4.003   0.734  19.780  2.0515 -0.8180  0.6644
 2157TIP3    H230667   3.948   0.614  19.705  1.7260  0.2771 -0.8914
 2158TIP3   OH230668   5.003   1.429  19.475  0.2279  0.5376 -0.2853
 2158TIP3    H130669   4.950   1.395  19.547  0.4096 -1.2485 -0.9330
 2158TIP3    H230670   5.088   1.448  19.514  0.0716  0.3852  0.1337
 2159TIP3   OH230671   4.294   6.366  20.482  0.3125 -0.5174 -0.1520
 2159TIP3    H130672   4.222   6.427  20.496 -0.8156 -1.7307 -0.4314
 2159TIP3    H230673   4.372   6.413  20.511 -0.6637  0.6144  0.7224
 2160TIP3   OH230674   2.817   5.413  19.045  0.7611  0.0916  0.0974
 2160TIP3    H130675   2.883   5.481  19.062  1.3413 -0.3331 -0.4170
 2160TIP3    H230676   2.864   5.331  19.056 -0.5804 -0.4022  3.5729
 2161TIP3   OH230677   3.408   0.207  20.339 -0.1825  0.0049 -0.2586
 2161TIP3    H130678   3.430   0.123  20.298  1.1334 -0.1438  0.7313
 2161TIP3    H230679   3.398   0.267  20.265  0.3891 -0.6619 -0.8905
 2162TIP3   OH230680   1.532   4.260  18.624  0.0334 -0.1719  0.0457
 2162TIP3    H130681   1.553   4.352  18.606  3.8484 -0.8248  0.3429
 2162TIP3    H230682   1.542   4.217  18.539  1.1857 -0.7116  0.4406
 2163TIP3   OH230683   4.370   0.773  21.252  0.2547  0.0837 -0.1994
 2163TIP3    H130684   4.419   0.736  21.325 -0.6093  0.8770  0.8137
 2163TIP3    H230685   4.418   0.852  21.229  1.3609 -0.9291 -1.4965
 2164TIP3   OH230686   2.150   1.928  18.402 -0.0924  0.2050 -0.0162
 2164TIP3    H130687   2.093   2.004  18.411 -0.2580 -0.0286  1.0447
 2164TIP3    H230688   2.184   1.913  18.490  0.5728 -0.4602 -0.3702
 2165TIP3   OH230689   5.080   3.071  19.010 -0.1502 -0.0903 -0.3109
 2165TIP3    H130690   5.035   2.992  19.038 -0.6093  0.2029 -0.2026
 2165TIP3    H230691   5.120   3.048  18.926  0.6571 -0.7690  0.2425
 2166TIP3   OH230692   2.522   2.470  20.322 -0.9595  0.0323  0.4493
 2166TIP3    H130693   2.540   2.376  20.323 -0.0264  0.1860 -0.4472
 2166TIP3    H230694   2.551   2.502  20.407 -0.3293 -0.3252  0.3663
 2167TIP3   OH230695   4.680   3.091  20.401  0.1911 -0.8797 -0.4433
 2167TIP3    H130696   4.763   3.077  20.448  1.8220  2.7289 -1.8597
 2167TIP3    H230697   4.690   3.040  20.321 -0.4248 -2.9851  0.7407
 2168TIP3   OH230698   3.471   2.364  20.886 -0.0360 -0.3597  0.0450
 2168TIP3    H130699   3.514   2.441  20.850  0.9493  0.3563  2.5015
 2168TIP3    H230700   3.389   2.357  20.838  1.7178 -0.3849 -3.1994
 2169TIP3   OH230701   4.845   3.992  18.544  0.3417 -0.0030  0.0495
 2169TIP3    H130702   4.810   4.033  18.623  2.0119  1.2304  0.2101
 2169TIP3    H230703   4.920   3.941  18.576 -0.7953 -1.9945 -0.3663
 2170TIP3   OH230704   1.590   3.402  17.813 -0.4346  0.4176  0.0387
 2170TIP3    H130705   1.524   3.422  17.746  0.5675  0.6726 -0.9057
 2170TIP3    H230706   1.597   3.307  17.812 -2.1814  0.2325  1.5481
 2171TIP3   OH230707   3.713   3.313  17.931 -0.1128 -0.2911 -0.4857
 2171TIP3    H130708   3.755   3.398  17.917  0.6527 -0.3488  1.2864
 2171TIP3    H230709   3.785   3.251  17.939 -0.6639 -1.1234 -1.6076
 2172TIP3   OH230710   3.638   4.968  18.616  0.1655  0.1717 -0.4025
 2172TIP3    H130711   3.545   4.976  18.596 -0.0617 -0.9461  0.1405
 2172TIP3    H230712   3.669   5.059  18.621 -0.2483  0.5653 -3.3047
 2173TIP3   OH230713   5.839   3.313  19.830  0.5787 -0.0384 -0.2711
 2173TIP3    H130714   5.771   3.255  19.864 -0.3308  1.5175  0.6793
 2173TIP3    H230715   5.911   3.305  19.892 -0.2918  1.2500  0.9639
 2174TIP3   OH230716   4.897   1.657  19.745  0.1487 -0.1645  0.2090
 2174TIP3    H130717   4.947   1.705  19.679 -0.1407  0.1458  0.2097
 2174TIP3    H230718   4.881   1.721  19.814 -1.6581  0.2539 -0.5166
 2175TIP3   OH230719   4.093   5.956  18.521  0.5343 -0.2105 -0.0171
 2175TIP3    H130720   4.118   6.007  18.444  1.1091 -0.0633  0.2643
 2175TIP3    H230721   4.014   5.999  18.554 -0.6731 -1.2376 -1.4524
 2176TIP3   OH230722   1.286   1.774  20.985 -0.3262  0.0857 -0.1978
 2176TIP3    H130723   1.227   1.838  20.945  0.6330 -0.3210 -2.4585
 2176TIP3    H230724   1.340   1.825  21.044 -2.0988  0.6586  1.0265
 2177TIP3   OH230725   1.902   3.029  19.187 -0.2232  0.7346  0.0748
 2177TIP3    H130726   1.891   2.972  19.111  0.8222 -0.2713  0.6456
 2177TIP3    H230727   1.826   3.010  19.243  0.9908 -1.4913  1.0855
 2178TIP3   OH230728   4.493   5.003  18.080  0.4059  0.3502 -0.2543
 2178TIP3    H130729   4.434   4.964  18.016  0.9298 -0.4010 -0.3000
 2178TIP3    H230730   4.569   4.945  18.081  1.3468  1.5247 -0.5255
 2179TIP3   OH230731   1.913   5.053  20.313  0.7004  0.2705  0.8291
 2179TIP3    H130732   1.823   5.085  20.319  0.7737  0.6781 -0.0549
 2179TIP3    H230733   1.966   5.123  20.351  0.7077  0.4121  0.5633
 2180TIP3   OH230734   3.059   5.090  19.056  0.2570 -0.3621  0.3502
 2180TIP3    H130735   3.088   5.044  19.135  0.2702  0.4393  0.8202
 2180TIP3    H230736   3.114   5.168  19.051 -1.5769  1.0443  1.1006
 2181TIP3   OH230737   2.112   6.486  20.056  0.2293 -0.1968  0.1174
 2181TIP3    H130738   2.049   6.426  20.095 -0.3787 -0.0979 -0.6724
 2181TIP3    H230739   2.106   6.468  19.962  1.8275 -0.6123  0.0655
 2182TIP3   OH230740   4.121   4.517  18.783 -0.7579  0.5688  0.1072
 2182TIP3    H130741   4.181   4.447  18.759  1.1240  1.8292  0.8725
 2182TIP3    H230742   4.059   4.521  18.710 -0.6787 -1.5811 -0.1331
 2183TIP3   OH230743   0.053   5.209  20.074 -0.5452 -0.3523  0.7284
 2183TIP3    H130744   0.044   5.301  20.099  0.0838  0.4433 -1.6925
 2183TIP3    H230745  -0.003   5.200  19.997 -0.4165 -1.9466  0.7979
 2184TIP3   OH230746   2.565   3.259  18.833 -0.6991  0.7181  0.3355
 2184TIP3    H130747   2.607   3.174  18.820  0.8037  1.3127  1.0411
 2184TIP3    H230748   2.471   3.240  18.833 -0.5643 -0.5135 -2.5126
 2185TIP3   OH230749   2.265   5.816  18.207 -0.3902 -0.5771 -0.2734
 2185TIP3    H130750   2.276   5.903  18.167 -1.0282  0.0791  0.9091
 2185TIP3    H230751   2.276   5.755  18.134 -0.6673  0.5246 -1.2834
 2186TIP3   OH230752   1.486   6.006  20.664 -0.3636  0.5491  0.3440
 2186TIP3    H130753   1.410   6.015  20.607 -0.1589 -0.8151 -0.1849
 2186TIP3    H230754   1.450   6.008  20.752 -0.8888  0.9406  0.1279
 2187TIP3   OH230755   0.714   2.378  20.753 -0.0181 -0.2176  0.3899
 2187TIP3    H130756   0.655   2.368  20.678  0.6645  1.5872 -0.4421
 2187TIP3    H230757   0.785   2.317  20.735 -0.2005 -0.2952 -0.0876
 2188TIP3   OH230758   0.096   5.346  19.052 -0.0660  0.4857  0.0712
 2188TIP3    H130759   0.074   5.254  19.065  0.2675  0.3898 -0.0525
 2188TIP3    H230760   0.191   5.347  19.040 -0.3834  0.4895 -3.1414
 2189TIP3   OH230761   5.741   1.247  21.240 -0.2875  0.1568 -0.6007
 2189TIP3    H130762   5.830   1.242  21.204  0.3619  1.6026  0.6564
 2189TIP3    H230763   5.725   1.161  21.278  1.4492  0.4607  0.9990
 2190TIP3   OH230764   2.429   4.775  20.740 -0.1024  0.0720  0.5244
 2190TIP3    H130765   2.437   4.870  20.744  0.1539  0.0680  0.1133
 2190TIP3    H230766   2.473   4.750  20.659  1.7103 -0.5798  1.6356
 2191TIP3   OH230767   0.177   4.504  18.214 -0.1337  0.0871 -0.2098
 2191TIP3    H130768   0.174   4.589  18.170  0.0565  0.6632  0.8596
 2191TIP3    H230769   0.215   4.444  18.150 -0.7016  0.7007 -1.1352
 2192TIP3   OH230770   1.001   0.791  18.473  0.5643  0.2039  0.7394
 2192TIP3    H130771   0.993   0.743  18.555  1.3015  1.4830  1.5991
 2192TIP3    H230772   1.081   0.844  18.484 -0.0724  1.4219 -0.2476
 2193TIP3   OH230773   5.258   3.642  21.216  0.3360 -0.9161 -0.1952
 2193TIP3    H130774   5.332   3.702  21.204  1.4235 -1.2581  3.5466
 2193TIP3    H230775   5.298   3.555  21.217  0.1753 -1.0477  2.8194
 2194TIP3   OH230776   4.845   3.073  19.761 -0.1661  0.3953  0.4674
 2194TIP3    H130777   4.848   3.142  19.826  0.4014  0.6891  0.1367
 2194TIP3    H230778   4.811   2.997  19.808  0.7758  0.4388  1.2519
 2195TIP3   OH230779   0.696   0.240  21.613 -0.0596  0.1951  0.9471
 2195TIP3    H130780   0.752   0.192  21.674 -1.8742 -2.0421  1.0092
 2195TIP3    H230781   0.706   0.193  21.530 -1.3705  0.0948  0.8255
 2196TIP3   OH230782   1.001   2.692  20.137  0.3108  0.4497 -0.6797
 2196TIP3    H130783   1.052   2.755  20.189 -1.6754  2.2986 -0.8269
 2196TIP3    H230784   0.959   2.746  20.070 -1.3636 -1.0805 -0.9115
 2197TIP3   OH230785   5.916   5.013  20.508 -0.2822  0.6803  0.1216
 2197TIP3    H130786   5.969   5.089  20.483  1.2859 -0.2937  0.3471
 2197TIP3    H230787   5.841   5.050  20.554 -0.1350  2.1513 -0.7487
 2198TIP3   OH230788   6.319   6.204  19.099  0.4899 -0.1471 -0.1789
 2198TIP3    H130789   6.337   6.193  19.006  0.5332  0.0592 -0.1961
 2198TIP3    H230790   6.237   6.253  19.103 -0.2704 -1.3818 -0.1074
 2199TIP3   OH230791   2.310   3.386  19.197 -0.1782  0.6887  0.4926
 2199TIP3    H130792   2.305   3.401  19.292  0.9609 -1.5823  0.9860
 2199TIP3    H230793   2.235   3.330  19.178  1.0273 -1.0529  0.6085
 2200TIP3   OH230794   4.562   1.904  19.655 -0.1100  0.3324  0.0010
 2200TIP3    H130795   4.482   1.900  19.602  0.3881  0.1932 -0.7510
 2200TIP3    H230796   4.596   1.814  19.653 -0.4076  0.1739  1.0823
 2201TIP3   OH230797   1.180   2.362  18.942  0.0321  0.5150  0.0569
 2201TIP3    H130798   1.212   2.381  18.853 -1.5468  0.6717 -0.5074
 2201TIP3    H230799   1.193   2.268  18.952 -0.2376  0.4060 -0.5405
 2202TIP3   OH230800   1.139   1.388  20.835  0.1129 -0.2566  0.5744
 2202TIP3    H130801   1.167   1.296  20.838 -0.4294 -0.4065  1.5878
 2202TIP3    H230802   1.069   1.390  20.771 -0.1661 -0.6493  0.8595
 2203TIP3   OH230803   5.216   3.107  20.654 -0.2470  0.2399 -0.0245
 2203TIP3    H130804   5.226   3.201  20.666  1.5125 -0.0687  1.3306
 2203TIP3    H230805   5.233   3.070  20.740 -1.7988 -1.2994 -0.3172
 2204TIP3   OH230806   4.386   2.042  17.916 -0.2645 -0.2514 -0.0855
 2204TIP3    H130807   4.336   1.961  17.929  0.4321 -0.7341 -0.3202
 2204TIP3    H230808   4.405   2.072  18.005  2.0946 -2.0406  0.1274
 2205TIP3   OH230809   3.945   4.789  19.542 -0.0236  0.1471 -0.1049
 2205TIP3    H130810   3.857   4.761  19.516 -0.2798 -1.2898  2.0998
 2205TIP3    H230811   4.003   4.745  19.480 -0.7460 -0.9666 -0.0218
 2206TIP3   OH230812   5.967   0.542  20.604 -0.4652  0.3588 -0.6457
 2206TIP3    H130813   6.022   0.614  20.573  0.4484  0.1329  0.3900
 2206TIP3    H230814   5.879   0.580  20.611  0.3223  2.0262  1.7816
 2207TIP3   OH230815   5.291   5.172  18.853 -0.7202  0.1655  0.6455
 2207TIP3    H130816   5.280   5.116  18.930  0.0561  1.8640  2.1073
 2207TIP3    H230817   5.213   5.228  18.853 -2.3336 -1.9102 -1.7964
 2208TIP3   OH230818   3.720   2.414  17.197  0.4316  0.0614 -0.6173
 2208TIP3    H130819   3.661   2.340  17.180 -0.1116 -0.2604  2.2126
 2208TIP3    H230820   3.664   2.491  17.186  0.5390  0.0009 -1.7760
 2209TIP3   OH230821   6.205   2.798  18.329  0.1491  0.5044 -0.2950
 2209TIP3    H130822   6.143   2.801  18.256  0.0195  0.4250 -0.1881
 2209TIP3    H230823   6.220   2.889  18.351  1.2731  0.5997 -1.3287
 2210TIP3   OH230824   2.009   2.628  17.741 -0.4052 -0.5226 -0.1063
 2210TIP3    H130825   2.056   2.710  17.758 -0.0652 -0.7296 -0.0361
 2210TIP3    H230826   2.075   2.560  17.755 -0.6413 -0.7979 -0.3422
 2211TIP3   OH230827   2.723   2.665  19.216  0.4691 -0.0003  0.4093
 2211TIP3    H130828   2.652   2.718  19.179  1.3776  1.5239  0.7601
 2211TIP3    H230829   2.775   2.637  19.140  0.7902  0.8331  0.3154
 2212TIP3   OH230830   5.211   1.558  19.804 -0.2741 -0.0885  0.1762
 2212TIP3    H130831   5.217   1.463  19.795 -1.5494 -0.1159 -0.5238
 2212TIP3    H230832   5.266   1.593  19.734 -0.4251 -0.3147 -0.0559
 2213TIP3   OH230833   3.056   5.046  20.680 -0.2250  0.2048 -0.2667
 2213TIP3    H130834   2.988   5.110  20.700 -0.3239 -0.3095  1.1340
 2213TIP3    H230835   3.046   4.978  20.747  0.5428 -0.7616 -1.0939
 2214TIP3   OH230836   0.956   5.807  20.267 -0.2437  0.3898 -0.2525
 2214TIP3    H130837   1.049   5.794  20.250  0.3975  0.4774  2.7415
 2214TIP3    H230838   0.923   5.720  20.289 -0.1645  0.7721  1.5118
 2215TIP3   OH230839   6.248   4.060  21.471 -0.2077 -0.3933  0.3925
 2215TIP3    H130840   6.170   4.059  21.415 -0.3701  0.3467  0.5878
 2215TIP3    H230841   6.252   3.973  21.509  0.4225 -1.2267 -1.4734
 2216TIP3   OH230842   2.415   0.440  19.811  0.4349  0.1103 -0.3200
 2216TIP3    H130843   2.501   0.401  19.828  0.0033  0.0781  2.2866
 2216TIP3    H230844   2.426   0.533  19.834  0.1207  0.4209 -1.3830
 2217TIP3   OH230845   2.665   4.871  19.211  0.0685  0.4118 -0.2982
 2217TIP3    H130846   2.730   4.894  19.145  0.3883 -1.4226 -0.6958
 2217TIP3    H230847   2.590   4.839  19.160 -0.7448  1.4792  0.1838
 2218TIP3   OH230848   1.364   0.394  20.440  0.3390  0.0748 -0.7432
 2218TIP3    H130849   1.350   0.435  20.526  1.2838  0.1402 -0.6025
 2218TIP3    H230850   1.367   0.467  20.378  0.7860  0.1321 -0.6633
 2219TIP3   OH230851   3.381   2.982  17.732 -0.1276  0.1114 -0.1176
 2219TIP3    H130852   3.412   2.939  17.652 -0.1361  0.0326 -0.0775
 2219TIP3    H230853   3.405   3.074  17.720 -0.0735  0.0893 -0.1834
 2220TIP3   OH230854   0.624   3.344  18.274 -0.0361  0.6274  0.2290
 2220TIP3    H130855   0.608   3.401  18.349  0.4457  0.5613  0.3873
 2220TIP3    H230856   0.587   3.391  18.200 -2.2765 -0.1851  0.7654
 2221TIP3   OH230857   1.500   2.076  19.524  0.4070 -0.7578  0.4635
 2221TIP3    H130858   1.540   1.999  19.483  0.3638 -1.4363  1.6450
 2221TIP3    H230859   1.573   2.133  19.546  0.3073  0.6295 -2.4263
 2222TIP3   OH230860   1.637   5.953  19.463 -0.2721 -0.3799 -0.3492
 2222TIP3    H130861   1.701   5.944  19.393 -0.1571 -1.2714 -0.1400
 2222TIP3    H230862   1.557   5.981  19.419  0.1851  0.4890 -0.6416
 2223TIP3   OH230863   2.695   5.760  20.019 -0.5788  0.0822 -0.1111
 2223TIP3    H130864   2.785   5.775  19.990  0.2742 -0.8027  1.9247
 2223TIP3    H230865   2.698   5.674  20.062 -2.2295  0.4025  0.6893
 2224TIP3   OH230866   4.934   1.929  20.873 -0.1149 -0.3344  0.2037
 2224TIP3    H130867   4.967   1.868  20.939 -0.1396 -0.0316  0.4980
 2224TIP3    H230868   5.002   1.930  20.805 -1.2685 -2.7246 -1.1376
 2225TIP3   OH230869   0.576   0.688  17.943 -0.2780 -0.1823  0.0059
 2225TIP3    H130870   0.536   0.752  18.003 -0.2170 -1.0595  1.0240
 2225TIP3    H230871   0.502   0.645  17.901 -0.3254  0.3620 -0.4685
 2226TIP3   OH230872   1.887   5.164  18.181  0.4112 -0.2399 -0.1942
 2226TIP3    H130873   1.980   5.177  18.201  0.2836  3.0869 -1.2324
 2226TIP3    H230874   1.887   5.103  18.107  1.7281 -0.4878 -0.0195
 2227TIP3   OH230875   1.648   4.546  18.929  0.2919  0.4922  0.2505
 2227TIP3    H130876   1.603   4.627  18.953 -2.3877 -1.0415  0.9004
 2227TIP3    H230877   1.684   4.514  19.012  1.0677  0.8427  0.0538
 2228TIP3   OH230878   2.356   5.106  21.162 -0.7388 -0.3618 -0.3345
 2228TIP3    H130879   2.398   5.029  21.125  0.2733  0.5356 -1.0941
 2228TIP3    H230880   2.411   5.131  21.236 -0.5723  0.1248 -0.6146
 2229TIP3   OH230881   6.267   2.016  19.859  0.2189  0.2411 -0.3073
 2229TIP3    H130882   6.321   1.953  19.907 -0.5080 -0.5717 -0.5264
 2229TIP3    H230883   6.274   1.989  19.768 -1.5554 -0.6883 -0.2165
 2230TIP3   OH230884   6.178   1.727  20.709 -0.3103 -0.7309 -0.0467
 2230TIP3    H130885   6.102   1.708  20.654 -0.1212  2.0687 -1.4551
 2230TIP3    H230886   6.215   1.808  20.672  0.0442  1.1952  3.9532
 2231TIP3   OH230887   2.573   0.885  19.674 -0.3624 -0.2464  0.2496
 2231TIP3    H130888   2.525   0.966  19.658  1.3680  1.0301  1.1066
 2231TIP3    H230889   2.664   0.907  19.653  0.1577 -1.9707  0.5403
 2232TIP3   OH230890   2.480   5.984  19.832  0.2648 -0.5204 -0.5972
 2232TIP3    H130891   2.465   6.054  19.896 -0.6719 -2.0333  0.9398
 2232TIP3    H230892   2.575   5.975  19.828  0.4077  0.8432 -0.8733
 2233TIP3   OH230893   5.149   6.490  19.654 -0.4582 -0.0018 -0.0662
 2233TIP3    H130894   5.128   6.515  19.744 -1.5322 -1.7669  0.2211
 2233TIP3    H230895   5.242   6.467  19.656  0.1066  2.1259  0.0482
 2234TIP3   OH230896   0.580   3.962  20.898 -0.1251  0.2555  0.1835
 2234TIP3    H130897   0.596   3.937  20.989  1.1261  2.1858  0.5517
 2234TIP3    H230898   0.662   4.002  20.869 -0.7704  0.4274 -1.5476
 2235TIP3   OH230899   4.791   1.296  20.008  0.2905  0.7492 -0.3623
 2235TIP3    H130900   4.875   1.336  20.030  0.7804  1.9966 -3.8057
 2235TIP3    H230901   4.741   1.366  19.967 -0.3683 -1.1447 -3.0984
 2236TIP3   OH230902   0.416   5.098  21.203  0.3233 -0.1865  0.0003
 2236TIP3    H130903   0.377   5.172  21.155  1.8826  0.2960 -0.5910
 2236TIP3    H230904   0.462   5.139  21.276 -1.6990 -0.8906  1.7689
 2237TIP3   OH230905   5.027   0.696  18.234 -0.0261  0.5580 -0.2847
 2237TIP3    H130906   5.121   0.677  18.239  0.5349  2.7834 -1.0694
 2237TIP3    H230907   4.990   0.623  18.185  1.2055 -0.5578  0.3823
 2238TIP3   OH230908   4.801   5.722  19.334  0.1392  0.0931 -0.5308
 2238TIP3    H130909   4.805   5.649  19.271  2.8223  0.5914 -1.1045
 2238TIP3    H230910   4.759   5.793  19.286 -1.5173 -0.7142 -0.3327
 2239TIP3   OH230911   4.369   2.408  17.852 -0.1864 -0.4845  0.2904
 2239TIP3    H130912   4.320   2.489  17.841 -0.0513 -0.5617 -1.1227
 2239TIP3    H230913   4.305   2.339  17.831 -0.3097 -0.7547  1.5101
 2240TIP3   OH230914   2.445   2.928  17.685  0.3409  0.0252 -0.7344
 2240TIP3    H130915   2.425   3.021  17.693 -0.7941 -0.2347 -0.3469
 2240TIP3    H230916   2.441   2.910  17.592  1.2254  0.4881 -0.8764
 2241TIP3   OH230917   3.871   5.039  20.597 -0.5945  0.1746 -0.7024
 2241TIP3    H130918   3.903   5.068  20.683 -3.2084 -0.0012  0.4001
 2241TIP3    H230919   3.828   5.117  20.560  0.4595  0.2346 -1.8810
 2242TIP3   OH230920   6.399   5.821  21.215  0.5095  0.0568  0.0831
 2242TIP3    H130921   6.385   5.742  21.268  0.4792 -0.1129 -0.1741
 2242TIP3    H230922   6.488   5.848  21.236  0.7552 -0.4211 -0.3082
 2243TIP3   OH230923   3.958   2.609  17.456  0.2559  0.7871  0.5479
 2243TIP3    H130924   3.922   2.697  17.452  0.5887  0.9454  0.9019
 2243TIP3    H230925   3.934   2.577  17.543 -2.9866 -0.8589 -0.8086
 2244TIP3   OH230926   0.319   0.853  18.479 -0.0445  0.0129 -0.1398
 2244TIP3    H130927   0.355   0.815  18.399  1.2549 -0.7086  0.7505
 2244TIP3    H230928   0.296   0.943  18.455 -0.4057 -0.4265 -1.5128
 2245TIP3   OH230929   0.860   5.744  21.120  0.8373 -0.5318 -0.0548
 2245TIP3    H130930   0.930   5.684  21.095  0.6821 -0.6080 -0.3150
 2245TIP3    H230931   0.864   5.814  21.055  0.2302 -0.8889 -0.4927
 2246TIP3   OH230932   3.469   0.006  18.445 -0.3271 -0.1441 -0.1535
 2246TIP3    H130933   3.458   0.064  18.369 -0.4054 -0.5086 -0.4240
 2246TIP3    H230934   3.503  -0.075  18.408  1.7992  0.4052  0.4520
 2247TIP3   OH230935   0.639   3.387  19.615 -0.5767  0.9475  0.0872
 2247TIP3    H130936   0.725   3.423  19.591  0.4266 -0.2332  1.6680
 2247TIP3    H230937   0.585   3.464  19.630 -0.4192  1.7386 -2.7533
 2248TIP3   OH230938   4.631   2.306  20.768 -0.7413 -0.0859 -0.6518
 2248TIP3    H130939   4.638   2.397  20.798 -1.5801 -0.6806  1.5111
 2248TIP3    H230940   4.686   2.303  20.689 -0.1129  2.1060 -0.3780
 2249TIP3   OH230941   5.699   0.339  17.599 -0.5007 -0.4647  0.3156
 2249TIP3    H130942   5.744   0.381  17.526 -0.8273  0.3786  0.5840
 2249TIP3    H230943   5.764   0.280  17.637  0.7787  1.5072  1.3612
 2250TIP3   OH230944   0.634   5.018  21.059  0.0451  0.0437  0.4146
 2250TIP3    H130945   0.684   5.062  21.128 -0.5670 -0.0493  0.9260
 2250TIP3    H230946   0.543   5.041  21.076 -0.2913 -1.3520  0.6579
 2251TIP3   OH230947   1.230   3.877  17.717 -0.2715 -0.5833 -0.0354
 2251TIP3    H130948   1.146   3.833  17.706  0.0508 -1.2957  0.2185
 2251TIP3    H230949   1.209   3.962  17.755 -0.8150 -1.1596  0.9886
 2252TIP3   OH230950   2.185   3.870  17.677 -0.3347 -0.3635 -0.0760
 2252TIP3    H130951   2.128   3.863  17.754 -0.7720 -0.2910 -0.3909
 2252TIP3    H230952   2.178   3.961  17.650  0.1675 -0.2829  0.0604
 2253TIP3   OH230953   5.039   3.818  18.637 -0.3045 -0.0382  0.7489
 2253TIP3    H130954   4.991   3.748  18.681  1.0397 -1.9534 -0.6681
 2253TIP3    H230955   5.126   3.817  18.676  0.1543 -0.1244 -0.2287
 2254TIP3   OH230956   1.040   1.119  20.213  0.1229  0.4835 -0.4854
 2254TIP3    H130957   1.022   1.209  20.187  0.4367  0.1653 -1.8949
 2254TIP3    H230958   0.963   1.070  20.184 -0.3226  0.3574  0.8124
 2255TIP3   OH230959   1.775   2.688  19.307  0.1279 -0.1003  0.3030
 2255TIP3    H130960   1.688   2.726  19.311 -0.0646 -0.5210  0.1037
 2255TIP3    H230961   1.779   2.644  19.222  0.5040 -0.1510  0.3426
 2256TIP3   OH230962   2.543   1.308  20.572  0.0475  0.1756 -0.1297
 2256TIP3    H130963   2.499   1.223  20.583  0.1162 -0.5879 -4.1770
 2256TIP3    H230964   2.636   1.288  20.580  0.0019  0.5078  1.7249
 2257TIP3   OH230965   6.039   3.873  20.223  0.3729  0.0371 -0.4208
 2257TIP3    H130966   5.982   3.918  20.160  0.1522  0.4326  0.0585
 2257TIP3    H230967   6.073   3.798  20.175  0.0077  0.1974 -0.9347
 2258TIP3   OH230968   6.323   1.254  20.214 -0.2653 -0.3989  0.0857
 2258TIP3    H130969   6.346   1.302  20.293 -0.7933 -0.5314  0.3224
 2258TIP3    H230970   6.382   1.179  20.213  1.2969  0.7886 -0.8396
 2259TIP3   OH230971   3.471   1.233  20.053 -0.5327  0.0239  0.1767
 2259TIP3    H130972   3.432   1.299  20.110 -1.0728  0.8983 -1.1542
 2259TIP3    H230973   3.552   1.272  20.022  0.1667 -0.7733  0.9520
 2260TIP3   OH230974   2.898   6.406  20.105 -0.3654  0.5332  0.4518
 2260TIP3    H130975   2.902   6.420  20.200  2.4561  1.7124  0.2452
 2260TIP3    H230976   2.955   6.331  20.089  2.4170  2.7301 -0.6092
 2261TIP3   OH230977   3.344   0.376  20.842 -0.3599  0.4635  0.4543
 2261TIP3    H130978   3.273   0.425  20.801  1.1124  2.8767  0.5709
 2261TIP3    H230979   3.387   0.331  20.769 -0.6227  0.8527  0.0544
 2262TIP3   OH230980   4.036   2.165  17.544  0.0532  0.4084  0.6008
 2262TIP3    H130981   3.962   2.217  17.512 -0.1289  0.0614  0.4516
 2262TIP3    H230982   4.086   2.145  17.465  0.1073  0.3306  0.6551
 2263TIP3   OH230983   5.877   2.150  20.879  0.4170 -0.3901  0.3786
 2263TIP3    H130984   5.919   2.226  20.838 -0.1321 -1.7812 -2.9990
 2263TIP3    H230985   5.948   2.110  20.930  1.8862  0.0879 -1.1792
 2264TIP3   OH230986   2.566   2.441  20.601 -0.3614  0.3560  0.8509
 2264TIP3    H130987   2.482   2.396  20.593  0.1441 -0.5002  0.2090
 2264TIP3    H230988   2.615   2.388  20.664 -0.3996  1.0230  1.4538
 2265TIP3   OH230989   1.927   1.955  18.674 -0.3455  0.4025  0.2463
 2265TIP3    H130990   1.912   1.933  18.766 -1.0912 -2.5091 -0.4608
 2265TIP3    H230991   2.010   1.913  18.653  0.5927  2.3180 -0.1053
 2266TIP3   OH230992   4.541   5.509  18.233  0.0962  0.1429 -0.3380
 2266TIP3    H130993   4.623   5.537  18.193 -0.4837  0.9239 -0.9923
 2266TIP3    H230994   4.515   5.432  18.183  0.2553  0.0932 -0.3442
 2267TIP3   OH230995   4.003   3.044  21.178  0.2765 -0.0459  0.4739
 2267TIP3    H130996   4.062   2.972  21.203  0.6440  0.4495  1.0560
 2267TIP3    H230997   4.060   3.121  21.173 -0.0847  0.1793 -0.3080
 2268TIP3   OH230998   4.067   3.239  20.185  0.6322 -0.5936  0.3538
 2268TIP3    H130999   3.980   3.237  20.146  0.6332  0.4707  0.2574
 2268TIP3    H231000   4.113   3.166  20.145 -0.4030 -1.5762  0.8914
 2269TIP3   OH231001   6.278   0.282  18.977  0.1763 -0.4656  0.8215
 2269TIP3    H131002   6.239   0.339  18.911  3.5258  0.8706 -0.1849
 2269TIP3    H231003   6.314   0.209  18.927  0.6572 -0.6630  1.4438
 2270TIP3   OH231004   2.165   4.264  18.452  0.0151  0.0319 -0.2767
 2270TIP3    H131005   2.135   4.352  18.475  0.5453  0.3504 -0.7724
 2270TIP3    H231006   2.260   4.267  18.464  0.2997  0.1467 -2.2225
 2271TIP3   OH231007   5.652   0.748  18.270 -0.4097  0.6833 -0.2194
 2271TIP3    H131008   5.669   0.795  18.352  3.8678 -1.0085  0.1570
 2271TIP3    H231009   5.597   0.674  18.295  0.9572  0.1098  1.2604
 2272TIP3   OH231010   6.619   4.220  20.839 -0.5823  0.3099 -0.0101
 2272TIP3    H131011   6.674   4.250  20.911 -1.1932  0.6167  0.3469
 2272TIP3    H231012   6.676   4.217  20.763 -0.3241  1.6446  0.1189
 2273TIP3   OH231013   2.005   3.562  18.211 -0.1383  0.3707 -0.0720
 2273TIP3    H131014   1.972   3.651  18.213 -0.4537  0.2672 -0.5815
 2273TIP3    H231015   1.961   3.521  18.136  0.9254  0.1409 -0.5814
 2274TIP3   OH231016   1.774   5.711  21.188 -0.0615  1.0024 -0.3727
 2274TIP3    H131017   1.741   5.787  21.140  1.1903  3.2012  2.0256
 2274TIP3    H231018   1.695   5.668  21.222 -0.7883  1.1982 -1.7513
 2275TIP3   OH231019   5.384   5.189  19.197  0.0515  0.1573  0.3199
 2275TIP3    H131020   5.340   5.266  19.163 -1.9171 -1.2193 -0.4342
 2275TIP3    H231021   5.371   5.193  19.291  2.8368  2.3783  0.7270
 2276TIP3   OH231022   5.003   3.021  17.732  0.4286  0.1689  0.3285
 2276TIP3    H131023   5.085   3.027  17.683  1.3739 -4.3455  0.9717
 2276TIP3    H231024   5.026   2.978  17.814 -2.6197 -2.4667  0.0354
 2277TIP3   OH231025   1.170   4.730  20.658 -0.3320 -0.5870 -0.8390
 2277TIP3    H131026   1.203   4.657  20.605  0.9178  0.4069 -1.4841
 2277TIP3    H231027   1.158   4.802  20.596 -2.8416 -0.5880 -0.4463
 2278TIP3   OH231028   4.229   1.508  18.722  0.0937  0.7162  0.2223
 2278TIP3    H131029   4.244   1.462  18.639  0.9604 -1.5194  1.5274
 2278TIP3    H231030   4.280   1.588  18.715  1.1910 -0.0491 -0.9271
 2279TIP3   OH231031   4.063   4.375  20.801  0.0079  0.1166  0.2418
 2279TIP3    H131032   4.063   4.463  20.764 -0.0164  0.7781  1.7455
 2279TIP3    H231033   4.022   4.320  20.734 -1.2432  1.4948 -0.1554
 2280TIP3   OH231034   0.800   5.537  20.800 -0.2742  0.2625  0.2187
 2280TIP3    H131035   0.822   5.631  20.794  1.6936 -0.1709 -0.0770
 2280TIP3    H231036   0.855   5.496  20.734 -0.4377 -1.2156  0.9708
 2281TIP3   OH231037   6.342   0.593  20.554 -0.7069 -0.0419  0.2374
 2281TIP3    H131038   6.408   0.653  20.522  0.1442 -0.9585  0.2076
 2281TIP3    H231039   6.351   0.596  20.650  0.1842 -1.0005  0.2060
 2282TIP3   OH231040   4.814   4.305  19.619 -0.0600 -0.0601 -0.0647
 2282TIP3    H131041   4.840   4.320  19.710 -0.1928  0.4382 -0.1075
 2282TIP3    H231042   4.886   4.254  19.582  0.0670 -0.1324  0.2789
 2283TIP3   OH231043   1.341   5.401  18.600  0.1723 -0.2948 -0.4727
 2283TIP3    H131044   1.276   5.471  18.604  0.0073 -0.4677  0.0168
 2283TIP3    H231045   1.324   5.357  18.516 -0.1269 -0.1326 -0.4980
 2284TIP3   OH231046   1.491   5.730  20.902  0.0050 -0.2822 -0.0875
 2284TIP3    H131047   1.465   5.691  20.985  0.9613  2.5491  1.7203
 2284TIP3    H231048   1.417   5.785  20.876  1.0508  1.7358  0.9591
 2285TIP3   OH231049   3.638   1.507  19.428 -0.1243  0.1780 -0.1435
 2285TIP3    H131050   3.700   1.574  19.457 -1.1917  0.3119  2.0447
 2285TIP3    H231051   3.555   1.553  19.415 -0.7601 -0.6089  0.9485
 2286TIP3   OH231052   6.321   6.297  20.402  0.5160 -0.3815 -0.3029
 2286TIP3    H131053   6.273   6.214  20.400 -0.5014  0.1532  0.6963
 2286TIP3    H231054   6.255   6.364  20.390  1.0807  0.3518  0.5128
 2287TIP3   OH231055   0.521   0.908  19.063  0.7172 -0.2817  0.3030
 2287TIP3    H131056   0.528   0.977  18.997  0.5779 -1.0840 -0.5746
 2287TIP3    H231057   0.583   0.934  19.132  0.8805  0.5543 -0.1422
 2288TIP3   OH231058   0.543   0.642  20.973  0.1597  0.5624 -0.4260
 2288TIP3    H131059   0.619   0.654  20.916  0.3430 -0.5387 -0.4301
 2288TIP3    H231060   0.470   0.622  20.914  0.0253  0.8867 -0.3713
 2289TIP3   OH231061   3.551   6.379  18.345 -0.0748 -0.4929 -0.0680
 2289TIP3    H131062   3.538   6.285  18.344 -0.0815 -0.4905 -0.3312
 2289TIP3    H231063   3.529   6.408  18.257 -1.6659 -0.0213  0.4513
 2290TIP3   OH231064   6.457   1.137  18.808 -0.1287 -0.0171  0.1134
 2290TIP3    H131065   6.468   1.186  18.889 -1.5720 -0.7838  0.8050
 2290TIP3    H231066   6.426   1.051  18.836 -0.8130 -0.2445 -1.2527
 2291TIP3   OH231067   0.733   6.072  20.549  0.5921 -0.0887 -0.2652
 2291TIP3    H131068   0.693   6.124  20.618  0.5891 -1.6678  0.9567
 2291TIP3    H231069   0.722   6.126  20.470  0.8883  1.8930  0.9753
 2292TIP3   OH231070   5.097   3.745  19.729 -0.2000  0.3723 -0.2692
 2292TIP3    H131071   5.016   3.796  19.735  0.6719  1.8153 -0.0437
 2292TIP3    H231072   5.166   3.807  19.755  0.9285 -0.9504  0.0208
 2293TIP3   OH231073   4.050   1.561  18.484  0.1351  0.1864 -0.4139
 2293TIP3    H131074   4.047   1.470  18.513  0.5476  0.3545  0.2032
 2293TIP3    H231075   4.133   1.568  18.436 -0.4802 -0.0558 -1.5257
 2294TIP3   OH231076   4.346   5.451  18.581  0.2648 -0.1694  0.1235
 2294TIP3    H131077   4.292   5.477  18.506 -0.7806 -1.0396  0.5553
 2294TIP3    H231078   4.428   5.420  18.541 -0.1659 -0.3554 -0.6370
 2295TIP3   OH231079   5.948   2.692  19.298  0.3340 -0.0720 -0.2465
 2295TIP3    H131080   5.999   2.618  19.265 -1.9538 -2.2344  0.6834
 2295TIP3    H231081   5.857   2.669  19.277 -0.4279  2.7910 -0.3821
 2296TIP3   OH231082   5.731   1.603  20.653  0.3882  0.1216 -0.2604
 2296TIP3    H131083   5.819   1.639  20.658  0.1299  0.7071  0.1466
 2296TIP3    H231084   5.720   1.554  20.734  0.0220  0.8016  0.1124
 2297TIP3   OH231085   4.867   4.544  20.414  0.1644 -0.1554 -0.2737
 2297TIP3    H131086   4.909   4.522  20.498 -1.3533 -0.6742  0.3878
 2297TIP3    H231087   4.892   4.473  20.355 -1.8191 -1.9044  0.8563
 2298TIP3   OH231088   1.291   3.934  20.369 -0.9881  0.1183  0.7076
 2298TIP3    H131089   1.362   3.898  20.316 -0.1288  2.3617  0.1891
 2298TIP3    H231090   1.284   3.875  20.443 -0.8410 -1.9942 -0.8764
 2299TIP3   OH231091   3.717   5.861  18.962  0.3476 -0.3751  0.4116
 2299TIP3    H131092   3.721   5.909  18.880  0.3645 -0.7141  0.2130
 2299TIP3    H231093   3.649   5.906  19.012 -1.5943 -1.7542 -0.8354
 2300TIP3   OH231094   5.779   2.445  18.607 -0.2187  0.2536 -0.1276
 2300TIP3    H131095   5.764   2.454  18.701 -0.9091 -2.2228  0.0571
 2300TIP3    H231096   5.698   2.476  18.567 -0.4152  0.1080  0.1578
 2301TIP3   OH231097   4.835   0.431  18.912 -0.4785  0.1363 -0.2117
 2301TIP3    H131098   4.892   0.504  18.937 -0.3589 -0.1488  0.3670
 2301TIP3    H231099   4.782   0.466  18.841 -2.0698  1.5784  1.5687
 2302TIP3   OH231100   2.181   1.057  21.003  0.0125 -0.5508 -0.2124
 2302TIP3    H131101   2.237   1.129  21.032 -0.6914  0.0119 -0.2343
 2302TIP3    H231102   2.101   1.100  20.973  0.4321 -1.1336 -2.3413
 2303TIP3   OH231103   3.823   1.096  19.730 -0.6060 -0.1179  0.1406
 2303TIP3    H131104   3.750   1.079  19.671 -0.0496  0.6436 -0.8045
 2303TIP3    H231105   3.836   1.191  19.724  1.0684 -0.3540 -0.4894
 2304TIP3   OH231106   3.199   5.029  18.052  0.7109 -0.1550  0.1053
 2304TIP3    H131107   3.205   4.942  18.012  0.7104 -0.1867  0.1743
 2304TIP3    H231108   3.281   5.072  18.028 -0.0685  0.5081 -1.5335
 2305TIP3   OH231109   1.594   4.994  18.923  0.0412 -0.3324  0.2696
 2305TIP3    H131110   1.514   5.010  18.873 -1.2214 -0.0923  2.2582
 2305TIP3    H231111   1.661   4.977  18.856 -1.5337 -0.0410 -1.4711
 2306TIP3   OH231112   4.664   2.546  18.004 -0.2698 -0.0233 -0.4282
 2306TIP3    H131113   4.582   2.506  17.973  0.8974 -1.6681 -1.5242
 2306TIP3    H231114   4.674   2.624  17.949  0.2945 -1.3524 -2.3255
 2307TIP3   OH231115   6.363   6.156  19.367 -0.6713  0.7849  0.4501
 2307TIP3    H131116   6.292   6.094  19.383  0.7637 -1.1264 -0.1512
 2307TIP3    H231117   6.373   6.157  19.272  0.5597  0.4213  0.5527
 2308TIP3   OH231118   3.698   2.264  19.930 -0.0992  0.0501  0.2685
 2308TIP3    H131119   3.774   2.219  19.892  0.0624  0.9703 -0.5598
 2308TIP3    H231120   3.623   2.212  19.902  0.0642  0.4064 -0.8931
 2309TIP3   OH231121   4.922   3.717  19.397  0.0600  0.9671  0.1932
 2309TIP3    H131122   4.944   3.687  19.308 -0.4966 -0.5247  0.5294
 2309TIP3    H231123   4.927   3.638  19.451 -1.4496  1.4702  1.1425
 2310TIP3   OH231124   5.863   2.142  18.541  0.0571 -0.4993  0.0955
 2310TIP3    H131125   5.887   2.233  18.528 -0.5903 -0.2720  0.4428
 2310TIP3    H231126   5.827   2.114  18.457  2.5773 -1.2027 -0.8228
 2311TIP3   OH231127   3.746   6.452  17.805 -0.3837 -0.1710 -0.2012
 2311TIP3    H131128   3.758   6.366  17.763 -0.4874 -0.2586 -0.0553
 2311TIP3    H231129   3.654   6.474  17.789 -0.0650  0.4636 -1.2619
 2312TIP3   OH231130   1.066   5.687  20.540 -0.1732 -0.4719 -0.1184
 2312TIP3    H131131   1.025   5.643  20.465 -2.9565  0.7199  0.5918
 2312TIP3    H231132   1.122   5.620  20.579 -0.7514 -1.9470 -1.7049
 2313TIP3   OH231133   0.412   4.731  21.046  0.6855 -0.0557  0.2327
 2313TIP3    H131134   0.370   4.794  20.988 -0.9670 -1.5077 -0.2400
 2313TIP3    H231135   0.499   4.767  21.063  0.6885  1.1148 -1.9858
 2314TIP3   OH231136   5.754   2.303  20.579 -0.5090  0.1422 -0.2450
 2314TIP3    H131137   5.806   2.376  20.613  1.6972 -1.7050  0.6351
 2314TIP3    H231138   5.763   2.310  20.484  1.2768 -0.0138 -0.1188
 2315TIP3   OH231139   1.988   5.168  18.474  0.4959  0.7232  0.1138
 2315TIP3    H131140   2.046   5.194  18.403  1.1291  0.2711  0.4625
 2315TIP3    H231141   1.900   5.190  18.441  0.6132 -0.9503 -1.4744
 2316TIP3   OH231142   4.000   0.745  18.136 -0.1808 -0.2102 -0.4906
 2316TIP3    H131143   3.904   0.745  18.135 -0.2093 -1.7762 -1.3326
 2316TIP3    H231144   4.024   0.790  18.055 -0.2956 -2.0879 -1.6407
 2317TIP3   OH231145   5.391   1.955  19.381 -0.5535 -0.1678  0.5978
 2317TIP3    H131146   5.350   1.912  19.456 -1.0342 -2.2047 -0.7466
 2317TIP3    H231147   5.366   1.901  19.306  0.9864  1.0484 -0.8617
 2318TIP3   OH231148   0.884   5.375  20.153 -0.2695  0.1866 -0.4436
 2318TIP3    H131149   0.831   5.432  20.097 -0.5355  1.8255  1.3607
 2318TIP3    H231150   0.974   5.402  20.136 -0.3639  0.8441  0.0311
 2319TIP3   OH231151   4.319   1.092  19.459 -0.2050 -0.9937 -0.1206
 2319TIP3    H131152   4.370   1.082  19.379 -0.4693  1.0026 -0.5873
 2319TIP3    H231153   4.268   1.011  19.466 -0.7000 -0.9221 -2.3606
 2320TIP3   OH231154   0.389   3.476  18.788 -0.4537 -0.4678 -0.6234
 2320TIP3    H131155   0.400   3.404  18.850 -0.0429  0.4502  0.4057
 2320TIP3    H231156   0.471   3.477  18.738  1.3984  1.7593  2.1058
 2321TIP3   OH231157   1.309   1.662  18.388  0.7255 -0.0191 -0.4941
 2321TIP3    H131158   1.252   1.677  18.464  0.8048  1.5879 -0.7029
 2321TIP3    H231159   1.331   1.751  18.358  0.2857 -0.5991 -2.7039
 2322TIP3   OH231160   2.790   5.305  19.478 -0.8659 -0.2186 -0.0758
 2322TIP3    H131161   2.776   5.396  19.503  0.7093  0.3554 -1.0885
 2322TIP3    H231162   2.878   5.304  19.438 -0.5603 -2.3033  0.5013
 2323TIP3   OH231163   2.652   3.105  20.280 -0.1200  0.4768 -0.4580
 2323TIP3    H131164   2.597   3.063  20.213 -0.3163 -0.7626  0.4619
 2323TIP3    H231165   2.715   3.038  20.305  0.9378  1.4413 -0.4872
 2324TIP3   OH231166   2.111   1.069  20.670 -0.1525  0.2252 -0.0267
 2324TIP3    H131167   2.079   1.157  20.652  0.5405  0.4983  0.0673
 2324TIP3    H231168   2.065   1.014  20.607  0.9649  0.9433 -1.5274
 2325TIP3   OH231169   0.735   2.010  20.712 -0.3024  0.1206  0.3449
 2325TIP3    H131170   0.805   2.059  20.755  0.9443 -1.8412  0.7088
 2325TIP3    H231171   0.664   2.008  20.775 -0.7725  2.2080 -0.0512
 2326TIP3   OH231172   5.183   5.681  20.907  0.2900 -0.2133  0.3542
 2326TIP3    H131173   5.157   5.773  20.897  1.4390  0.0244 -0.7369
 2326TIP3    H231174   5.119   5.632  20.855  0.0641  0.0338  0.3978
 2327TIP3   OH231175   4.334   4.700  20.385  0.4147  0.3768  0.1077
 2327TIP3    H131176   4.422   4.713  20.351  0.0059 -0.7864 -1.5047
 2327TIP3    H231177   4.303   4.788  20.406  1.1663  1.0396 -1.3989
 2328TIP3   OH231178   0.784   1.205  20.800 -0.1431 -0.2971 -0.0393
 2328TIP3    H131179   0.816   1.228  20.887  0.1823  0.0940 -0.2541
 2328TIP3    H231180   0.837   1.258  20.741 -0.8878  0.0215 -0.4363
 2329TIP3   OH231181   2.727   2.081   9.532 -0.3256 -0.0305  0.2977
 2329TIP3    H131182   2.763   2.022   9.466 -3.9122 -0.6536 -1.3405
 2329TIP3    H231183   2.742   2.168   9.497 -3.1134 -0.3539 -2.1898
 2330TIP3   OH231184   5.321   2.442  20.731  0.1039  0.1124 -0.5475
 2330TIP3    H131185   5.303   2.535  20.724  1.8797  0.5965  0.7065
 2330TIP3    H231186   5.235   2.402  20.745 -0.6880  1.5265 -1.2563
 2331TIP3   OH231187   3.284   6.143  20.166  0.1773  0.2083 -0.2463
 2331TIP3    H131188   3.325   6.070  20.212  0.0779  0.6689  0.5823
 2331TIP3    H231189   3.357   6.200  20.141  0.0780  1.0741  1.3067
 2332TIP3   OH231190   6.030   6.161  18.767 -0.6573  0.0023  0.2894
 2332TIP3    H131191   6.076   6.244  18.782 -1.7444  0.5657  0.6376
 2332TIP3    H231192   6.029   6.151  18.672 -1.5686  1.0393  0.1600
 2333TIP3   OH231193   4.492   2.905  21.158 -0.4794 -0.0829  0.1976
 2333TIP3    H131194   4.511   2.935  21.247  0.7563  0.0289 -0.0945
 2333TIP3    H231195   4.575   2.910  21.112 -1.1969  0.2791 -1.1055
 2334TIP3   OH231196   4.230   5.577  21.132  0.1964 -0.1379 -0.3115
 2334TIP3    H131197   4.249   5.635  21.058  4.7540 -0.8529  0.0158
 2334TIP3    H231198   4.225   5.636  21.208 -0.0286  0.2188 -0.6009
 2335TIP3   OH231199   5.369   2.959  17.818 -0.8062  0.0810 -0.1812
 2335TIP3    H131200   5.448   3.006  17.844  0.4162 -2.0000  0.0738
 2335TIP3    H231201   5.335   3.008  17.743  0.6619  1.0750 -0.2276
 2336TIP3   OH231202   4.981   5.818  19.635 -0.1104  0.2033  0.3357
 2336TIP3    H131203   4.992   5.908  19.605 -0.4036 -0.4640 -1.9920
 2336TIP3    H231204   4.969   5.826  19.729  2.9267  2.3191  0.6980
 2337TIP3   OH231205   4.423   3.311  18.342  0.4660 -0.1505  0.3026
 2337TIP3    H131206   4.379   3.352  18.417  0.0195 -0.5750  0.2736
 2337TIP3    H231207   4.488   3.376  18.314  0.2510  0.2416  0.7053
 2338TIP3   OH231208   3.393   5.695  19.873  0.2274 -0.3538 -0.2205
 2338TIP3    H131209   3.424   5.719  19.786 -1.4079 -0.8123 -0.9576
 2338TIP3    H231210   3.393   5.599  19.874 -2.1096 -0.4089 -0.6486
 2339TIP3   OH231211   2.723   2.858  17.700 -0.6894 -0.0222  0.6837
 2339TIP3    H131212   2.776   2.932  17.729 -0.1362 -1.1478  2.7808
 2339TIP3    H231213   2.633   2.890  17.704 -0.3277  1.4534 -1.4882
 2340TIP3   OH231214   1.432   3.730  18.837  0.7429  0.2821 -0.0719
 2340TIP3    H131215   1.475   3.774  18.763  0.3372  0.6632 -0.0878
 2340TIP3    H231216   1.383   3.800  18.881  0.8871  0.0347  0.4907
 2341TIP3   OH231217   0.555   6.359  18.066  0.1636  0.4433 -0.1859
 2341TIP3    H131218   0.648   6.339  18.079 -0.0285 -0.7420 -0.5232
 2341TIP3    H231219   0.546   6.450  18.095  1.8924  1.3920 -2.2676
 2342TIP3   OH231220   1.681   2.889  20.293 -0.8222 -0.1753  0.1761
 2342TIP3    H131221   1.721   2.828  20.230  0.0360  2.0861 -1.6080
 2342TIP3    H231222   1.714   2.861  20.378  0.7006 -1.3047 -0.7382
 2343TIP3   OH231223   2.406   2.516  18.579 -0.1741 -0.2830 -0.2498
 2343TIP3    H131224   2.336   2.450  18.584  0.0916 -0.4923  2.3525
 2343TIP3    H231225   2.362   2.596  18.551 -1.3400 -0.6248  0.5180
 2344TIP3   OH231226   2.609   1.994  18.352 -0.4513 -0.1447  0.3520
 2344TIP3    H131227   2.605   1.981  18.257 -0.8460 -0.5803  0.4266
 2344TIP3    H231228   2.587   2.087  18.364  0.7264  0.2050 -0.0585
 2345TIP3   OH231229   2.645   5.121  20.519 -0.6141 -0.5602  0.7378
 2345TIP3    H131230   2.604   5.073  20.591 -0.7163 -1.2266  0.2473
 2345TIP3    H231231   2.589   5.198  20.507 -0.7101 -0.5493  1.2351
 2346TIP3   OH231232   1.196   1.573  20.515  0.1235  0.0532 -0.5787
 2346TIP3    H131233   1.147   1.592  20.595 -0.1986  0.4544 -0.8662
 2346TIP3    H231234   1.158   1.491  20.483  1.0194 -0.7207  0.2737
 2347TIP3   OH231235   6.359   2.936  19.791  0.0490 -0.4545 -0.1050
 2347TIP3    H131236   6.391   2.856  19.832 -0.2755 -0.0976  0.8529
 2347TIP3    H231237   6.402   3.006  19.839  2.0257 -0.0222 -2.2726
 2348TIP3   OH231238   4.588   5.360  18.476 -0.3496  0.5543 -0.2051
 2348TIP3    H131239   4.595   5.267  18.451  3.0150  0.2553  1.2725
 2348TIP3    H231240   4.602   5.408  18.394  1.0695 -0.3099 -0.5017
 2349TIP3   OH231241   2.830   5.229  20.719  0.1446 -0.1407  0.1605
 2349TIP3    H131242   2.767   5.234  20.646 -1.1038 -0.7934  1.1444
 2349TIP3    H231243   2.877   5.312  20.716 -0.5875  0.2633 -0.7761
 2350TIP3   OH231244   2.453   0.430  18.481 -0.0297 -0.2494 -0.2468
 2350TIP3    H131245   2.540   0.455  18.514 -0.1273  0.3454 -0.4289
 2350TIP3    H231246   2.420   0.510  18.440  0.4024 -1.1508 -2.4865
 2351TIP3   OH231247   3.057   2.334  20.021 -0.2556 -0.3041 -0.2271
 2351TIP3    H131248   3.050   2.405  19.958  2.5429 -0.3365 -0.6913
 2351TIP3    H231249   3.027   2.372  20.104 -1.3353  0.5703 -0.9941
 2352TIP3   OH231250   5.684   0.320  20.802 -0.2279  0.0530 -0.0227
 2352TIP3    H131251   5.699   0.231  20.770 -0.1507  0.4284 -1.1011
 2352TIP3    H231252   5.631   0.361  20.733  0.4598  1.0866  0.0334
 2353TIP3   OH231253   3.230   4.833  17.541 -0.3817  0.1460 -0.6360
 2353TIP3    H131254   3.137   4.812  17.554 -1.0416  0.2303 -4.1385
 2353TIP3    H231255   3.248   4.902  17.605 -2.5206 -0.3260  0.5807
 2354TIP3   OH231256   3.849   1.434  19.775  0.2182  0.0830 -0.2152
 2354TIP3    H131257   3.905   1.373  19.823 -0.9226  0.4430  1.6710
 2354TIP3    H231258   3.766   1.432  19.822  0.0516  2.8930 -0.2433
 2355TIP3   OH231259   2.444   2.868  21.508 -0.2004  0.4821  0.2117
 2355TIP3    H131260   2.515   2.808  21.529 -1.3989 -0.7297  1.0112
 2355TIP3    H231261   2.454   2.939  21.570 -0.2376 -0.1667  0.9824
 2356TIP3   OH231262   0.072   4.193  18.862 -0.3225 -0.3690  0.2289
 2356TIP3    H131263  -0.022   4.201  18.876 -0.2953 -1.0564  0.8622
 2356TIP3    H231264   0.101   4.131  18.929  0.7943  0.8788  0.9703
 2357TIP3   OH231265   5.113   1.624  20.811 -0.5250 -0.0730 -0.3071
 2357TIP3    H131266   5.071   1.560  20.868  1.1758 -2.2419 -1.3335
 2357TIP3    H231267   5.062   1.622  20.730 -1.3865  1.0684  0.1837
 2358TIP3   OH231268   0.818   1.859  19.026 -0.4634 -0.1570 -0.1930
 2358TIP3    H131269   0.898   1.807  19.024 -0.1445  0.3289 -0.4182
 2358TIP3    H231270   0.827   1.913  19.104 -0.9395 -0.6600  0.2151
 2359TIP3   OH231271   2.209   0.055  18.697 -0.6512 -0.3524 -0.4688
 2359TIP3    H131272   2.139   0.046  18.633  0.1903  0.8354 -1.6369
 2359TIP3    H231273   2.272   0.114  18.655  0.0499  0.3029  1.3745
 2360TIP3   OH231274   1.061   5.194  19.220 -0.5196 -0.1890 -0.0167
 2360TIP3    H131275   1.057   5.258  19.290  0.2966  0.6846 -0.7414
 2360TIP3    H231276   0.989   5.217  19.162 -1.1299 -0.8471  0.4644
 2361TIP3   OH231277   0.762   4.970  19.305  0.1923  0.2372 -0.0974
 2361TIP3    H131278   0.794   5.047  19.353 -1.2292  1.1353 -0.5045
 2361TIP3    H231279   0.803   4.977  19.219  0.5515  0.1773  0.0640
 2362TIP3   OH231280   4.988   1.397  20.375 -0.4343 -1.4613  0.3561
 2362TIP3    H131281   4.997   1.326  20.438 -1.4028 -2.3168 -0.4518
 2362TIP3    H231282   4.896   1.397  20.350 -0.3948 -0.1277  0.0870
 2363TIP3   OH231283   5.537   4.502  20.792 -0.5124  0.3548 -0.1376
 2363TIP3    H131284   5.612   4.498  20.732 -0.8941  2.6128 -0.8385
 2363TIP3    H231285   5.570   4.547  20.870 -1.2517  1.9621 -0.7127
 2364TIP3   OH231286   5.109   5.951  20.744 -0.3525 -0.3117  0.1173
 2364TIP3    H131287   5.198   5.975  20.719 -0.0118 -2.4111 -0.8102
 2364TIP3    H231288   5.070   5.917  20.664 -2.1773  0.9682  0.3985
 2365TIP3   OH231289   2.509   3.964  21.094 -0.4316  0.5743  0.3770
 2365TIP3    H131290   2.476   3.941  21.008  1.5015 -0.6198 -0.1033
 2365TIP3    H231291   2.589   4.014  21.077  0.6246 -0.6761  1.4125
 2366TIP3   OH231292   4.211   4.941  21.401 -0.2102  0.2477  0.8537
 2366TIP3    H131293   4.221   4.949  21.496  0.8359 -0.4466  0.8182
 2366TIP3    H231294   4.139   5.000  21.380  0.1025  1.0638  1.9641
 2367TIP3   OH231295   0.938   3.965  19.063  0.0437  0.8070  0.6876
 2367TIP3    H131296   0.980   4.012  18.991 -0.3159 -0.0709 -0.1231
 2367TIP3    H231297   0.846   3.959  19.039 -0.2533  1.2600  1.6496
 2368TIP3   OH231298   5.372   2.234  20.543  0.2624  0.3749 -0.2639
 2368TIP3    H131299   5.459   2.206  20.571 -0.9562 -2.5044  0.9608
 2368TIP3    H231300   5.349   2.305  20.604  0.3634 -1.2855  1.8118
 2369TIP3   OH231301   6.348   5.037  20.586  0.1805  0.3076  0.3458
 2369TIP3    H131302   6.257   5.042  20.615  0.5234 -0.3863  1.6491
 2369TIP3    H231303   6.393   5.107  20.634  0.4779  0.1360  0.3223
 2370TIP3   OH231304   1.983   0.135  21.192 -0.6978 -0.3975  0.5909
 2370TIP3    H131305   2.008   0.191  21.265 -1.1857  1.8011 -0.8585
 2370TIP3    H231306   2.059   0.135  21.134 -1.3270  0.1988 -0.2476
 2371TIP3   OH231307   2.357   0.208  18.307 -0.5916 -0.0343 -0.1783
 2371TIP3    H131308   2.285   0.270  18.316 -0.8401 -0.5668  2.0376
 2371TIP3    H231309   2.407   0.218  18.388  1.5376 -0.0777 -1.4161
 2372TIP3   OH231310   2.447   4.236  18.795 -0.0921  0.5735  0.8960
 2372TIP3    H131311   2.433   4.141  18.789 -1.1733  0.8153 -2.0745
 2372TIP3    H231312   2.400   4.262  18.874 -3.3258 -0.8733 -0.3820
 2373TIP3   OH231313   0.833   1.800  20.066  0.1794 -0.0381 -0.9872
 2373TIP3    H131314   0.776   1.798  20.143  2.2773 -1.2006  0.6451
 2373TIP3    H231315   0.798   1.733  20.008 -1.4792  0.9068 -1.1409
 2374TIP3   OH231316   5.775   1.995  20.079  0.5413 -0.1251  0.3328
 2374TIP3    H131317   5.833   1.997  20.156  1.5117 -0.6658 -0.3531
 2374TIP3    H231318   5.708   1.930  20.100  1.8828 -1.6824  0.0151
 2375TIP3   OH231319   4.824   0.270  19.737  0.5095  0.3050 -0.1298
 2375TIP3    H131320   4.874   0.349  19.759  0.8205 -0.2771  1.3970
 2375TIP3    H231321   4.874   0.198  19.776 -0.2290 -0.5619 -0.7251
 2376TIP3   OH231322   0.783   0.651  20.836  0.3218  0.2821  0.2352
 2376TIP3    H131323   0.807   0.604  20.756  0.4596 -1.8488  1.4506
 2376TIP3    H231324   0.840   0.728  20.836  0.5898  0.1371 -1.5033
 2377TIP3   OH231325   5.436   5.096  18.430 -0.1376  0.5852 -0.2729
 2377TIP3    H131326   5.497   5.158  18.470  0.4936  0.9625 -1.7553
 2377TIP3    H231327   5.484   5.060  18.355 -0.4512 -1.7771  0.5790
 2378TIP3   OH231328   5.934   3.448  18.633  0.3099 -0.0248  0.5091
 2378TIP3    H131329   6.015   3.416  18.593  0.3116  1.5127 -0.8090
 2378TIP3    H231330   5.865   3.395  18.595  0.5305 -0.0858  0.1951
 2379TIP3   OH231331   5.105   2.163  18.182 -0.2341  0.1226  0.4902
 2379TIP3    H131332   5.075   2.154  18.272 -0.4541  1.5306  0.5949
 2379TIP3    H231333   5.040   2.115  18.130 -0.7911  0.3156  0.9947
 2380TIP3   OH231334   4.595   5.965  18.423  0.0948  0.6395 -0.2018
 2380TIP3    H131335   4.657   5.898  18.392  0.8656  0.7983  0.9016
 2380TIP3    H231336   4.512   5.942  18.381  0.5290 -0.5304 -0.4840
 2381TIP3   OH231337   2.537   2.161  20.225 -0.6584  0.2267 -0.4299
 2381TIP3    H131338   2.449   2.125  20.237 -0.2447 -1.0275 -0.8733
 2381TIP3    H231339   2.587   2.087  20.188  0.1143  1.4326 -1.9278
 2382TIP3   OH231340   1.144   5.882  19.885  0.2979  0.4461 -0.1611
 2382TIP3    H131341   1.160   5.924  19.800  1.3926 -0.3357 -0.3537
 2382TIP3    H231342   1.049   5.885  19.895 -0.0543 -1.2700 -2.3568
 2383TIP3   OH231343   4.651   3.988  20.229  0.2773  0.5312  0.3989
 2383TIP3    H131344   4.709   3.970  20.155 -0.1182  0.4260  0.1092
 2383TIP3    H231345   4.568   4.015  20.188  0.1034  0.6173  0.8059
 2384TIP3   OH231346   3.488   0.588  20.930 -0.3305  0.0240 -0.8222
 2384TIP3    H131347   3.433   0.510  20.936  0.4470 -0.5474 -0.9882
 2384TIP3    H231348   3.477   0.619  20.840 -0.6624  0.1332 -0.7471
 2385TIP3   OH231349   2.583   0.152  20.347 -0.4413 -0.0436 -0.1824
 2385TIP3    H131350   2.590   0.068  20.301  1.5975  0.8851 -1.7429
 2385TIP3    H231351   2.528   0.133  20.423  0.7347 -3.0499  0.0852
 2386TIP3   OH231352   2.663   5.489  20.145  0.8862 -0.3833 -0.7354
 2386TIP3    H131353   2.705   5.470  20.229  0.6234 -0.0353 -0.5230
 2386TIP3    H231354   2.575   5.518  20.168  0.3895 -1.4792 -1.1915
 2387TIP3   OH231355   1.364   1.700  19.464  0.0224  0.4830 -0.1394
 2387TIP3    H131356   1.417   1.725  19.389 -0.1038  0.9520 -0.0757
 2387TIP3    H231357   1.276   1.685  19.429  0.1349 -0.0398 -0.2027
 2388TIP3   OH231358   5.746   4.859  20.319 -0.1931  0.1543  0.3177
 2388TIP3    H131359   5.805   4.831  20.250 -0.9332 -1.5284  0.3292
 2388TIP3    H231360   5.803   4.880  20.393  0.4520 -0.5256  0.0190
 2389TIP3   OH231361   0.199   2.639  18.740 -0.3292 -0.3532 -0.1510
 2389TIP3    H131362   0.287   2.644  18.703 -0.5254 -0.0991 -0.5887
 2389TIP3    H231363   0.152   2.579  18.682 -0.6879  0.1796 -0.4212
 2390TIP3   OH231364   5.134   2.929  17.957  0.2097  0.4220  0.0720
 2390TIP3    H131365   5.142   2.919  18.052  0.2939  1.2640  0.1551
 2390TIP3    H231366   5.221   2.910  17.923 -0.1255 -1.2009  0.0332
 2391TIP3   OH231367   0.754   0.823  18.364 -0.0267  0.6079  0.4162
 2391TIP3    H131368   0.840   0.803  18.400 -0.1696 -0.5395  0.1560
 2391TIP3    H231369   0.748   0.770  18.285 -1.1982  0.2295  0.7362
 2392TIP3   OH231370   0.982   1.525  19.038 -0.1187  0.1219  0.3592
 2392TIP3    H131371   0.895   1.518  18.998  0.5539  0.8392 -1.3185
 2392TIP3    H231372   0.977   1.604  19.092  0.0808  1.3943 -1.4052
 2393TIP3   OH231373   1.004   6.358  18.643  0.4565 -0.1934  0.1328
 2393TIP3    H131374   1.009   6.267  18.672  2.2910 -0.3017 -0.3978
 2393TIP3    H231375   1.049   6.359  18.558 -0.5050  1.0155 -0.4002
 2394TIP3   OH231376   3.705   5.215  21.008 -0.3041 -0.1928  0.2708
 2394TIP3    H131377   3.701   5.123  20.981 -1.4154  0.1082 -0.6513
 2394TIP3    H231378   3.646   5.221  21.083 -1.1583 -0.0201 -0.3920
 2395TIP3   OH231379   0.035   5.837  20.319 -0.8498 -0.0919  0.5182
 2395TIP3    H131380   0.080   5.878  20.245 -1.0289 -1.3813 -0.3395
 2395TIP3    H231381   0.070   5.748  20.322 -0.2777  0.1609  2.5053
 2396TIP3   OH231382   0.111   3.844  20.723 -0.0410 -0.0898 -0.4072
 2396TIP3    H131383   0.041   3.870  20.784  1.6850  3.3971  0.3582
 2396TIP3    H231384   0.190   3.881  20.762  1.6666 -0.7028 -3.1036
 2397TIP3   OH231385   3.386   0.628  17.809 -0.8416 -0.0346 -0.6723
 2397TIP3    H131386   3.423   0.713  17.834  0.0171 -0.6379  0.1934
 2397TIP3    H231387   3.457   0.566  17.824 -1.5405 -0.9447 -1.0379
 2398TIP3   OH231388   5.176   5.218  20.557  0.2860  0.3335 -0.3183
 2398TIP3    H131389   5.154   5.265  20.476 -1.1105  1.4231  0.6533
 2398TIP3    H231390   5.128   5.265  20.625  1.2529 -0.7126  1.1188
 2399TIP3   OH231391   6.313   0.421  18.034  0.2540 -1.3322  0.2000
 2399TIP3    H131392   6.309   0.508  17.994  2.2981 -1.4074 -0.3104
 2399TIP3    H231393   6.229   0.380  18.012  0.6822 -0.8531 -2.9141
 2400TIP3   OH231394   1.832   3.034  17.714 -0.1057  0.9438  0.0819
 2400TIP3    H131395   1.867   2.955  17.673 -0.3827 -0.3259  2.1541
 2400TIP3    H231396   1.844   3.102  17.648  1.1976 -0.5730 -1.3433
 2401TIP3   OH231397   1.502   5.477  20.196  0.0547  0.5677  0.6432
 2401TIP3    H131398   1.450   5.524  20.130  0.5848  1.0077  0.5365
 2401TIP3    H231399   1.518   5.391  20.156 -1.9448 -0.1825  1.3393
 2402TIP3   OH231400   0.002   0.189  20.864 -0.1068  0.8246  0.7282
 2402TIP3    H131401  -0.035   0.218  20.781  1.3032 -0.1738 -0.3087
 2402TIP3    H231402  -0.042   0.106  20.883 -1.2581  1.6012  1.6201
 2403TIP3   OH231403   3.287   4.777  17.964 -0.2247  0.3472 -0.1897
 2403TIP3    H131404   3.330   4.709  18.017  0.9961  0.8397 -0.5292
 2403TIP3    H231405   3.350   4.798  17.896  0.4715  3.5184  1.2605
 2404TIP3   OH231406   2.791   3.875  18.060 -0.5486  0.0405  0.7464
 2404TIP3    H131407   2.771   3.836  17.975 -0.1328 -1.1488  1.1828
 2404TIP3    H231408   2.886   3.885  18.060 -0.5742  0.3089  0.9647
 2405TIP3   OH231409   3.150   2.163  18.005 -0.1078 -0.1030 -0.5267
 2405TIP3    H131410   3.153   2.073  17.971  0.4202  0.0378 -0.8733
 2405TIP3    H231411   3.102   2.212  17.939 -0.6328 -0.1810 -0.2060
 2406TIP3   OH231412   6.460   4.136  19.008 -0.3324  0.1151  0.0925
 2406TIP3    H131413   6.480   4.224  19.040 -0.3034 -0.0563  0.5494
 2406TIP3    H231414   6.468   4.080  19.085  3.1062 -0.8671 -0.7927
 2407TIP3   OH231415   1.643   5.536  19.572 -0.6210  0.1511 -0.8833
 2407TIP3    H131416   1.691   5.584  19.504 -0.6033  1.3680 -0.0370
 2407TIP3    H231417   1.653   5.589  19.651  0.2032 -1.7531  0.3522
 2408TIP3   OH231418   4.370   0.856  19.753 -0.2885 -0.5828 -0.5614
 2408TIP3    H131419   4.396   0.934  19.702  0.4455 -0.0537  0.5969
 2408TIP3    H231420   4.401   0.874  19.841  0.1008 -2.3203 -0.3252
 2409TIP3   OH231421   5.101   0.640  20.946  0.0479 -0.1781 -0.7506
 2409TIP3    H131422   5.020   0.590  20.944  0.2311 -0.5630  0.7732
 2409TIP3    H231423   5.138   0.625  21.033  0.2413  2.3966 -0.2947
 2410TIP3   OH231424   2.249   2.518  20.356  0.1500 -0.0157  0.2064
 2410TIP3    H131425   2.241   2.473  20.441  1.2960  0.8034  0.7702
 2410TIP3    H231426   2.336   2.492  20.324  0.2238  0.6416 -0.1368
 2411TIP3   OH231427   1.913   6.041  20.107 -0.0607 -0.5407 -0.0609
 2411TIP3    H131428   1.900   5.993  20.189  0.1533 -0.5182 -0.0137
 2411TIP3    H231429   1.975   5.988  20.058 -0.5963 -0.8322 -0.4408
 2412TIP3   OH231430   3.659   1.793  20.170 -0.3628  0.0983  0.6157
 2412TIP3    H131431   3.732   1.752  20.124 -1.2221 -0.5343 -0.2254
 2412TIP3    H231432   3.694   1.814  20.257  0.6393 -0.7314  0.4301
 2413TIP3   OH231433   0.066   1.517  19.053  0.6492 -0.2886 -0.2484
 2413TIP3    H131434   0.142   1.545  19.104  0.4920 -0.0296 -0.1563
 2413TIP3    H231435   0.026   1.599  19.021 -1.6136 -0.1116  2.5849
 2414TIP3   OH231436   5.549   2.295  19.094  0.2720 -0.4285 -0.3658
 2414TIP3    H131437   5.482   2.351  19.054  0.8459 -1.0789 -2.3165
 2414TIP3    H231438   5.615   2.285  19.026  1.1598 -1.8138  0.6784
 2415TIP3   OH231439   5.572   3.586  19.406 -0.2003 -0.3512  0.0989
 2415TIP3    H131440   5.583   3.672  19.365  0.7032 -0.3791  0.2624
 2415TIP3    H231441   5.560   3.605  19.499  1.6795 -0.4650  0.3893
 2416TIP3   OH231442   5.103   4.152  19.248  0.2473 -0.0437  0.1327
 2416TIP3    H131443   5.035   4.089  19.228 -0.9499  1.0736  0.5216
 2416TIP3    H231444   5.106   4.155  19.344  0.0786  0.6795  0.1255
 2417TIP3   OH231445   5.542   1.952  18.950 -0.3453 -0.1621 -0.3819
 2417TIP3    H131446   5.571   1.919  19.035 -0.5004 -2.5654 -1.1751
 2417TIP3    H231447   5.513   2.041  18.967 -0.0735 -0.4715  2.0118
 2418TIP3   OH231448   5.592   2.876  20.750  0.1353 -0.0694 -0.3219
 2418TIP3    H131449   5.635   2.881  20.836  0.3664  2.2098 -0.4969
 2418TIP3    H231450   5.653   2.827  20.696  1.3266  0.8690  0.1222
 2419TIP3   OH231451   2.391   5.839  19.299  0.2593 -0.1610  0.1806
 2419TIP3    H131452   2.478   5.822  19.263  1.1100 -0.7454  2.3366
 2419TIP3    H231453   2.408   5.879  19.384 -1.6387  1.5151 -0.1452
 2420TIP3   OH231454   6.087   5.525  20.901  0.0283 -0.2206 -0.1404
 2420TIP3    H131455   6.155   5.483  20.954  0.3051  0.8885  0.4235
 2420TIP3    H231456   6.125   5.609  20.876 -0.7875  0.0225 -0.5954
 2421TIP3   OH231457   2.584   2.758  19.550 -0.0530 -0.1066  0.2228
 2421TIP3    H131458   2.651   2.691  19.559 -0.2984 -0.3448  0.2921
 2421TIP3    H231459   2.633   2.840  19.538  0.2336 -0.3837 -0.4881
 2422TIP3   OH231460   6.439   1.834  20.867  0.1909 -0.6041  0.0524
 2422TIP3    H131461   6.498   1.907  20.846 -0.2063 -0.2100  0.2747
 2422TIP3    H231462   6.356   1.858  20.825 -0.7221  0.3646  2.2534
 2423TIP3   OH231463   0.433   2.992  19.976  0.2596 -0.0124  0.0079
 2423TIP3    H131464   0.376   2.991  20.053 -1.0300  2.5688 -0.7868
 2423TIP3    H231465   0.375   3.010  19.902  1.7842  0.2926 -1.1843
 2424TIP3   OH231466   1.370   5.164  18.801 -0.9875  0.1416  0.0950
 2424TIP3    H131467   1.352   5.155  18.895 -1.1319  0.5892  0.1127
 2424TIP3    H231468   1.371   5.259  18.786  0.3895  0.1174 -0.0890
 2425TIP3   OH231469   6.349   4.659  19.186  0.1693  0.4245 -0.0862
 2425TIP3    H131470   6.307   4.628  19.266 -1.7080 -0.2178 -1.2417
 2425TIP3    H231471   6.435   4.691  19.214 -0.0014 -0.7743  1.9847
 2426TIP3   OH231472   5.609   0.269  18.895 -0.2020  0.3606 -0.4370
 2426TIP3    H131473   5.569   0.189  18.928  0.5500 -0.2765 -1.0453
 2426TIP3    H231474   5.594   0.266  18.800  0.7733  0.3951 -0.6010
 2427TIP3   OH231475   1.948   6.206  18.337  0.2837 -0.0421  0.0239
 2427TIP3    H131476   1.978   6.226  18.249  2.8400 -0.0489  0.8208
 2427TIP3    H231477   1.869   6.153  18.324  0.6241 -0.0742 -2.2361
 2428TIP3   OH231478   5.168   4.727  18.912  0.4646  0.2786  0.0624
 2428TIP3    H131479   5.159   4.821  18.929 -0.1079  0.2671 -0.1455
 2428TIP3    H231480   5.228   4.695  18.979 -0.5239  0.5156  1.0829
 2429TIP3   OH231481   0.837   3.611  21.448  0.2454 -0.3939 -0.3230
 2429TIP3    H131482   0.832   3.670  21.373  0.7371  0.3459  0.2116
 2429TIP3    H231483   0.876   3.531  21.413  0.3237 -0.1113 -0.8917
 2430TIP3   OH231484   4.026   4.760  21.281  0.1789  0.2962  0.1172
 2430TIP3    H131485   3.977   4.791  21.204 -2.0030  0.3939  1.4453
 2430TIP3    H231486   4.022   4.833  21.342 -1.2234 -0.9543  1.6265
 2431TIP3   OH231487   2.703   6.256  19.953 -0.3318  0.3811  0.5433
 2431TIP3    H131488   2.755   6.301  20.020 -1.4521  1.9464  0.4112
 2431TIP3    H231489   2.627   6.223  20.000 -0.5746  0.5011  0.2348
 2432TIP3   OH231490   0.128   5.446  18.335 -0.0977  0.0881  0.8029
 2432TIP3    H131491   0.063   5.454  18.266 -0.3500  0.7062  1.1041
 2432TIP3    H231492   0.153   5.354  18.335  1.4152  0.4187 -1.4740
 2433TIP3   OH231493   2.348   6.573  19.555 -0.9462  0.4353  0.3337
 2433TIP3    H131494   2.369   6.587  19.648 -0.0038  2.0173 -0.0764
 2433TIP3    H231495   2.388   6.648  19.510 -2.8358  0.6105 -1.1631
 2434TIP3   OH231496   4.120   2.442  17.319 -0.0616 -0.0509 -0.3380
 2434TIP3    H131497   4.072   2.507  17.369 -2.2576 -0.0374 -2.2728
 2434TIP3    H231498   4.073   2.360  17.333  1.8999 -1.0246  1.0323
 2435TIP3   OH231499   1.476   4.846  20.198 -0.5187  0.0994 -0.1561
 2435TIP3    H131500   1.481   4.842  20.294 -0.8895  3.7566  0.1595
 2435TIP3    H231501   1.388   4.816  20.177  0.3164 -3.0647  0.2852
 2436TIP3   OH231502   0.555   3.068  17.946 -0.3875 -0.0456 -0.6880
 2436TIP3    H131503   0.505   3.148  17.955 -0.8250 -0.5554  2.3383
 2436TIP3    H231504   0.630   3.079  18.005  1.1154 -0.7875 -2.3350
 2437TIP3   OH231505   0.460   0.147  19.699 -0.1184  0.2433 -0.1323
 2437TIP3    H131506   0.377   0.107  19.728 -0.8396  1.0798 -0.9573
 2437TIP3    H231507   0.486   0.093  19.624  0.0674  0.0081  0.0985
 2438TIP3   OH231508   5.457   0.937  19.162  0.1626 -0.1341  0.1562
 2438TIP3    H131509   5.427   0.849  19.184  0.7094 -0.7921 -1.5746
 2438TIP3    H231510   5.519   0.960  19.231 -0.3255 -0.9066  0.8646
 2439TIP3   OH231511   5.060   1.323  18.370 -0.0659 -0.0285  0.4916
 2439TIP3    H131512   4.967   1.346  18.359 -0.3843 -1.4071  0.1733
 2439TIP3    H231513   5.089   1.297  18.283 -0.1414 -2.2619  1.0759
 2440TIP3   OH231514   6.177   6.577  19.731  0.1992 -0.1572 -0.4930
 2440TIP3    H131515   6.248   6.635  19.703  0.0977 -0.3276 -1.1296
 2440TIP3    H231516   6.174   6.510  19.663  0.4222 -1.0013  0.3210
 2441TIP3   OH231517   2.350   3.727  19.921 -0.7751 -0.2604  0.1330
 2441TIP3    H131518   2.296   3.685  19.988 -0.7029 -2.9770 -1.3684
 2441TIP3    H231519   2.288   3.749  19.851 -0.2036 -2.3786 -1.1261
 2442TIP3   OH231520   1.930   5.665  18.990  0.4234  0.0006 -0.1605
 2442TIP3    H131521   1.863   5.625  19.045  0.0584 -1.4894 -1.5895
 2442TIP3    H231522   1.986   5.591  18.964  2.6117  1.1845  0.9439
 2443TIP3   OH231523   5.008   3.698  20.556  0.5308  0.1648 -0.2031
 2443TIP3    H131524   5.054   3.618  20.581  1.4232  0.3120 -1.2958
 2443TIP3    H231525   5.035   3.763  20.621  3.6428  0.8230 -1.9827
 2444TIP3   OH231526   3.717   2.331  20.684 -0.3838 -0.2207 -0.2168
 2444TIP3    H131527   3.734   2.237  20.688 -3.4269 -0.8224  1.8890
 2444TIP3    H231528   3.653   2.341  20.613 -2.1044 -0.2221  1.2613
 2445TIP3   OH231529   0.796   0.852  19.143 -0.8346 -0.0397 -0.2200
 2445TIP3    H131530   0.742   0.778  19.169  1.8547 -1.8872  0.5186
 2445TIP3    H231531   0.872   0.848  19.202  0.6096  1.7837 -1.8139
 2446TIP3   OH231532   4.690   0.573  20.600 -0.1574  0.0971  0.4083
 2446TIP3    H131533   4.738   0.629  20.661  0.9917 -0.5376  0.1056
 2446TIP3    H231534   4.699   0.616  20.515  1.2720 -0.8371  0.0568
 2447TIP3   OH231535   0.178   1.177  20.724  0.2806 -0.0911 -0.3535
 2447TIP3    H131536   0.145   1.243  20.785  0.6291 -0.1613 -0.0766
 2447TIP3    H231537   0.271   1.170  20.746 -0.0358 -1.7821  0.6903
 2448TIP3   OH231538   4.519   1.792  21.200 -0.1995  0.4177 -0.2414
 2448TIP3    H131539   4.556   1.875  21.229 -0.2902  0.3851 -0.0292
 2448TIP3    H231540   4.584   1.727  21.225 -0.6999  0.2785  0.7741
 2449TIP3   OH231541   4.990   0.535  20.465  0.1609 -0.3165 -0.2815
 2449TIP3    H131542   4.937   0.471  20.417  0.5268 -0.9203  0.1201
 2449TIP3    H231543   4.937   0.615  20.463 -1.2101 -1.1478  0.9085
 2450TIP3   OH231544   1.348   0.595  18.636  0.3310 -0.3313  0.2659
 2450TIP3    H131545   1.286   0.551  18.694  0.9319  0.2747  1.3990
 2450TIP3    H231546   1.300   0.671  18.603 -0.1131 -0.8411 -0.3022
 2451TIP3   OH231547   5.509   6.111  21.303 -0.4280 -0.0571 -0.2543
 2451TIP3    H131548   5.521   6.175  21.233  3.6084  0.1187  0.3385
 2451TIP3    H231549   5.553   6.149  21.379 -1.1368 -1.9650  1.2083
 2452TIP3   OH231550   4.357   5.690  18.323  0.6546  0.2655  0.3046
 2452TIP3    H131551   4.412   5.613  18.312  0.7317  0.1973  1.1254
 2452TIP3    H231552   4.273   5.655  18.352  0.8193  0.5116  1.1022
 2453TIP3   OH231553   0.640   2.467  20.070  0.2259  0.2846 -0.1644
 2453TIP3    H131554   0.617   2.523  19.996  0.6512 -0.1209 -0.6003
 2453TIP3    H231555   0.555   2.442  20.107  0.0082  0.3419 -0.6154
 2454TIP3   OH231556   2.281   4.969  17.881 -0.2965  0.4453  0.1933
 2454TIP3    H131557   2.294   5.059  17.908 -0.9156 -0.0831  2.4554
 2454TIP3    H231558   2.245   4.975  17.792  1.7334  2.2943 -0.5809
 2455TIP3   OH231559   1.677   6.208  18.015 -0.3979 -0.4607 -0.0227
 2455TIP3    H131560   1.671   6.113  18.026 -0.7179 -0.4359  0.0296
 2455TIP3    H231561   1.763   6.222  17.974 -0.7027 -0.8455 -0.8140
 2456TIP3   OH231562   1.762   2.967  18.666  0.3395  0.1640 -0.2580
 2456TIP3    H131563   1.834   2.964  18.728 -0.0977 -2.0203  0.2124
 2456TIP3    H231564   1.705   3.037  18.698  1.6019  1.0953  0.0395
 2457TIP3   OH231565   4.992   2.777  21.161  0.3336 -0.3846  0.0650
 2457TIP3    H131566   4.899   2.801  21.155  0.6963  1.7802  2.0814
 2457TIP3    H231567   4.992   2.696  21.213 -0.4758 -1.1700 -1.1081
 2458TIP3   OH231568   1.450   6.407  20.781 -0.5137  0.1409  0.1489
 2458TIP3    H131569   1.520   6.342  20.775 -0.8319 -0.4868  2.3590
 2458TIP3    H231570   1.429   6.428  20.690  0.1524 -2.2507 -0.6343
 2459TIP3   OH231571   1.356   4.412  19.685 -0.1697 -0.0836  0.0828
 2459TIP3    H131572   1.323   4.493  19.724 -2.6728 -0.4675 -1.0486
 2459TIP3    H231573   1.310   4.342  19.731 -0.0501 -0.7260 -0.7459
 2460TIP3   OH231574   4.777   1.086  20.545  0.9806  0.1309 -0.1048
 2460TIP3    H131575   4.795   1.119  20.633  0.0171 -0.9799  0.5497
 2460TIP3    H231576   4.712   1.147  20.509 -1.7565 -1.5647  1.5740
 2461TIP3   OH231577   4.137   5.330  18.710  0.1516  0.4280 -0.2440
 2461TIP3    H131578   4.127   5.290  18.624 -0.5402  0.4570 -0.1745
 2461TIP3    H231579   4.209   5.393  18.699 -1.5281  2.2459 -1.4564
 2462TIP3   OH231580   5.297   1.626  17.538 -0.2618 -0.1430 -0.2834
 2462TIP3    H131581   5.246   1.552  17.572  1.1460 -0.2183  1.8336
 2462TIP3    H231582   5.231   1.685  17.501 -1.9852 -0.1225  2.5044
 2463TIP3   OH231583   6.425   1.188  19.942 -0.0486  0.0013  0.4187
 2463TIP3    H131584   6.377   1.269  19.956  0.4697  0.5394 -0.7100
 2463TIP3    H231585   6.491   1.186  20.011  0.6314  1.1197 -0.1613
 2464TIP3   OH231586   4.371   5.937  18.258  0.1044 -0.4599 -0.3801
 2464TIP3    H131587   4.378   5.844  18.277 -1.8974 -0.5869  0.0097
 2464TIP3    H231588   4.310   5.941  18.184 -1.1472  0.5964  0.6719
 2465TIP3   OH231589   0.654   6.309  20.369  0.2896  0.5889 -0.0293
 2465TIP3    H131590   0.738   6.352  20.355  0.8372 -0.5604 -0.4124
 2465TIP3    H231591   0.602   6.372  20.419  1.6497  1.0028  0.8912
 2466TIP3   OH231592   2.227   4.677  18.614  0.5537  0.2369 -0.4339
 2466TIP3    H131593   2.251   4.650  18.525  1.2904 -0.1814 -0.1228
 2466TIP3    H231594   2.244   4.599  18.668 -3.2052 -0.7488 -0.3907
 2467TIP3   OH231595   5.481   1.495  18.967  0.0904  0.7453  0.2821
 2467TIP3    H131596   5.517   1.456  19.046  0.1833 -0.2289 -0.2328
 2467TIP3    H231597   5.554   1.543  18.928  0.2808  0.4816  0.3140
 2468TIP3   OH231598   3.803   3.462  21.218  0.3317 -0.0830 -0.0726
 2468TIP3    H131599   3.799   3.373  21.182  1.3757 -0.1283 -0.1065
 2468TIP3    H231600   3.837   3.515  21.145 -0.8157  0.4655 -0.2384
 2469TIP3   OH231601   5.918   0.960  20.988 -0.4423 -0.1181 -0.3187
 2469TIP3    H131602   5.961   0.947  21.072  0.9896  0.4058 -0.9436
 2469TIP3    H231603   5.936   1.051  20.965 -3.0784  0.5646  0.0114
 2470TIP3   OH231604   4.255   0.522  17.698  0.4919  0.7594 -0.2147
 2470TIP3    H131605   4.348   0.545  17.687  0.1278  2.2387 -0.4079
 2470TIP3    H231606   4.254   0.426  17.693  2.0583  0.6832  0.1901
 2471TIP3   OH231607   5.413   2.819  17.318 -0.0043 -0.2440  0.1911
 2471TIP3    H131608   5.376   2.822  17.406 -1.3610  0.8739 -0.3746
 2471TIP3    H231609   5.346   2.776  17.265  0.9078 -1.1481 -0.2702
 2472TIP3   OH231610   1.502   4.908  18.570 -0.1839 -0.5948  0.1665
 2472TIP3    H131611   1.528   5.000  18.570  0.2824 -0.6878 -1.3635
 2472TIP3    H231612   1.407   4.909  18.584 -0.1741  0.1151  0.1855
 2473TIP3   OH231613   1.846   2.380  17.769 -0.0587  0.6136 -0.2490
 2473TIP3    H131614   1.758   2.372  17.734 -0.3561  1.5498  0.2480
 2473TIP3    H231615   1.903   2.374  17.692 -0.6210  1.1563 -0.7189
 2474TIP3   OH231616   3.615   5.559  18.392 -0.3462  0.0682 -0.3065
 2474TIP3    H131617   3.538   5.516  18.354 -0.1556  0.2425 -0.9040
 2474TIP3    H231618   3.652   5.609  18.320 -0.4406  1.0698  0.3257
 2475TIP3   OH231619   0.602   3.336  20.323  0.1254 -0.2187  1.0122
 2475TIP3    H131620   0.643   3.296  20.400  1.6563 -1.3222 -0.3036
 2475TIP3    H231621   0.675   3.366  20.269 -0.9109  0.6380  0.0299
 2476TIP3   OH231622   0.236   1.083  19.575  0.4730 -0.3901  0.4321
 2476TIP3    H131623   0.278   1.021  19.516  0.3535  0.4211 -0.5274
 2476TIP3    H231624   0.224   1.162  19.522  0.8143  0.5280  1.6867
 2477TIP3   OH231625   6.028   0.071  19.217  0.1477  0.5770  0.1373
 2477TIP3    H131626   5.961   0.118  19.168  0.8459  0.6798 -0.7624
 2477TIP3    H231627   6.025  -0.018  19.181 -0.9035  0.0066  1.5560
 2478TIP3   OH231628   2.873   4.490  18.515  0.1775 -0.2330  0.2040
 2478TIP3    H131629   2.966   4.498  18.536  0.6340  1.5077 -2.0567
 2478TIP3    H231630   2.867   4.410  18.463  0.5591  0.0816 -0.3271
 2479TIP3   OH231631   4.645   1.391  20.405  0.2565 -0.2875 -0.1924
 2479TIP3    H131632   4.696   1.464  20.371  1.9937 -0.7733  1.2340
 2479TIP3    H231633   4.592   1.429  20.475  0.8118 -0.3062  0.2385
 2480TIP3   OH231634   5.150   1.383  17.256  0.1905 -0.2470 -0.5013
 2480TIP3    H131635   5.225   1.418  17.209 -0.9809  1.0673 -1.4762
 2480TIP3    H231636   5.105   1.328  17.191 -1.0986  1.0783 -0.7876
 2481TIP3   OH231637   2.825   3.689  18.870  0.0639  0.0313  0.5748
 2481TIP3    H131638   2.882   3.765  18.885  0.4401 -0.4670  1.7394
 2481TIP3    H231639   2.737   3.724  18.880  0.1239  0.7999 -1.1910
 2482TIP3   OH231640   1.644   0.865  19.298  0.3212 -0.0526 -0.2775
 2482TIP3    H131641   1.585   0.936  19.325 -1.5577 -1.8588  0.6052
 2482TIP3    H231642   1.732   0.901  19.311 -0.5410  2.2102 -0.1911
 2483TIP3   OH231643   4.025   1.365  18.206  0.1197  0.2829  0.1908
 2483TIP3    H131644   3.987   1.419  18.136 -0.6263  0.4728  0.7269
 2483TIP3    H231645   4.119   1.365  18.188 -0.0970  0.0296 -1.0097
 2484TIP3   OH231646   2.172   1.959  20.702 -0.5431 -0.2716 -0.4616
 2484TIP3    H131647   2.085   1.951  20.741 -1.4521  0.3796 -2.2001
 2484TIP3    H231648   2.188   1.873  20.661 -1.8298  0.5320 -2.8343
 2485TIP3   OH231649   4.919   1.636  17.894 -0.0702 -0.4066  0.1657
 2485TIP3    H131650   4.843   1.648  17.951  0.2769  0.3528  0.4826
 2485TIP3    H231651   4.902   1.692  17.818 -0.1931 -0.8553 -0.1436
 2486TIP3   OH231652   0.519   5.594  20.831 -0.1992 -0.2371  0.2381
 2486TIP3    H131653   0.612   5.572  20.838 -0.0259  0.9361  2.7419
 2486TIP3    H231654   0.518   5.684  20.800 -0.4555 -0.0597  0.7437
 2487TIP3   OH231655   2.865   6.038  21.074 -0.0150  0.1154  0.4027
 2487TIP3    H131656   2.778   6.073  21.090  0.2412  1.1183 -0.2845
 2487TIP3    H231657   2.924   6.113  21.086  0.5104  0.0763 -1.5557
 2488TIP3   OH231658   0.158   4.266  21.108 -0.1434 -0.2044  0.2042
 2488TIP3    H131659   0.222   4.195  21.120  2.1027  1.4466 -1.1460
 2488TIP3    H231660   0.207   4.346  21.128 -2.0947  1.1050  0.0223
 2489TIP3   OH231661   5.873   5.928  18.529  0.2539  0.8324  0.0997
 2489TIP3    H131662   5.896   6.003  18.474  0.4840  1.3793  0.9242
 2489TIP3    H231663   5.870   5.854  18.469  3.1757  0.8966 -0.2439
 2490TIP3   OH231664   1.028   4.068  18.817 -0.2510  0.2131  0.8758
 2490TIP3    H131665   1.068   3.999  18.763  1.1076  1.4497  0.2234
 2490TIP3    H231666   0.943   4.083  18.777 -0.8564 -1.5117  1.4260
 2491TIP3   OH231667   5.307   5.600  19.931 -0.4689 -0.2240 -0.2454
 2491TIP3    H131668   5.255   5.611  19.852 -1.3029  0.4216  0.3858
 2491TIP3    H231669   5.289   5.511  19.960  0.2363 -0.6439 -1.0448
 2492TIP3   OH231670   3.350   3.231  20.556 -0.1457  0.2164 -0.1183
 2492TIP3    H131671   3.282   3.275  20.608  0.3722  0.2677  0.5228
 2492TIP3    H231672   3.350   3.141  20.589 -1.7804 -0.5485 -1.9894
 2493TIP3   OH231673   0.965   2.834  19.269  0.4501 -0.3263  0.2459
 2493TIP3    H131674   0.884   2.885  19.264 -0.0864 -1.0113  1.4778
 2493TIP3    H231675   1.024   2.888  19.324  0.8045  0.1172 -0.5510
 2494TIP3   OH231676   0.704   2.572  19.131  0.2689 -0.0885  0.0760
 2494TIP3    H131677   0.773   2.559  19.065  0.6542 -2.5050  0.8497
 2494TIP3    H231678   0.751   2.600  19.209  0.4189 -1.6920  0.5898
 2495TIP3   OH231679   3.382   5.299  19.296 -0.0202 -0.0467  0.1430
 2495TIP3    H131680   3.305   5.318  19.349  0.5425 -1.2703  1.4643
 2495TIP3    H231681   3.419   5.220  19.335  1.4771  0.0905 -0.9249
 2496TIP3   OH231682   5.144   0.671  19.353  0.3956  0.1508  0.0825
 2496TIP3    H131683   5.136   0.648  19.446 -0.2995 -2.3187 -0.5298
 2496TIP3    H231684   5.053   0.682  19.324  0.6375  3.6185  0.2126
 2497TIP3   OH231685   5.129   2.313  19.624  0.1343 -0.2972 -0.2756
 2497TIP3    H131686   5.212   2.306  19.671 -0.0483 -0.6655 -0.0002
 2497TIP3    H231687   5.131   2.400  19.585 -0.0480  0.3350  1.0657
 2498TIP3   OH231688   4.807   0.970  20.001  0.1249 -0.2458  0.0136
 2498TIP3    H131689   4.900   0.953  19.989  0.5032  0.3416  1.7573
 2498TIP3    H231690   4.791   1.053  19.957  0.4857 -0.2302 -0.0868
 2499TIP3   OH231691   0.028   5.403  20.372  0.3057 -0.1042  0.2071
 2499TIP3    H131692  -0.042   5.446  20.422 -1.7242 -3.6459  0.7160
 2499TIP3    H231693   0.053   5.468  20.306 -1.7533  2.1792  1.4814
 2500TIP3   OH231694   5.608   5.329  19.693 -0.0229 -0.3392 -0.7298
 2500TIP3    H131695   5.645   5.349  19.779 -0.5250 -0.2635 -0.5246
 2500TIP3    H231696   5.682   5.331  19.634 -0.0128  2.2089 -0.7324
 2501TIP3   OH231697   6.570   1.418  20.548  0.1868  0.0956  0.0425
 2501TIP3    H131698   6.544   1.417  20.640 -1.9088  2.3347 -0.4300
 2501TIP3    H231699   6.489   1.399  20.500  0.3526  2.6048 -1.3939
 2502TIP3   OH231700   3.401   4.170  21.474  0.8024  0.9298 -0.1627
 2502TIP3    H131701   3.322   4.220  21.454  0.8060  1.0620  0.1565
 2502TIP3    H231702   3.374   4.079  21.471  0.5666  0.9888  0.2750
 2503TIP3   OH231703   4.226   1.606  19.148 -0.6538  0.0298 -0.6056
 2503TIP3    H131704   4.139   1.643  19.130 -0.3584 -0.4612 -3.5204
 2503TIP3    H231705   4.218   1.515  19.120  0.3602 -0.5144  0.7677
 2504TIP3   OH231706   1.838   3.254  19.761  0.3015 -0.1346  0.1954
 2504TIP3    H131707   1.748   3.234  19.788  1.4520 -2.6559  2.7263
 2504TIP3    H231708   1.847   3.213  19.675 -0.7472 -0.6219  0.3040
 2505TIP3   OH231709   0.338   3.454  19.175 -0.1817 -0.8826 -0.1704
 2505TIP3    H131710   0.243   3.450  19.183 -0.1532 -0.9993  0.1363
 2505TIP3    H231711   0.370   3.407  19.252  0.1155 -2.3172 -1.1362
 2506TIP3   OH231712   6.518   3.187  18.424  0.4004 -0.3465 -0.3468
 2506TIP3    H131713   6.541   3.273  18.457  2.2605 -1.3219  1.0623
 2506TIP3    H231714   6.460   3.150  18.490  0.4487 -0.5675 -0.4267
 2507TIP3   OH231715   4.153   1.756  20.242  0.0026  0.0312 -0.1140
 2507TIP3    H131716   4.191   1.820  20.182  0.5563  0.5469  0.7803
 2507TIP3    H231717   4.172   1.671  20.202  1.7934  0.2884  0.1325
 2508TIP3   OH231718   5.921   4.188  17.825  0.3714 -0.1250  0.2422
 2508TIP3    H131719   5.863   4.147  17.761  0.8086 -0.4784  0.0690
 2508TIP3    H231720   6.006   4.195  17.781  0.5535  0.0683  0.6101
 2509TIP3   OH231721   2.410   1.123  19.642  0.5914 -0.7066 -0.0920
 2509TIP3    H131722   2.429   1.143  19.551 -0.4417  0.4200 -0.1017
 2509TIP3    H231723   2.417   1.208  19.687 -2.6683 -0.4238  0.1438
 2510TIP3   OH231724   3.001   4.209  19.511 -0.1441  0.2209 -0.1106
 2510TIP3    H131725   3.080   4.154  19.509 -0.2337  0.0655  0.5110
 2510TIP3    H231726   2.988   4.228  19.604 -3.0235 -2.9245  0.3409
 2511TIP3   OH231727   3.117   3.704  21.128  0.2949  0.5985  0.4826
 2511TIP3    H131728   3.120   3.686  21.035 -0.5652  1.2172  0.3143
 2511TIP3    H231729   3.173   3.637  21.168  0.7826  0.4190 -0.4787
 2512TIP3   OH231730   4.102   0.204  19.312 -0.0511  0.1944  0.2242
 2512TIP3    H131731   4.115   0.154  19.392  1.4081 -1.8292 -1.1811
 2512TIP3    H231732   4.086   0.138  19.245 -1.8436  1.8629 -1.0906
 2513TIP3   OH231733   3.143   6.491  19.453 -0.3977  0.2196  0.1464
 2513TIP3    H131734   3.144   6.397  19.470  1.0736  0.0416 -0.7556
 2513TIP3    H231735   3.136   6.498  19.358  0.4045  0.9758  0.1253
 2514TIP3   OH231736   3.445   4.513  18.524 -0.7006 -0.2255  0.2001
 2514TIP3    H131737   3.446   4.591  18.579  1.3472 -0.0083 -0.0819
 2514TIP3    H231738   3.490   4.539  18.444 -1.4767 -1.2409 -0.6114
 2515TIP3   OH231739   6.265   4.185  17.986 -0.4229  0.0896  0.4676
 2515TIP3    H131740   6.326   4.157  18.054 -0.4359  0.1832  0.5190
 2515TIP3    H231741   6.208   4.249  18.030  1.4663  2.5020 -0.3654
 2516TIP3   OH231742   5.984   1.676  20.504  0.0108 -0.4924 -0.6799
 2516TIP3    H131743   5.953   1.745  20.445 -0.6549  0.1063  0.3197
 2516TIP3    H231744   6.000   1.601  20.448 -0.3475  0.1419 -1.6508
 2517TIP3   OH231745   6.604   4.586  20.791 -0.4151 -0.3145  0.2056
 2517TIP3    H131746   6.514   4.554  20.800 -1.0310  1.1855 -0.1634
 2517TIP3    H231747   6.620   4.635  20.872  0.4657 -1.4067  0.7193
 2518TIP3   OH231748   3.015   1.431  19.920  0.2292 -0.2052  0.6393
 2518TIP3    H131749   2.996   1.350  19.873 -0.5143 -0.9167  2.1198
 2518TIP3    H231750   2.986   1.415  20.010  0.1049  1.6870  0.9866
 2519TIP3   OH231751   6.610   6.542  20.285 -0.3425  0.1452  0.1175
 2519TIP3    H131752   6.556   6.545  20.206 -1.9934  0.6670  1.2163
 2519TIP3    H231753   6.547   6.543  20.357  1.1558  1.6304  1.4907
 2520TIP3   OH231754   6.220   0.653  17.965  0.3253  0.2239  0.3340
 2520TIP3    H131755   6.263   0.732  17.932 -1.1567  1.5802  1.4443
 2520TIP3    H231756   6.129   0.662  17.937  0.0323 -0.8772  0.8747
 2521TIP3   OH231757   0.573   1.553  17.872 -0.0961 -0.4192  0.2609
 2521TIP3    H131758   0.515   1.622  17.841  1.0493  0.8070  0.7645
 2521TIP3    H231759   0.515   1.490  17.914 -0.9567  1.7473  2.5742
 2522TIP3   OH231760   2.061   2.554  20.042  0.4735  0.1787 -0.6559
 2522TIP3    H131761   2.123   2.607  19.992 -0.6020  1.8299 -0.3323
 2522TIP3    H231762   1.993   2.616  20.069  0.0300 -1.0390  1.2295
 2523TIP3   OH231763   0.522   5.337  20.052 -0.2455  0.0576  0.1477
 2523TIP3    H131764   0.486   5.348  20.140 -1.6014  2.2049 -0.5873
 2523TIP3    H231765   0.445   5.335  19.995  0.6646  1.3693 -1.2032
 2524TIP3   OH231766   6.220   5.038  19.264 -0.3862  0.1791 -0.0286
 2524TIP3    H131767   6.238   5.130  19.247 -2.0376  0.3586 -1.0361
 2524TIP3    H231768   6.211   5.033  19.359  0.6965  0.8439  0.1250
 2525TIP3   OH231769   5.255   3.576  19.413 -0.5102 -0.4003  0.5068
 2525TIP3    H131770   5.218   3.597  19.327  1.0431  0.7801  0.0861
 2525TIP3    H231771   5.279   3.483  19.406 -2.6139 -0.9984  0.5504
 2526TIP3   OH231772   4.521   5.673  18.705 -0.2489 -0.6908  0.0692
 2526TIP3    H131773   4.463   5.740  18.669 -0.9432 -1.2056  0.1965
 2526TIP3    H231774   4.481   5.590  18.679 -0.9262 -1.0872  2.1732
 2527TIP3   OH231775   0.374   6.027  19.243 -0.6908  0.0124  0.6103
 2527TIP3    H131776   0.362   6.003  19.151 -0.6007  0.5276  0.4564
 2527TIP3    H231777   0.417   6.112  19.239 -0.1945 -0.2144  1.1362
 2528TIP3   OH231778   2.559   3.767  20.091  1.1156 -0.0724 -0.1607
 2528TIP3    H131779   2.529   3.850  20.129 -0.1942 -0.7516  0.3619
 2528TIP3    H231780   2.500   3.753  20.017 -0.4875 -1.8107  1.3371
 2529TIP3   OH231781   1.323   4.918  21.088  0.1976 -0.0430 -0.3538
 2529TIP3    H131782   1.340   4.860  21.163 -1.3294 -0.8944 -0.6464
 2529TIP3    H231783   1.332   4.862  21.011 -0.5972  0.2691 -0.6806
 2530TIP3   OH231784   4.303   5.745  20.923  0.2458 -0.4449 -0.4318
 2530TIP3    H131785   4.280   5.829  20.884  2.3401  0.5853  0.4277
 2530TIP3    H231786   4.346   5.768  21.005  2.1288 -2.2960 -0.8349
 2531TIP3   OH231787   6.170   2.277  19.958 -0.3810  0.1341 -0.0641
 2531TIP3    H131788   6.122   2.234  20.028 -2.0423  0.5739 -0.8872
 2531TIP3    H231789   6.191   2.207  19.896  2.5122 -0.5664  1.5246
 2532TIP3   OH231790   5.153   5.226  19.578  0.4818 -0.3597  0.1653
 2532TIP3    H131791   5.243   5.231  19.611  0.7044 -0.4441 -0.4189
 2532TIP3    H231792   5.102   5.281  19.638  1.2992  1.5574 -0.8111
 2533TIP3   OH231793   2.904   2.103  19.486 -0.5995  0.8152  0.4496
 2533TIP3    H131794   2.886   2.158  19.563  1.8390  0.2420  1.5346
 2533TIP3    H231795   2.932   2.165  19.419 -1.1483  1.1744  0.5414
 2534TIP3   OH231796   0.575   4.784  20.753  0.2689 -0.2559 -0.0452
 2534TIP3    H131797   0.490   4.746  20.732  0.2479  0.1565 -0.7110
 2534TIP3    H231798   0.622   4.713  20.798  0.1109 -0.9674 -0.9650
 2535TIP3   OH231799   4.384   3.923  19.275 -0.2448  0.8925  0.1730
 2535TIP3    H131800   4.342   3.850  19.230  0.6556  1.0347 -0.9382
 2535TIP3    H231801   4.470   3.889  19.302  0.1890  1.5214 -0.3682
 2536TIP3   OH231802   3.226   2.446  20.678 -0.4847  0.0701  0.0820
 2536TIP3    H131803   3.154   2.432  20.617  0.6389 -1.0519 -1.0622
 2536TIP3    H231804   3.253   2.537  20.664 -0.1267 -0.2199 -1.2679
 2537TIP3   OH231805   5.407   6.172  18.783 -0.2188 -0.0116 -0.0201
 2537TIP3    H131806   5.446   6.090  18.753  0.7888  0.1940  0.6934
 2537TIP3    H231807   5.479   6.235  18.783 -0.9076  0.8093 -0.2563
 2538TIP3   OH231808   2.621   1.331  19.652 -0.0571 -0.9919 -0.3321
 2538TIP3    H131809   2.692   1.270  19.636 -1.1095 -2.0552 -1.1669
 2538TIP3    H231810   2.621   1.389  19.575 -1.1866 -2.1406 -1.2435
 2539TIP3   OH231811   6.340   6.371  18.579  0.3614 -0.3253  0.2334
 2539TIP3    H131812   6.394   6.393  18.503  2.2280 -2.9546  0.6484
 2539TIP3    H231813   6.274   6.310  18.545  0.3780 -0.4807  0.4744
 2540TIP3   OH231814   4.813   1.462  21.128  0.5543 -0.3191 -0.5851
 2540TIP3    H131815   4.755   1.398  21.168  0.1186  0.5329  0.1752
 2540TIP3    H231816   4.876   1.485  21.197  1.1729 -0.4716 -1.0851
 2541TIP3   OH231817   0.160   0.518  20.034 -0.3135 -0.3482 -0.6699
 2541TIP3    H131818   0.212   0.468  19.971 -0.9976 -1.0397 -0.6934
 2541TIP3    H231819   0.073   0.523  19.996 -0.4610  0.1677 -0.2832
 2542TIP3   OH231820   5.857   4.546  19.741  0.5033 -0.1480  0.5639
 2542TIP3    H131821   5.889   4.497  19.665 -1.8999 -0.0530 -0.6236
 2542TIP3    H231822   5.819   4.479  19.798  0.8185 -0.0579  0.8805
 2543TIP3   OH231823   2.238   5.473  18.854  0.1759 -0.3117  0.0624
 2543TIP3    H131824   2.144   5.468  18.840  0.0230 -0.7299  1.1802
 2543TIP3    H231825   2.264   5.387  18.885  0.7935  0.0291  0.5323
 2544TIP3   OH231826   6.616   2.874  18.985  0.2373  0.0426  0.3648
 2544TIP3    H131827   6.529   2.850  18.951 -0.2718  0.8759  1.0455
 2544TIP3    H231828   6.652   2.791  19.017 -0.5879 -0.2112  0.6795
 2545TIP3   OH231829   4.113   5.006  19.622 -0.4710 -0.0006  0.1949
 2545TIP3    H131830   4.193   4.966  19.657 -1.6936 -0.9157  2.0546
 2545TIP3    H231831   4.067   4.935  19.578 -1.3668 -0.0483  1.1802
 2546TIP3   OH231832   0.659   6.248  21.171  0.3830 -0.4801 -0.3721
 2546TIP3    H131833   0.740   6.265  21.122  0.1703 -0.1323 -0.6121
 2546TIP3    H231834   0.687   6.242  21.262  0.6267  0.0542 -0.4087
 2547TIP3   OH231835   2.795   2.583  19.480 -0.2004 -0.1422  0.2176
 2547TIP3    H131836   2.744   2.624  19.410  0.3302  0.4363  0.1581
 2547TIP3    H231837   2.886   2.599  19.456 -0.0079 -0.0500  0.9771
 2548TIP3   OH231838   0.411   4.042  19.811  0.3629 -0.2235  0.0359
 2548TIP3    H131839   0.319   4.047  19.837  0.6024 -0.5616  0.9962
 2548TIP3    H231840   0.457   4.098  19.873  0.6429  1.1957 -1.3980
 2549TIP3   OH231841   1.710   3.883  17.884  0.0866  0.0896  0.1620
 2549TIP3    H131842   1.753   3.805  17.848 -0.6516  0.7131 -2.2281
 2549TIP3    H231843   1.684   3.934  17.808 -0.9915  1.8718  1.6281
 2550TIP3   OH231844   4.570   4.067  17.933  0.3381 -0.1676 -0.2392
 2550TIP3    H131845   4.549   4.128  17.863  1.1714  1.7471  1.0844
 2550TIP3    H231846   4.596   3.986  17.889 -1.4634  0.1708 -2.0444
 2551TIP3   OH231847   3.384   0.702  19.057  0.2437  0.1079  0.4910
 2551TIP3    H131848   3.400   0.635  19.124 -0.1620 -0.6446 -0.1439
 2551TIP3    H231849   3.365   0.652  18.977  1.2025  0.9799 -0.3137
 2552TIP3   OH231850   3.639   3.767  19.180 -0.2256 -0.7870  0.4093
 2552TIP3    H131851   3.638   3.800  19.090 -1.7395  0.5481  0.8677
 2552TIP3    H231852   3.674   3.839  19.232 -2.6961 -0.1187  1.3049
 2553TIP3   OH231853   3.013   0.634  19.353  0.1319  0.2772  0.1773
 2553TIP3    H131854   3.019   0.721  19.313 -0.1294  0.9094  1.4643
 2553TIP3    H231855   3.102   0.616  19.384  0.3116 -0.1701 -0.5662
 2554TIP3   OH231856   6.584   1.562  17.977 -0.4158  0.2649 -0.1368
 2554TIP3    H131857   6.497   1.596  17.959 -0.5845  0.5378  1.1088
 2554TIP3    H231858   6.572   1.467  17.986 -0.4002  0.1773 -0.9604
 2555TIP3   OH231859   3.256   5.504  18.205 -0.5024 -0.1312 -0.0465
 2555TIP3    H131860   3.308   5.470  18.133 -0.0193  0.2617  0.1147
 2555TIP3    H231861   3.259   5.436  18.272 -0.3458 -0.1833 -0.1087
 2556TIP3   OH231862   4.305   0.579  19.780  0.0204 -0.0487  0.1921
 2556TIP3    H131863   4.298   0.673  19.769 -0.7203 -0.0415  0.7061
 2556TIP3    H231864   4.245   0.542  19.715  1.2804 -0.2195 -0.9189
 2557TIP3   OH231865   2.214   6.434  20.574  0.1462 -0.1376  0.3099
 2557TIP3    H131866   2.174   6.380  20.507 -1.0711  1.2790 -0.1497
 2557TIP3    H231867   2.141   6.482  20.614  0.7542 -1.2486  2.9697
 2558TIP3   OH231868   6.017   2.566  20.244 -0.1084  0.8044 -0.2850
 2558TIP3    H131869   5.985   2.475  20.246 -1.6553  1.3185 -0.3062
 2558TIP3    H231870   6.112   2.558  20.249 -0.1466 -0.8754 -1.4280
 2559TIP3   OH231871   3.070   0.087  19.267 -0.0805 -0.1401 -0.1871
 2559TIP3    H131872   3.023   0.081  19.350 -0.6434 -0.2460 -0.5113
 2559TIP3    H231873   3.036   0.166  19.226  1.5388  0.9633  0.4970
 2560TIP3   OH231874   1.529   5.609  20.436 -0.5083  0.3899 -0.5251
 2560TIP3    H131875   1.535   5.572  20.348 -1.2625  0.4007 -0.5863
 2560TIP3    H231876   1.438   5.594  20.462  0.0547 -0.9270  0.8314
 2561TIP3   OH231877   3.238   2.473  18.587 -0.3195 -0.3088 -0.3731
 2561TIP3    H131878   3.237   2.539  18.517 -1.8518 -1.4014 -1.4423
 2561TIP3    H231879   3.171   2.504  18.649  0.3258  0.1225  0.1288
 2562TIP3   OH231880   3.631   5.073  20.189 -0.1922 -0.0700  0.3645
 2562TIP3    H131881   3.687   5.150  20.192 -1.2960  0.7312  1.4156
 2562TIP3    H231882   3.611   5.062  20.096 -0.5113  1.2887  0.2474
 2563TIP3   OH231883   0.378   1.262  21.020  0.2742 -0.2661  0.0191
 2563TIP3    H131884   0.382   1.250  20.925  2.8426 -0.0100  0.0062
 2563TIP3    H231885   0.457   1.312  21.041 -0.6115  0.3455  2.2247
 2564TIP3   OH231886   4.582   0.824  18.570  0.3733 -0.5104  0.5851
 2564TIP3    H131887   4.637   0.901  18.552  0.9496 -0.6169  1.7398
 2564TIP3    H231888   4.495   0.861  18.586  0.2079 -0.2890 -0.7495
 2565TIP3   OH231889   4.883   3.744  20.265 -0.5389  0.3315  0.2849
 2565TIP3    H131890   4.804   3.690  20.269 -1.6481  1.8437 -0.3421
 2565TIP3    H231891   4.918   3.741  20.355  0.7365 -3.1274 -0.1443
 2566TIP3   OH231892   5.065   5.056  19.980 -0.1488 -0.5243 -0.4104
 2566TIP3    H131893   5.075   5.027  19.889  3.2749  0.6108 -0.5635
 2566TIP3    H231894   5.075   5.152  19.976 -0.4057 -0.4076  1.0959
 2567TIP3   OH231895   3.068   2.663  21.298  0.3582  0.7237  0.2054
 2567TIP3    H131896   3.108   2.712  21.370 -0.1894 -0.0901  1.0977
 2567TIP3    H231897   3.139   2.647  21.237  0.9320  1.0844  0.7694
 2568TIP3   OH231898   5.304   4.464  20.520  0.2125 -0.2411  0.2510
 2568TIP3    H131899   5.323   4.419  20.437  1.7842  1.0471 -0.1446
 2568TIP3    H231900   5.358   4.418  20.584  1.2148  0.5378 -0.0079
 2569TIP3   OH231901   2.856   2.381  17.896 -0.3086 -0.6674 -0.0869
 2569TIP3    H131902   2.931   2.330  17.865  0.1362 -1.0555  1.5084
 2569TIP3    H231903   2.866   2.467  17.856  0.7403 -0.8508 -0.2265
 2570TIP3   OH231904   1.955   1.919  20.876  0.4952  0.3825  0.1928
 2570TIP3    H131905   1.903   1.951  20.950 -1.9449 -0.8131 -0.9136
 2570TIP3    H231906   1.970   1.826  20.896 -0.0952  0.0769 -0.7504
 2571TIP3   OH231907   4.000   0.100  19.563  0.0532  0.6785 -0.3769
 2571TIP3    H131908   3.959   0.109  19.649 -0.7691  3.0591 -0.9448
 2571TIP3    H231909   3.933   0.058  19.509  0.4390 -0.4842  0.0177
 2572TIP3   OH231910   1.517   2.951  19.068  0.4484 -0.5148  0.0870
 2572TIP3    H131911   1.590   2.906  19.025  0.8335 -1.1539  1.3605
 2572TIP3    H231912   1.551   2.972  19.155  0.0694  1.7132 -0.2407
 2573TIP3   OH231913   5.760   4.503  19.379 -0.8119  0.3282 -0.2276
 2573TIP3    H131914   5.829   4.456  19.426  0.6464  0.9615 -1.6560
 2573TIP3    H231915   5.680   4.482  19.428  0.2072 -1.2616  0.8736
 2574TIP3   OH231916   1.646   6.224  20.725 -0.4191  0.1303  0.2028
 2574TIP3    H131917   1.585   6.156  20.696 -0.4654 -0.2944  1.2440
 2574TIP3    H231918   1.730   6.197  20.688 -0.6588  0.1608 -0.3810
 2575TIP3   OH231919   3.853   0.682  18.481 -0.4522 -0.1684  0.9494
 2575TIP3    H131920   3.841   0.696  18.574 -0.5450  1.1255  0.7546
 2575TIP3    H231921   3.764   0.678  18.445 -0.4094 -0.1104  0.8354
 2576TIP3   OH231922   5.655   1.032  19.379 -0.2178 -0.3602  0.2331
 2576TIP3    H131923   5.605   1.049  19.459 -0.3750  0.6825 -0.0707
 2576TIP3    H231924   5.741   1.005  19.410 -1.1225 -2.8652  0.7717
 2577TIP3   OH231925   0.164   5.394  21.313 -0.3083 -0.1988 -0.4196
 2577TIP3    H131926   0.210   5.366  21.233  1.1450 -0.4259  0.4565
 2577TIP3    H231927   0.116   5.316  21.341  0.9080 -0.7979  0.0810
 2578TIP3   OH231928   3.066   3.818  19.536  0.5005  0.1177  0.1453
 2578TIP3    H131929   2.997   3.823  19.470 -0.4841  1.0350  1.2055
 2578TIP3    H231930   3.020   3.800  19.618  1.6428 -0.4221  0.7009
 2579TIP3   OH231931   0.784   2.312  19.387 -0.0667  0.6950 -0.0683
 2579TIP3    H131932   0.702   2.323  19.435 -0.4893  1.2232 -0.9046
 2579TIP3    H231933   0.848   2.290  19.455 -1.0628 -0.6292  0.5011
 2580TIP3   OH231934   1.468   4.135  21.232  0.2166  0.3049 -0.4920
 2580TIP3    H131935   1.547   4.157  21.184  1.0917 -1.8712 -0.1559
 2580TIP3    H231936   1.467   4.039  21.235 -0.4599  0.2895  2.6928
 2581TIP3   OH231937   2.766   0.701  18.035 -0.1343  0.2618  0.2463
 2581TIP3    H131938   2.814   0.697  17.953 -2.0282 -1.9628 -0.8773
 2581TIP3    H231939   2.710   0.778  18.027 -0.1871  0.1501 -0.4764
 2582TIP3   OH231940   3.341   0.375  26.122  0.2105  0.0031  0.1355
 2582TIP3    H131941   3.427   0.332  26.129  0.4263  0.3449 -0.3499
 2582TIP3    H231942   3.356   0.448  26.062 -0.6386 -0.4882 -0.6856
 2583TIP3   OH231943   3.264   6.584  17.240 -0.0327 -0.2724 -0.6017
 2583TIP3    H131944   3.191   6.522  17.240  0.6124 -1.0663 -1.7993
 2583TIP3    H231945   3.342   6.530  17.246  0.5357  0.4342 -1.3897
 2584TIP3   OH231946   3.452   3.553  17.737 -0.4469 -0.3126 -0.2462
 2584TIP3    H131947   3.364   3.552  17.699 -1.1739 -3.2687  1.1889
 2584TIP3    H231948   3.460   3.639  17.778 -3.1387 -0.3305  0.4854
 2585TIP3   OH231949   3.963   3.430  19.391 -0.1720  0.2650 -0.0025
 2585TIP3    H131950   4.050   3.392  19.378  0.1797  1.3392 -1.0448
 2585TIP3    H231951   3.928   3.386  19.467  1.8088  0.7092  1.2395
 2586TIP3   OH231952   1.813   6.447  18.437 -0.2432 -0.5142  0.3797
 2586TIP3    H131953   1.801   6.524  18.383  1.5517  0.9025  1.8694
 2586TIP3    H231954   1.878   6.394  18.390  1.1565  0.6129  0.9790
 2587TIP3   OH231955   0.942   4.129  20.216 -0.5679  0.1008 -0.3981
 2587TIP3    H131956   0.940   4.043  20.257 -1.1397 -1.1703 -2.8877
 2587TIP3    H231957   0.850   4.155  20.210 -0.5628 -0.0481 -1.3799
 2588TIP3   OH231958   3.973   1.662  20.735 -0.2332 -0.4488  0.3784
 2588TIP3    H131959   3.984   1.572  20.704  0.8246 -0.7557  1.5397
 2588TIP3    H231960   4.021   1.715  20.673  1.8036 -1.0440  1.3680
 2589TIP3   OH231961   5.649   3.821  20.080 -0.1007 -0.7105  0.1983
 2589TIP3    H131962   5.687   3.908  20.077 -2.0559  0.1769 -0.5285
 2589TIP3    H231963   5.620   3.809  20.170 -1.1405  0.0187 -0.0247
 2590TIP3   OH231964   4.780   2.228  19.915  0.9470  0.5077  0.0362
 2590TIP3    H131965   4.736   2.145  19.898 -0.4430  0.6466  2.4489
 2590TIP3    H231966   4.873   2.205  19.924  0.4670 -1.0249  1.7060
 2591TIP3   OH231967   1.672   5.845  20.528  0.8386  0.8375 -0.1153
 2591TIP3    H131968   1.628   5.761  20.514  0.6802  1.0806 -1.1307
 2591TIP3    H231969   1.608   5.897  20.576  1.6858 -0.2755  2.4008
 2592TIP3   OH231970   5.294   0.548  18.983 -0.0981 -0.1066 -0.2060
 2592TIP3    H131971   5.317   0.480  19.046  0.8806  1.1971  0.9057
 2592TIP3    H231972   5.322   0.629  19.024 -0.0200  0.8623 -2.0475
 2593TIP3   OH231973   0.448   3.551  20.028 -0.0921  0.4088 -0.0605
 2593TIP3    H131974   0.437   3.472  20.081  0.2819  0.6069  0.3105
 2593TIP3    H231975   0.542   3.567  20.027  0.0475 -0.2785 -1.7776
 2594TIP3   OH231976   5.333   0.263  20.563 -0.0608  0.4224  0.4853
 2594TIP3    H131977   5.271   0.326  20.600  0.1767  0.7282  0.3669
 2594TIP3    H231978   5.341   0.195  20.630  1.7014  1.8286  1.8213
 2595TIP3   OH231979   6.234   0.813  19.220  0.1311 -0.2098 -0.0380
 2595TIP3    H131980   6.219   0.752  19.291  0.5357 -0.2533  0.0106
 2595TIP3    H231981   6.329   0.824  19.216  0.1000 -0.0443 -0.4311
 2596TIP3   OH231982   1.765   1.223  19.080  0.6383  0.0071 -0.0848
 2596TIP3    H131983   1.684   1.212  19.031  0.8735  1.4586 -0.8480
 2596TIP3    H231984   1.802   1.135  19.085 -0.9562 -0.6769  0.2666
 2597TIP3   OH231985   0.001   1.043  21.128 -0.3011  0.9548  0.4770
 2597TIP3    H131986   0.053   0.984  21.072 -1.0366 -0.0589  0.8249
 2597TIP3    H231987   0.000   1.000  21.213 -2.5387  0.3842  0.2381
 2598TIP3   OH231988   5.483   5.625  18.414  0.3212 -0.0129 -0.0534
 2598TIP3    H131989   5.566   5.580  18.403  0.5481  0.2810  0.4388
 2598TIP3    H231990   5.467   5.624  18.508  0.6728  1.5302  0.0435
 2599TIP3   OH231991   0.941   4.585  18.849 -0.2546  0.2029 -0.1413
 2599TIP3    H131992   0.892   4.504  18.863 -1.1972  0.8117  0.1780
 2599TIP3    H231993   0.925   4.606  18.757 -1.3955  0.8855  0.1869
 2600TIP3   OH231994   0.857   0.935  20.069  0.2503  0.2283 -0.6601
 2600TIP3    H131995   0.876   0.979  19.986 -0.1840 -2.5106 -2.3356
 2600TIP3    H231996   0.820   0.850  20.043  0.5369 -0.9284  2.3476
 2601TIP3   OH231997   0.099   3.961  20.089 -0.2148 -0.0070 -1.0916
 2601TIP3    H131998   0.073   3.926  20.004 -0.7554  1.1224 -1.4234
 2601TIP3    H231999   0.164   3.899  20.122  1.0912  0.2442 -2.9787
 2602TIP3   OH232000   5.357   4.746  20.613 -0.2380 -0.3396 -0.4602
 2602TIP3    H132001   5.322   4.686  20.547 -0.0750 -0.3024 -0.5806
 2602TIP3    H232002   5.377   4.690  20.688 -3.2678 -0.0031  0.7263
 2603TIP3   OH232003   2.340   3.180  19.880 -0.3060  0.2633 -0.5185
 2603TIP3    H132004   2.249   3.210  19.882 -1.0596 -1.8200 -0.9790
 2603TIP3    H232005   2.357   3.159  19.788  0.9321  1.3532 -0.5715
 2604TIP3   OH232006   1.754   1.974  21.446 -0.7168 -0.0076  0.3890
 2604TIP3    H132007   1.796   2.057  21.472 -2.6829  0.8654  0.9238
 2604TIP3    H232008   1.822   1.929  21.395  0.6069  1.6648  0.5544
 2605TIP3   OH232009   2.887   0.814  20.348  0.0110  0.0815 -0.4428
 2605TIP3    H132010   2.830   0.841  20.276 -2.9984  0.8121  2.0019
 2605TIP3    H232011   2.855   0.726  20.371 -1.3795  1.1326  1.9776
 2606TIP3   OH232012   2.214   3.985  21.154 -0.4582  0.1994 -0.1631
 2606TIP3    H132013   2.309   3.979  21.158 -0.3832  0.8515 -0.7447
 2606TIP3    H232014   2.182   3.906  21.198  0.3391  0.5366  1.0643
 2607TIP3   OH232015   6.097   5.400  20.148 -0.3492 -0.2547 -0.3127
 2607TIP3    H132016   6.101   5.314  20.190 -3.3243 -0.6304 -0.6251
 2607TIP3    H232017   6.167   5.449  20.190  0.4492 -2.3483  0.9804
 2608TIP3   OH232018   0.936   4.217  21.338 -0.5568  0.1469 -0.1690
 2608TIP3    H132019   1.021   4.204  21.296 -0.7145  0.9969 -0.7839
 2608TIP3    H232020   0.957   4.263  21.420 -0.5354  2.0308 -1.1761
 2609TIP3   OH232021   6.578   1.582  19.901 -0.1088 -0.7950 -0.0900
 2609TIP3    H132022   6.570   1.606  19.808 -1.8583 -1.0026 -0.0343
 2609TIP3    H232023   6.661   1.535  19.907  1.5256  1.7249 -0.9693
 2610TIP3   OH232024   6.369   1.588  18.592  0.3348  0.2577  0.3151
 2610TIP3    H132025   6.331   1.513  18.637  1.0008  0.1548  0.7222
 2610TIP3    H232026   6.394   1.648  18.662  1.2307  0.1667  0.0921
 2611TIP3   OH232027   5.388   6.359  20.474  0.2729  0.4769  0.1342
 2611TIP3    H132028   5.463   6.360  20.414  0.3528 -0.9164  0.1701
 2611TIP3    H232029   5.384   6.268  20.505 -0.2635  0.9797  1.6104
 2612TIP3   OH232030   0.712   3.504  18.746 -0.2186 -0.0823 -0.0943
 2612TIP3    H132031   0.695   3.413  18.723 -0.9990 -0.0948  0.4927
 2612TIP3    H232032   0.792   3.501  18.799 -0.9373 -0.5800  0.9809
 2613TIP3   OH232033   2.272   0.822  19.597  0.2260 -0.3442  0.4005
 2613TIP3    H132034   2.340   0.889  19.594 -0.6453  0.5455 -0.3042
 2613TIP3    H232035   2.198   0.865  19.640  0.3427 -1.5341  1.8508
 2614TIP3   OH232036   1.659   4.307  21.071 -0.3390  0.3158  0.4431
 2614TIP3    H132037   1.753   4.309  21.086 -0.4422  0.5284  1.1116
 2614TIP3    H232038   1.649   4.290  20.977  0.4128  3.4326 -0.3387
 2615TIP3   OH232039   0.936   2.186  21.777 -0.4461 -0.5798  0.0653
 2615TIP3    H132040   0.921   2.281  21.775 -1.1165 -0.6802  0.1718
 2615TIP3    H232041   0.850   2.148  21.760 -0.6616 -1.1928  2.2469
 2616TIP3   OH232042   4.033   4.172  19.877 -0.1010  0.2258 -0.2244
 2616TIP3    H132043   4.054   4.095  19.931  0.6789  0.6224  0.0657
 2616TIP3    H232044   4.029   4.244  19.940  0.8570  0.7044 -0.6969
 2617TIP3   OH232045   4.873   1.770  18.398  0.0713  0.4856 -0.1899
 2617TIP3    H132046   4.936   1.798  18.465 -0.7905  1.7543  0.1221
 2617TIP3    H232047   4.815   1.711  18.444  0.4765  0.0362 -0.2475
 2618TIP3   OH232048   2.094   6.432  21.737  0.0983 -0.3737  0.6632
 2618TIP3    H132049   2.091   6.505  21.798  1.7311  0.3596 -0.0746
 2618TIP3    H232050   2.006   6.429  21.699  0.0169  1.2603  0.6467
 2619TIP3   OH232051   2.941   2.123  18.545 -0.2893 -0.0067  0.4742
 2619TIP3    H132052   2.907   2.105  18.632 -0.3902 -0.2309  0.3902
 2619TIP3    H232053   3.033   2.144  18.559  0.1928 -1.9202  0.4596
 2620TIP3   OH232054   4.361   6.326  20.875 -0.3112  0.2141  0.4371
 2620TIP3    H132055   4.362   6.395  20.941  0.3819 -0.9448  1.6981
 2620TIP3    H232056   4.268   6.312  20.856 -0.6847 -0.7520  2.6632
 2621TIP3   OH232057   5.889   5.205  19.132 -0.6680  0.5144 -0.0692
 2621TIP3    H132058   5.816   5.245  19.180 -0.1396  1.4786 -0.0588
 2621TIP3    H232059   5.948   5.277  19.112  1.2287 -0.5112  1.5327
 2622TIP3   OH232060   5.933   5.065  19.371 -0.0093 -0.3199  0.3215
 2622TIP3    H132061   5.931   5.111  19.287 -0.2992 -0.4819  0.2387
 2622TIP3    H232062   5.994   4.992  19.358 -0.4470 -0.6490  0.0911
 2623TIP3   OH232063   2.517   1.516  18.176 -0.4099 -0.0939  0.6847
 2623TIP3    H132064   2.450   1.581  18.155  0.7878  1.1366  0.5098
 2623TIP3    H232065   2.532   1.527  18.270 -1.0207 -0.9422  0.8908
 2624TIP3   OH232066   6.500   4.655  19.965  0.3921 -0.0857 -0.3125
 2624TIP3    H132067   6.562   4.602  20.015 -0.1448 -0.9671 -0.5513
 2624TIP3    H232068   6.428   4.671  20.026 -0.3478 -1.3160 -0.8278
 2625TIP3   OH232069   1.629   2.637  19.014  0.2290 -0.1054 -1.0806
 2625TIP3    H132070   1.658   2.566  18.956  1.6142 -0.7209  0.3049
 2625TIP3    H232071   1.546   2.606  19.049  1.1465 -1.4129  0.0411
 2626TIP3   OH232072   2.826   5.706  21.260 -0.0421 -0.6987  0.7869
 2626TIP3    H132073   2.919   5.728  21.250 -0.1702  0.0548  1.1788
 2626TIP3    H232074   2.813   5.630  21.204  0.8529 -0.9157  0.8563
 2627TIP3   OH232075   4.782   5.250  19.837  0.1388  0.0395 -0.1188
 2627TIP3    H132076   4.851   5.286  19.893 -0.4265  1.2592 -0.1738
 2627TIP3    H232077   4.701   5.269  19.885 -0.1915 -1.1240 -0.1883
 2628TIP3   OH232078   6.417   1.146  21.000  0.2453  0.1437  0.1882
 2628TIP3    H132079   6.502   1.102  21.007  1.0053  1.3862 -0.7509
 2628TIP3    H232080   6.400   1.178  21.089  0.8325 -0.0073  0.3603
 2629TIP3   OH232081   5.200   2.919  18.802  0.4766 -0.1658 -0.2928
 2629TIP3    H132082   5.195   2.841  18.857  2.3030 -1.0877 -1.3284
 2629TIP3    H232083   5.294   2.936  18.793  0.2399  0.3027 -2.5899
 2630TIP3   OH232084   0.799   0.105  18.862  0.5059  0.2787  0.2671
 2630TIP3    H132085   0.837   0.097  18.949  1.8029  2.4053 -0.0315
 2630TIP3    H232086   0.868   0.074  18.803  0.3209  0.5294 -0.0882
 2631TIP3   OH232087   3.991   4.480  21.257  0.4094  0.1914  0.5461
 2631TIP3    H132088   3.989   4.439  21.343  0.7527 -1.2076 -0.0909
 2631TIP3    H232089   4.004   4.573  21.276 -2.6713  0.4312  2.1085
 2632TIP3   OH232090   2.057   1.188  19.252 -0.3721  0.3880  0.7361
 2632TIP3    H132091   2.001   1.113  19.270 -1.2635  0.0894 -2.5526
 2632TIP3    H232092   2.005   1.264  19.276 -0.2642  0.0276  2.1797
 2633TIP3   OH232093   6.522   5.882  19.473  0.0610  0.9326 -0.3411
 2633TIP3    H132094   6.526   5.896  19.379 -1.1608  0.5495 -0.4608
 2633TIP3    H232095   6.541   5.967  19.511  4.2044  0.4609 -0.7961
 2634TIP3   OH232096   5.512   1.072  19.606  0.2240  0.8506  0.1464
 2634TIP3    H132097   5.513   1.168  19.597  0.7652  1.0493  1.8893
 2634TIP3    H232098   5.577   1.054  19.674  0.8408 -0.8637 -0.8395
 2635TIP3   OH232099   1.856   1.217  18.096 -0.2893 -0.3846  0.1709
 2635TIP3    H132100   1.949   1.200  18.106 -0.1295 -0.8222 -1.6523
 2635TIP3    H232101   1.816   1.130  18.087 -0.6881 -0.1610 -0.3048
 2636TIP3   OH232102   1.280   3.052  21.053  0.5649 -0.2038  0.7120
 2636TIP3    H132103   1.321   3.031  21.137  0.3808 -3.0473  0.1980
 2636TIP3    H232104   1.353   3.062  20.992  0.7053  1.9848  1.1483
 2637TIP3   OH232105   4.443   0.777  20.226 -0.2612 -0.7038 -0.2019
 2637TIP3    H132106   4.394   0.695  20.235  0.0479 -1.0643 -1.5946
 2637TIP3    H232107   4.383   0.844  20.261 -1.5256 -1.2115 -1.2995
 2638TIP3   OH232108   3.545   3.010  19.383  0.4987  0.1215 -0.0860
 2638TIP3    H132109   3.450   2.996  19.383  0.1646  1.9772  1.5134
 2638TIP3    H232110   3.555   3.103  19.366  2.1124 -0.1946 -1.0434
 2639TIP3   OH232111   5.977   2.207  17.870 -0.3153 -0.3446  0.0894
 2639TIP3    H132112   5.943   2.271  17.807  0.6003  0.5174  0.4479
 2639TIP3    H232113   5.902   2.151  17.890 -1.1372  0.6031 -0.2634
 2640TIP3   OH232114   3.533   2.950  18.438 -0.0432  0.0915 -0.3628
 2640TIP3    H132115   3.523   2.920  18.528  2.9494 -0.0829  0.0372
 2640TIP3    H232116   3.628   2.946  18.422 -0.3467  1.3035 -3.1090
 2641TIP3   OH232117   4.695   0.939  19.273 -0.4562 -0.3141  0.6724
 2641TIP3    H132118   4.777   0.988  19.267 -0.2705 -0.0357  3.8556
 2641TIP3    H232119   4.683   0.902  19.185  0.9659  2.8788 -1.0596
 2642TIP3   OH232120   3.182   1.550  20.723 -0.9620 -0.3640 -0.3283
 2642TIP3    H132121   3.274   1.532  20.743 -1.0105  0.2167  0.4673
 2642TIP3    H232122   3.185   1.618  20.656 -0.8044 -1.8960 -1.9482
 2643TIP3   OH232123   3.585   5.674  21.324  0.0523  0.0722  0.2362
 2643TIP3    H132124   3.542   5.593  21.297  1.9438 -0.6923 -0.7306
 2643TIP3    H232125   3.532   5.744  21.285 -2.0201 -0.5958  1.6801
 2644TIP3   OH232126   3.953   6.073  21.122 -0.1748 -0.1030  0.9859
 2644TIP3    H132127   3.863   6.040  21.125 -0.3997  0.0214 -1.5209
 2644TIP3    H232128   3.943   6.168  21.110  0.1794 -0.2769 -1.0456
 2645TIP3   OH232129   0.007   3.102  19.173  0.1356 -0.8145  0.0839
 2645TIP3    H132130   0.033   3.033  19.112  0.5608  0.1192 -0.8323
 2645TIP3    H232131  -0.040   3.165  19.118 -1.7623 -1.1595  1.2020
 2646TIP3   OH232132   6.093   6.460  20.442  0.1015 -0.3180 -0.7256
 2646TIP3    H132133   6.094   6.555  20.459 -1.4714 -0.6354  1.7223
 2646TIP3    H232134   6.012   6.445  20.393 -0.4796 -0.5221  0.2561
 2647TIP3   OH232135   5.536   4.148  19.865  0.3798 -0.6721 -0.0057
 2647TIP3    H132136   5.488   4.182  19.940 -1.2011 -1.2129 -0.7131
 2647TIP3    H232137   5.500   4.195  19.790  1.8514 -0.2163 -0.4506
 2648TIP3   OH232138   3.297   0.052  21.238 -0.6631  0.3873 -0.0762
 2648TIP3    H132139   3.385   0.067  21.272 -0.8572 -0.1080  0.6661
 2648TIP3    H232140   3.277   0.131  21.187  0.9149 -0.2407 -1.8099
 2649TIP3   OH232141   5.053   3.530  20.964  0.4566 -0.1656  0.1877
 2649TIP3    H132142   4.963   3.529  20.996  0.2440 -1.4450 -0.4115
 2649TIP3    H232143   5.092   3.608  21.005 -0.0188 -1.2657  2.8888
 2650TIP3   OH232144   3.374   5.432  19.971  0.4295 -0.0763  0.1840
 2650TIP3    H132145   3.342   5.364  19.911 -0.6255  1.1342 -0.6726
 2650TIP3    H232146   3.455   5.396  20.007 -0.5905 -2.2055  0.5129
 2651TIP3   OH232147   2.584   5.859  20.655  0.1284  0.1392 -0.3104
 2651TIP3    H132148   2.637   5.861  20.575  1.1047 -0.6714  0.2930
 2651TIP3    H232149   2.648   5.865  20.726 -0.6075 -0.6606  0.4405
 2652TIP3   OH232150   1.645   3.201  18.768  0.1759  0.1030  0.0424
 2652TIP3    H132151   1.564   3.246  18.744 -1.3243 -2.3840  0.0809
 2652TIP3    H232152   1.659   3.224  18.859 -1.1480 -0.2879  0.3726
 2653TIP3   OH232153   0.563   3.919  21.177  0.2475  0.0532 -0.6779
 2653TIP3    H132154   0.554   3.824  21.172  0.4690  0.0361 -0.7770
 2653TIP3    H232155   0.638   3.933  21.235  0.7450  0.1477 -1.3358
 2654TIP3   OH232156   3.151   0.775  20.400 -0.5184 -0.4175 -0.1714
 2654TIP3    H132157   3.055   0.777  20.395 -0.6640 -0.7246  1.6117
 2654TIP3    H232158   3.174   0.855  20.446 -0.1711 -1.5868  1.7880
 2655TIP3   OH232159   4.077   2.013  19.411  0.2747 -0.3025 -0.2512
 2655TIP3    H132160   4.049   1.958  19.338  0.2867  0.2195 -0.6539
 2655TIP3    H232161   3.997   2.059  19.438  0.0477 -1.1839  0.6952
 2656TIP3   OH232162   6.038   4.870  21.083  0.1141 -0.3073 -0.0234
 2656TIP3    H132163   5.953   4.832  21.103  0.3518 -1.1080 -0.5112
 2656TIP3    H232164   6.030   4.962  21.110 -0.5080 -0.6551  1.0293
 2657TIP3   OH232165   0.181   5.471  19.318 -0.0345 -0.5394 -0.4822
 2657TIP3    H132166   0.261   5.419  19.307  0.4947  0.3058 -0.6807
 2657TIP3    H232167   0.208   5.561  19.303 -0.7846 -0.1084  0.5735
 2658TIP3   OH232168   2.705   0.281  19.629  0.0092  0.4724 -0.1024
 2658TIP3    H132169   2.729   0.295  19.721  2.6445  1.7257 -0.8742
 2658TIP3    H232170   2.728   0.364  19.586 -1.2355 -0.0660 -1.9101
 2659TIP3   OH232171   3.391   1.776  18.653  0.5427 -0.5153  0.3597
 2659TIP3    H132172   3.421   1.805  18.739 -0.1451 -0.0739  0.4582
 2659TIP3    H232173   3.432   1.690  18.640 -0.8372 -1.4716  1.9547
 2660TIP3   OH232174   4.506   5.423  20.927  0.1713 -0.0824 -0.1949
 2660TIP3    H132175   4.597   5.413  20.902  1.0300  3.5077  0.8017
 2660TIP3    H232176   4.468   5.480  20.860 -0.5552  0.6259  0.7790
 2661TIP3   OH232177   4.046   0.077  20.125  0.0854 -0.2693  0.4234
 2661TIP3    H132178   3.980   0.025  20.171  2.1137 -1.3868  2.2710
 2661TIP3    H232179   4.051   0.159  20.175 -0.6484  0.2829 -0.3846
 2662TIP3   OH232180   6.221   5.312  19.324  0.2607  0.1981  0.1543
 2662TIP3    H132181   6.222   5.367  19.246 -0.4234 -0.7925 -0.5725
 2662TIP3    H232182   6.129   5.311  19.351  0.1747 -1.0419 -0.1733
 2663TIP3   OH232183   1.753   0.769  21.226  0.2335 -0.1421  0.0851
 2663TIP3    H132184   1.676   0.818  21.255 -2.0859 -3.1160 -0.5162
 2663TIP3    H232185   1.789   0.821  21.154 -0.3679  1.9662  1.2186
 2664TIP3   OH232186   0.559   0.231  20.596  0.5268 -0.0132 -0.3370
 2664TIP3    H132187   0.500   0.306  20.594 -0.1936 -0.4823  1.4623
 2664TIP3    H232188   0.542   0.185  20.514 -1.1886  0.1966 -0.1321
 2665TIP3   OH232189   6.523   2.410  19.442  0.7223  0.3192  0.3311
 2665TIP3    H132190   6.545   2.346  19.510 -0.1137  0.2817  0.5875
 2665TIP3    H232191   6.450   2.460  19.480 -0.8049 -0.7046 -1.1113
 2666TIP3   OH232192   5.502   6.133  19.500  0.2153 -0.7877  0.2915
 2666TIP3    H132193   5.532   6.104  19.586 -1.8805  0.3514  1.5144
 2666TIP3    H232194   5.466   6.054  19.460  0.6343 -1.2076  0.7247
 2667TIP3   OH232195   3.476   4.484  19.212  0.1554 -0.3590 -0.3344
 2667TIP3    H132196   3.409   4.422  19.182  0.7856 -0.5783 -1.3113
 2667TIP3    H232197   3.429   4.567  19.220 -0.8072 -1.0118  1.4185
 2668TIP3   OH232198   4.580   3.163  17.552  0.1139 -0.0619 -0.8979
 2668TIP3    H132199   4.566   3.105  17.477  0.8690 -2.8324  0.9797
 2668TIP3    H232200   4.500   3.153  17.604  0.0783  0.9738 -0.7352
 2669TIP3   OH232201   2.020   1.067  21.316 -0.0146 -0.1024 -0.1723
 2669TIP3    H132202   1.959   1.128  21.355  0.4775  0.3940 -0.1727
 2669TIP3    H232203   2.104   1.113  21.315  0.3445 -0.7409 -0.2444
 2670TIP3   OH232204   4.115   2.665  20.783 -0.2038 -0.1288 -0.2621
 2670TIP3    H132205   4.072   2.751  20.791 -0.5411 -0.1978 -1.2122
 2670TIP3    H232206   4.204   2.685  20.756  0.3774  0.0115  1.6326
 2671TIP3   OH232207   3.499   0.507  19.359  0.0130 -0.3033 -0.1057
 2671TIP3    H132208   3.452   0.505  19.275 -1.4042  0.0179  0.6429
 2671TIP3    H232209   3.539   0.420  19.366 -2.2750 -1.4253  0.1656
 2672TIP3   OH232210   5.205   2.844  19.543  0.2652  0.2831  0.2512
 2672TIP3    H132211   5.133   2.874  19.488  0.3309  1.1162  0.6133
 2672TIP3    H232212   5.209   2.908  19.614  0.7917 -0.2553  0.7129
 2673TIP3   OH232213   0.778   5.369  21.050 -0.0442 -0.1121 -0.4972
 2673TIP3    H132214   0.779   5.397  20.958 -1.0888 -1.2211 -0.8641
 2673TIP3    H232215   0.790   5.450  21.100 -2.5290  0.9743 -1.5315
 2674TIP3   OH232216   3.967   1.408  19.094 -0.2890  0.0151  0.0126
 2674TIP3    H132217   3.998   1.332  19.143  0.5688  0.7464  0.6404
 2674TIP3    H232218   3.978   1.383  19.002  1.8304  0.0731  0.1914
 2675TIP3   OH232219   3.113   2.944  19.491  0.0212 -0.3922 -0.2585
 2675TIP3    H132220   3.072   2.878  19.435 -0.9162 -0.3164  0.3290
 2675TIP3    H232221   3.207   2.933  19.476 -0.1883 -0.8040 -1.3577
 2676TIP3   OH232222   1.259   0.094  19.832 -0.1745  0.6122 -0.2566
 2676TIP3    H132223   1.234   0.134  19.749 -1.0494 -0.6752 -0.6419
 2676TIP3    H232224   1.283   0.004  19.810 -0.4032  0.2567  0.8599
 2677TIP3   OH232225   3.886   4.469  17.549 -0.4243  0.4127 -0.0018
 2677TIP3    H132226   3.860   4.431  17.465  2.1931  0.2874 -0.8449
 2677TIP3    H232227   3.925   4.554  17.526  1.6907 -0.2589  0.8472
 2678TIP3   OH232228   5.004   2.079  19.687  0.3029 -0.1960 -0.2665
 2678TIP3    H132229   5.080   2.054  19.739 -0.4735  0.5461  1.2778
 2678TIP3    H232230   5.018   2.171  19.666 -0.2982  0.0371  0.3064
 2679TIP3   OH232231   0.340   3.386  20.285  0.1140  0.2450  0.2001
 2679TIP3    H132232   0.432   3.382  20.311  0.4503  1.3156 -0.7572
 2679TIP3    H232233   0.319   3.297  20.256  1.1772  0.2517 -0.6407
 2680TIP3   OH232234   5.784   0.354  19.979 -0.5153  0.7776 -0.1815
 2680TIP3    H132235   5.781   0.389  19.890 -1.1893  1.3800  0.0704
 2680TIP3    H232236   5.791   0.432  20.034 -1.1436  0.4608  0.3473
 2681TIP3   OH232237   1.631   0.569  20.312 -0.2227  0.0089 -0.3149
 2681TIP3    H132238   1.579   0.502  20.267 -0.7739  0.7591 -0.8273
 2681TIP3    H232239   1.617   0.552  20.405  0.0558 -0.8918 -0.4287
 2682TIP3   OH232240   0.025   3.416  19.232 -0.0933  0.4746  0.0757
 2682TIP3    H132241  -0.024   3.359  19.290 -0.4984  0.8460  0.1036
 2682TIP3    H232242  -0.041   3.454  19.174  0.1850  0.8217 -0.0183
 2683TIP3   OH232243   4.005   6.349  21.060  0.7446 -0.6036  0.0569
 2683TIP3    H132244   4.060   6.425  21.084  0.3029 -0.8843  2.1878
 2683TIP3    H232245   3.916   6.381  21.069  0.5491 -1.4091  1.2506
 2684TIP3   OH232246   1.992   6.292  20.895 -0.3859 -0.0701 -0.0645
 2684TIP3    H132247   1.966   6.277  20.804  0.4809  0.2301 -0.3768
 2684TIP3    H232248   2.022   6.207  20.926 -0.9770 -0.2388  0.0380
 2685TIP3   OH232249   2.698   3.628  19.732 -0.6160  0.2168  0.2069
 2685TIP3    H132250   2.752   3.592  19.802 -1.8766  1.2365  1.7664
 2685TIP3    H232251   2.623   3.569  19.727 -0.3768 -0.0442 -0.5602
 2686TIP3   OH232252   5.470   3.551  18.102 -0.7600 -0.4614 -0.2832
 2686TIP3    H132253   5.406   3.619  18.081 -1.3955 -0.3575  1.7643
 2686TIP3    H232254   5.555   3.590  18.081 -1.2153  0.3259 -0.7047
 2687TIP3   OH232255   5.761   2.958  18.117 -0.6672 -0.5592  0.3996
 2687TIP3    H132256   5.750   2.868  18.088  0.7089 -0.4560 -0.5414
 2687TIP3    H232257   5.785   3.007  18.038 -0.0036  0.3535  1.1352
 2688TIP3   OH232258   6.256   3.791  21.534  0.2667 -0.6278 -0.7714
 2688TIP3    H132259   6.177   3.738  21.527 -0.4839  0.2094  0.9024
 2688TIP3    H232260   6.319   3.735  21.581 -0.1740 -0.4318  0.0696
 2689TIP3   OH232261   5.697   0.823  19.031  0.3646 -0.1095  0.0596
 2689TIP3    H132262   5.610   0.860  19.016  0.4558  1.2865  2.5592
 2689TIP3    H232263   5.728   0.801  18.943 -1.0406  2.7715 -1.3083
 2690TIP3   OH232264   5.585   5.073  20.370  0.0422 -0.4503  0.3094
 2690TIP3    H132265   5.540   5.069  20.455  2.6843  0.6705  1.9126
 2690TIP3    H232266   5.625   4.987  20.360  0.7764 -0.1922  0.8885
 2691TIP3   OH232267   1.412   0.760  21.061 -0.0540  0.1323  0.0344
 2691TIP3    H132268   1.456   0.802  21.134  0.7507 -1.9141  0.7984
 2691TIP3    H232269   1.473   0.768  20.988  0.3388 -0.1647  0.3242
 2692TIP3   OH232270   3.683   1.723  18.984  0.6852 -0.3083 -0.2270
 2692TIP3    H132271   3.760   1.748  19.035  0.0641 -1.2876  1.2610
 2692TIP3    H232272   3.683   1.627  18.985 -1.3876 -0.3590  1.2129
 2693TIP3   OH232273   4.109   4.724  18.961  0.1807  0.0702  0.4312
 2693TIP3    H132274   4.063   4.703  19.042  0.4083 -0.0757  0.5224
 2693TIP3    H232275   4.097   4.646  18.906  0.6484 -0.1269  0.6038
 2694TIP3   OH232276   3.363   0.640  19.880  0.3412  0.5017  0.1617
 2694TIP3    H132277   3.375   0.735  19.881 -1.4491  0.7557  0.2681
 2694TIP3    H232278   3.363   0.616  19.788 -0.2702  0.7658  0.0909
 2695TIP3   OH232279   0.080   2.118  18.678  0.4644 -0.1833  0.1692
 2695TIP3    H132280   0.012   2.142  18.615 -0.4614  2.7123  2.0542
 2695TIP3    H232281   0.042   2.140  18.763  3.5171  0.9693  1.3696
 2696TIP3   OH232282   6.514   0.314  17.877  0.3049  0.8462  0.6732
 2696TIP3    H132283   6.544   0.243  17.934 -1.2301 -0.3312  0.0938
 2696TIP3    H232284   6.426   0.334  17.908 -0.4702  0.3459 -1.1066
 2697TIP3   OH232285   6.007   1.314  20.654 -0.3223  0.5212 -0.4677
 2697TIP3    H132286   5.923   1.273  20.677 -1.1301  0.6602 -2.8929
 2697TIP3    H232287   5.991   1.354  20.568  2.6134 -0.6257 -1.6608
 2698TIP3   OH232288   3.804   4.427  18.243 -0.4505  0.2099  0.0665
 2698TIP3    H132289   3.841   4.433  18.331 -0.7479 -0.6614  0.2589
 2698TIP3    H232290   3.710   4.418  18.257 -0.4501 -0.4580 -0.3187
 2699TIP3   OH232291   3.311   0.645  18.467 -0.3050  0.0619  0.7255
 2699TIP3    H132292   3.303   0.665  18.560  0.3252  1.4856  0.5027
 2699TIP3    H232293   3.260   0.714  18.423  0.9237  0.5001 -0.0474
 2700TIP3   OH232294   3.011   0.016  20.983 -0.0619 -0.3491  0.7551
 2700TIP3    H132295   3.101   0.016  20.950 -0.7027 -0.1593 -1.0986
 2700TIP3    H232296   2.972   0.095  20.945 -1.1513 -0.6751  1.1624
 2701TIP3   OH232297   0.937   1.078  21.140 -0.6302 -0.0228  0.0114
 2701TIP3    H132298   0.844   1.056  21.145 -0.5523 -0.4494 -0.3289
 2701TIP3    H232299   0.941   1.155  21.083 -0.9421  1.1444  1.5135
 2702TIP3   OH232300   3.384   4.789  19.274 -0.0797 -0.7499  0.4445
 2702TIP3    H132301   3.307   4.835  19.241  0.3377 -0.8216 -0.6652
 2702TIP3    H232302   3.457   4.829  19.228  0.3684 -1.9619  0.0558
 2703TIP3   OH232303   6.216   1.541  19.404  0.0574  0.2224  0.0765
 2703TIP3    H132304   6.137   1.488  19.407 -0.7671  1.4387  1.6065
 2703TIP3    H232305   6.288   1.479  19.420 -0.7834 -0.5920  0.8347
 2704TIP3   OH232306   6.001   5.816  19.886  0.2240 -0.2367 -0.2077
 2704TIP3    H132307   5.993   5.912  19.889  0.4169 -0.1841 -1.2898
 2704TIP3    H232308   6.095   5.800  19.872  0.0181 -0.5572 -1.2370
 2705TIP3   OH232309   5.524   0.577  18.434 -0.1426  0.2726  0.2588
 2705TIP3    H132310   5.587   0.583  18.506  1.1856  2.9943 -0.9643
 2705TIP3    H232311   5.446   0.622  18.467  0.3216  1.1672  0.1824
 2706TIP3   OH232312   4.953   3.354  21.231  0.7490 -0.3878  0.2559
 2706TIP3    H132313   4.953   3.444  21.262  1.5663 -0.8689  1.7572
 2706TIP3    H232314   5.033   3.316  21.268 -0.5971 -2.2896  1.4141
 2707TIP3   OH232315   5.166   1.643  19.269 -0.2505 -0.3049 -0.1810
 2707TIP3    H132316   5.207   1.615  19.351  0.4611 -0.2808 -0.5193
 2707TIP3    H232317   5.206   1.587  19.202 -2.0156 -1.4583 -0.3363
 2708TIP3   OH232318   1.502   1.847  19.950  0.2405 -0.6343 -0.0081
 2708TIP3    H132319   1.517   1.768  19.897 -1.6930 -1.7688  1.0238
 2708TIP3    H232320   1.562   1.838  20.024  0.3181 -0.9173 -0.1045
 2709TIP3   OH232321   5.961   0.499  19.020  0.1355 -0.0347  0.3600
 2709TIP3    H132322   5.893   0.525  19.083 -0.3500 -0.5519  0.0584
 2709TIP3    H232323   6.014   0.578  19.009 -1.4181  0.9069 -0.6679
 2710TIP3   OH232324   4.998   2.765  20.409 -0.2561  0.1831 -0.0542
 2710TIP3    H132325   4.956   2.716  20.480 -0.2366 -0.8966 -0.7558
 2710TIP3    H232326   5.080   2.797  20.447  1.1317 -2.7473 -0.3118
 2711TIP3   OH232327   3.956   5.223  19.416  0.0439 -0.4699 -0.0753
 2711TIP3    H132328   4.041   5.241  19.377 -0.6736  1.5833 -0.8802
 2711TIP3    H232329   3.896   5.221  19.341 -0.7906 -0.6154  0.5846
 2712TIP3   OH232330   5.437   3.232  20.885 -0.3240  0.1017 -0.5656
 2712TIP3    H132331   5.438   3.153  20.940 -0.1779  1.6672  1.8137
 2712TIP3    H232332   5.524   3.235  20.846 -0.5937 -1.3223 -1.3336
 2713TIP3   OH232333   5.773   2.072  18.169  0.2417  0.4515 -0.0919
 2713TIP3    H132334   5.761   2.072  18.074  0.5106 -1.5815 -0.1783
 2713TIP3    H232335   5.795   2.162  18.191  0.6958  0.8527 -2.0328
 2714TIP3   OH232336   3.534   4.121  21.234 -1.5454 -0.1448  0.0535
 2714TIP3    H132337   3.511   4.177  21.309  2.1907  2.3298 -0.3454
 2714TIP3    H232338   3.597   4.058  21.270 -0.7264  0.2207 -0.7063
 2715TIP3   OH232339   1.290   3.591  19.627  0.0998 -0.4478  0.3905
 2715TIP3    H132340   1.206   3.629  19.652  0.6087  1.0884 -0.0531
 2715TIP3    H232341   1.286   3.586  19.531 -0.2867 -2.4182  0.4781
 2716TIP3   OH232342   1.903   5.679  19.808  0.5759  0.1458 -0.0267
 2716TIP3    H132343   1.821   5.720  19.783  1.4916  1.9536 -0.2132
 2716TIP3    H232344   1.879   5.589  19.829 -1.1193  0.0467 -2.0431
 2717TIP3   OH232345   0.297   0.666  19.437 -0.1831  0.1979  0.0480
 2717TIP3    H132346   0.329   0.580  19.411 -0.7521  0.0397 -0.1415
 2717TIP3    H232347   0.278   0.656  19.531 -0.7750 -0.0489 -0.0948
 2718TIP3   OH232348   5.664   5.285  19.296  0.0072  0.0823 -0.0420
 2718TIP3    H132349   5.610   5.226  19.348 -0.3176  1.3558  1.1152
 2718TIP3    H232350   5.604   5.325  19.234 -0.3380  1.1717  0.9556
 2719TIP3   OH232351   3.396   2.090  17.712 -0.0141 -0.2045  0.1592
 2719TIP3    H132352   3.327   2.127  17.657  0.6340 -0.4093 -0.8113
 2719TIP3    H232353   3.477   2.108  17.665  0.6486  0.2833  1.4174
 2720TIP3   OH232354   2.829   4.266  20.387 -0.6049 -0.0568  0.5375
 2720TIP3    H132355   2.853   4.281  20.296  0.2300 -1.8998  0.4027
 2720TIP3    H232356   2.844   4.349  20.431  2.0558  0.0358 -0.3959
 2721TIP3   OH232357   2.576   0.772  21.007 -0.1281 -0.2821  0.6644
 2721TIP3    H132358   2.564   0.702  21.071  1.0682 -0.9158  0.2127
 2721TIP3    H232359   2.506   0.759  20.943 -0.4958 -0.4757  1.1034
 2722TIP3   OH232360   2.258   3.886  20.860  0.3208  0.0215  0.3921
 2722TIP3    H132361   2.351   3.880  20.835  0.4317  2.3468  0.0403
 2722TIP3    H232362   2.249   3.823  20.932  1.9735 -0.8342 -0.0848
 2723TIP3   OH232363   1.302   5.282  18.360 -0.2422  0.0808 -0.1191
 2723TIP3    H132364   1.368   5.225  18.319  0.4665  0.3891  0.5836
 2723TIP3    H232365   1.239   5.299  18.290  0.6352  0.1087 -0.9233
 2724TIP3   OH232366   4.272   5.329  18.034  0.9506 -0.4347  0.2283
 2724TIP3    H132367   4.228   5.415  18.028  1.5976  0.0623  1.9638
 2724TIP3    H232368   4.365   5.350  18.029  1.3813 -0.4501  4.5882
 2725TIP3   OH232369   0.157   0.313  18.465 -0.3982  0.0618  0.6200
 2725TIP3    H132370   0.226   0.322  18.399 -1.0652  2.5951  0.1666
 2725TIP3    H232371   0.183   0.373  18.535 -1.6559  0.3325  0.8688
 2726TIP3   OH232372   4.205   5.778  20.275  0.1465 -0.3639  0.1974
 2726TIP3    H132373   4.209   5.860  20.227  0.9551  0.1423  1.1002
 2726TIP3    H232374   4.124   5.784  20.326  0.5012  0.1401  0.7135
 2727TIP3   OH232375   6.612   2.735  18.399 -0.1904 -0.1281 -0.2947
 2727TIP3    H132376   6.637   2.815  18.352 -1.8106  0.0063 -1.0017
 2727TIP3    H232377   6.599   2.764  18.490  0.1921  0.2119 -0.3484
 2728TIP3   OH232378   6.223   3.702  20.617 -0.0760 -0.1710 -0.0077
 2728TIP3    H132379   6.274   3.729  20.693 -0.2897 -0.3770  0.2146
 2728TIP3    H232380   6.230   3.775  20.556 -0.4587  0.2894  0.4874
 2729TIP3   OH232381   3.528   6.563  18.962  0.1394 -0.1189  0.6602
 2729TIP3    H132382   3.464   6.515  18.909 -0.4879  2.2993 -0.9605
 2729TIP3    H232383   3.613   6.542  18.921 -0.2819  1.2548 -1.0569
 2730TIP3   OH232384   1.731   5.536  19.122 -0.1992 -0.2072 -0.2168
 2730TIP3    H132385   1.742   5.441  19.131  2.4945  0.0951  0.3227
 2730TIP3    H232386   1.753   5.572  19.207  0.5814  1.0282 -0.9135
 2731TIP3   OH232387   1.043   2.275  19.234 -0.3008 -0.7866  0.3672
 2731TIP3    H132388   0.974   2.291  19.298  1.5586 -0.2561  2.3389
 2731TIP3    H232389   1.068   2.362  19.203 -0.5513 -0.9825 -0.4091
 2732TIP3   OH232390   4.092   3.823  21.365  0.1994  0.2885  0.0308
 2732TIP3    H132391   4.165   3.869  21.408  0.6569 -0.3660 -0.0342
 2732TIP3    H232392   4.115   3.730  21.372 -0.6303  0.0780 -0.0016
 2733TIP3   OH232393   5.388   1.668  20.260  0.6741  0.4372 -0.2064
 2733TIP3    H132394   5.417   1.681  20.351  0.3656  0.6169 -0.1308
 2733TIP3    H232395   5.297   1.640  20.268  1.2305 -1.5258 -0.3734
 2734TIP3   OH232396   3.002   5.053  20.136 -0.3508  0.5764  0.3681
 2734TIP3    H132397   3.092   5.077  20.118 -0.2693  0.3259  0.4356
 2734TIP3    H232398   2.976   5.105  20.212  0.3762 -0.7859  1.6063
 2735TIP3   OH232399   5.827   1.365  19.628 -0.0308  0.0193 -0.0104
 2735TIP3    H132400   5.887   1.369  19.702 -0.7177 -0.5357  0.5890
 2735TIP3    H232401   5.883   1.370  19.551  0.6672  0.8886  0.5483
 2736TIP3   OH232402   6.613   4.803  20.998 -0.0897  0.0032 -0.5227
 2736TIP3    H132403   6.541   4.859  20.970 -0.9585 -0.9277 -0.2465
 2736TIP3    H232404   6.574   4.746  21.065  0.6154 -1.2477 -1.1390
 2737TIP3   OH232405   0.381   4.679  18.965  0.4609 -0.2231  0.2247
 2737TIP3    H132406   0.469   4.653  18.994  0.5152 -1.4690 -0.9692
 2737TIP3    H232407   0.325   4.665  19.042  1.1233 -0.3837  0.6877
 2738TIP3   OH232408   3.528   1.976  19.307  0.1183 -0.3070 -0.0781
 2738TIP3    H132409   3.547   2.065  19.278  0.1323  0.1541  1.2503
 2738TIP3    H232410   3.461   1.945  19.247  0.9203  0.1712 -1.2570
 2739TIP3   OH232411   4.660   0.776  19.783  0.4244  0.6672  0.4168
 2739TIP3    H132412   4.751   0.798  19.802  0.6180  0.0863  0.1636
 2739TIP3    H232413   4.609   0.831  19.844  0.8368  2.5412 -0.8400
 2740TIP3   OH232414   3.192   0.777  20.125  0.4832  0.3106 -0.8965
 2740TIP3    H132415   3.258   0.838  20.092  0.6723 -0.3045 -1.6731
 2740TIP3    H232416   3.189   0.795  20.219  3.0042 -0.8038 -0.5132
 2741TIP3   OH232417   0.401   1.508  21.284 -0.4896  0.5969  0.0286
 2741TIP3    H132418   0.394   1.534  21.192  2.0962  0.4145 -0.3019
 2741TIP3    H232419   0.474   1.560  21.318 -1.3005  0.5488  1.9767
 2742TIP3   OH232420   5.753   3.940  18.580  0.4895  0.3024 -0.5560
 2742TIP3    H132421   5.839   3.918  18.616  0.1532  2.1447  1.5728
 2742TIP3    H232422   5.703   3.858  18.585  0.5813  0.3251  3.0399
 2743TIP3   OH232423   1.027   4.152  19.242  0.1794 -0.2716 -0.0449
 2743TIP3    H132424   1.003   4.074  19.191 -0.6882  0.4988 -0.8362
 2743TIP3    H232425   1.077   4.206  19.181  1.7504 -0.6785  0.8265
 2744TIP3   OH232426   2.191   4.431  18.752  0.4831  0.4522 -0.2122
 2744TIP3    H132427   2.097   4.416  18.762  0.3788  1.2697  0.1749
 2744TIP3    H232428   2.225   4.349  18.716 -0.4903  0.3891 -1.0604
 2745TIP3   OH232429   0.784   2.507  20.357 -0.5040  0.4080  0.3377
 2745TIP3    H132430   0.777   2.412  20.370  0.9129  0.3986  1.2268
 2745TIP3    H232431   0.802   2.542  20.444 -1.6062  1.5860  0.1248
 2746TIP3   OH232432   2.522   3.270  21.030  0.0732 -0.0408 -0.2525
 2746TIP3    H132433   2.551   3.307  21.113  0.6186 -0.4455 -0.2525
 2746TIP3    H232434   2.603   3.246  20.985 -0.1712  1.0089 -1.2975
 2747TIP3   OH232435   4.086   0.929  19.791 -0.4131  0.9208 -0.1110
 2747TIP3    H132436   4.126   0.975  19.865 -0.4920  3.9399 -1.7951
 2747TIP3    H232437   4.158   0.910  19.732 -0.3106 -1.7232  0.7143
 2748TIP3   OH232438   1.062   4.074  20.729 -0.0449  0.4384 -0.2778
 2748TIP3    H132439   1.086   3.987  20.763 -1.4661  0.1923  0.1664
 2748TIP3    H232440   1.145   4.112  20.701  0.5666 -1.2617 -0.9586
 2749TIP3   OH232441   3.277   0.291  19.477 -0.4191 -0.0067  0.2607
 2749TIP3    H132442   3.185   0.301  19.501  0.1432 -0.5111  2.9906
 2749TIP3    H232443   3.285   0.201  19.447 -0.6396 -0.3252  1.1211
 2750TIP3   OH232444   1.478   0.122  20.465 -0.2571 -0.3191  0.0185
 2750TIP3    H132445   1.567   0.137  20.496  0.0816 -1.4954 -0.3572
 2750TIP3    H232446   1.424   0.182  20.517  0.6469 -0.2374  0.8757
 2751TIP3   OH232447   2.362   2.850  17.430  0.5770  0.3548 -0.3686
 2751TIP3    H132448   2.341   2.902  17.353  2.5196 -1.3995 -2.2244
 2751TIP3    H232449   2.311   2.770  17.419  1.3189 -0.1539 -0.1581
 2752TIP3   OH232450   0.537   4.824  19.413  0.1639 -0.0093  0.0137
 2752TIP3    H132451   0.515   4.829  19.506 -0.1609  1.3141 -0.1128
 2752TIP3    H232452   0.614   4.880  19.403  1.0709 -1.2693 -0.2880
 2753TIP3   OH232453   2.751   2.270  18.365 -0.4252  0.3559 -0.1299
 2753TIP3    H132454   2.798   2.248  18.285 -0.8979 -1.5607  0.0540
 2753TIP3    H232455   2.818   2.273  18.432 -0.4039 -1.7389  0.0175
 2754TIP3   OH232456   3.345   1.369  20.353 -0.0979  0.0044 -0.6031
 2754TIP3    H132457   3.421   1.332  20.396 -0.1779  0.3746 -0.1325
 2754TIP3    H232458   3.355   1.464  20.362 -1.3387  0.0478  0.7867
 2755TIP3   OH232459   6.412   2.520  17.688 -0.4617  0.6199  0.0993
 2755TIP3    H132460   6.450   2.435  17.667 -1.5776  0.5875 -2.1320
 2755TIP3    H232461   6.486   2.580  17.688  0.1184 -0.0820 -0.0546
 2756TIP3   OH232462   0.169   4.580  19.720  0.6175  0.1740 -0.4696
 2756TIP3    H132463   0.138   4.668  19.696 -0.0594 -0.4289 -1.8986
 2756TIP3    H232464   0.089   4.528  19.730  0.9557 -0.0903  1.3408
 2757TIP3   OH232465   1.438   4.818  17.428  0.6119  0.3146  0.0976
 2757TIP3    H132466   1.498   4.857  17.364  0.6921 -0.5285 -0.3630
 2757TIP3    H232467   1.383   4.759  17.376 -1.3588  1.8626  0.3243
 2758TIP3   OH232468   3.647   3.022  18.925  0.1304  0.2477 -0.8511
 2758TIP3    H132469   3.564   3.040  18.970  0.6732 -2.0547  1.3449
 2758TIP3    H232470   3.705   3.093  18.954 -0.3351  0.3755 -0.1912
 2759TIP3   OH232471   4.278   5.033  21.084  0.3569  0.0259 -0.0252
 2759TIP3    H132472   4.183   5.040  21.078  0.3025 -0.9513 -0.4986
 2759TIP3    H232473   4.306   5.118  21.118 -0.7878 -0.0586  1.2569
 2760TIP3   OH232474   6.081   1.932  19.385 -0.2383 -0.3090  0.1400
 2760TIP3    H132475   6.016   1.882  19.436 -0.4545 -0.6680 -0.4819
 2760TIP3    H232476   6.113   1.870  19.319 -2.0323  0.9162 -2.0076
 2761TIP3   OH232477   1.687   3.196  18.173  0.4885  0.4058 -0.0638
 2761TIP3    H132478   1.689   3.158  18.260 -0.4301  0.2332 -0.1141
 2761TIP3    H232479   1.641   3.132  18.119  2.1299 -0.0628 -0.9723
 2762TIP3   OH232480   4.885   6.104  19.860  0.2956 -0.1532  0.3493
 2762TIP3    H132481   4.960   6.056  19.896  0.4508 -0.5941 -0.5329
 2762TIP3    H232482   4.809   6.050  19.885  0.1960  0.5579  1.6882
 2763TIP3   OH232483   1.024   5.268  20.955 -0.0384  0.1316 -0.0138
 2763TIP3    H132484   0.948   5.304  21.001 -0.4119  0.4320 -0.8474
 2763TIP3    H232485   1.061   5.204  21.016 -0.4459  0.6090  0.7493
 2764TIP3   OH232486   3.962   5.398  20.288  0.0147  0.1089 -0.5351
 2764TIP3    H132487   3.919   5.418  20.205 -1.0702 -1.8181 -0.5045
 2764TIP3    H232488   4.054   5.418  20.273  0.3418 -2.6082 -3.1874
 2765TIP3   OH232489   2.090   4.311  17.196  0.6268  0.2959 -1.0565
 2765TIP3    H132490   2.108   4.251  17.123  1.2507 -0.5337 -0.2473
 2765TIP3    H232491   2.133   4.271  17.271 -0.1941  1.0164 -0.1723
 2766TIP3   OH232492   2.618   2.002  20.637  0.0027  0.5544 -0.4519
 2766TIP3    H132493   2.657   2.090  20.642 -1.1812  1.0978 -0.5169
 2766TIP3    H232494   2.525   2.018  20.623 -0.3298 -0.7203  0.2146
 2767TIP3   OH232495   4.420   1.647  19.774 -0.5960  0.5053 -0.2971
 2767TIP3    H132496   4.384   1.572  19.726 -0.4957 -0.5905  1.2502
 2767TIP3    H232497   4.509   1.658  19.739 -0.9682  0.5530 -1.2384
 2768TIP3   OH232498   2.808   3.100  17.933  0.0543  0.2284 -0.4035
 2768TIP3    H132499   2.846   3.103  17.845  0.9938  2.4587 -0.0014
 2768TIP3    H232500   2.730   3.155  17.927  1.1862  2.0357  0.5451
 2769TIP3   OH232501   0.307   4.331  19.830  0.4399 -0.0575 -0.1352
 2769TIP3    H132502   0.339   4.296  19.913 -0.0668 -0.5017 -0.1248
 2769TIP3    H232503   0.226   4.283  19.812 -0.9895  1.9760  0.5131
 2770TIP3   OH232504   3.378   1.953  18.417 -0.7599  0.4576  0.5729
 2770TIP3    H132505   3.444   2.014  18.450  0.2934 -0.1960 -0.2256
 2770TIP3    H232506   3.358   1.897  18.493 -1.1791  1.2972  1.1010
 2771TIP3   OH232507   1.194   6.009  19.036 -0.1642 -0.4348 -0.3583
 2771TIP3    H132508   1.208   5.938  19.099  0.4505  0.3531  0.4121
 2771TIP3    H232509   1.277   6.055  19.033 -0.5600  0.2633 -0.8540
 2772TIP3   OH232510   0.965   4.959  19.997 -0.3186 -0.0755 -0.0311
 2772TIP3    H132511   0.997   4.952  20.086  0.2188  0.3902 -0.1868
 2772TIP3    H232512   0.949   4.868  19.970  2.1077 -0.4548 -0.4072
 2773TIP3   OH232513   5.214   0.483  20.177 -0.5878 -0.1340 -0.3679
 2773TIP3    H132514   5.186   0.412  20.235  0.7099 -0.5681 -0.2223
 2773TIP3    H232515   5.140   0.543  20.174 -1.3053 -0.9543  0.3848
 2774TIP3   OH232516   1.842   2.942  19.570  0.0599  0.5963 -0.7099
 2774TIP3    H132517   1.754   2.905  19.578  0.4794 -0.4322 -0.6892
 2774TIP3    H232518   1.828   3.029  19.533 -1.0814  1.1050  0.8177
 2775TIP3   OH232519   2.252   3.052  17.970 -0.3633  0.1699  0.0995
 2775TIP3    H132520   2.191   3.120  17.941  0.1797  0.3468 -0.6503
 2775TIP3    H232521   2.328   3.101  18.001  0.6458 -0.0834 -1.8119
 2776TIP3   OH232522   6.455   1.727  21.303  0.0136  0.3343  0.1252
 2776TIP3    H132523   6.480   1.775  21.382  0.4221  0.6021 -0.1631
 2776TIP3    H232524   6.539   1.703  21.262 -0.1970  0.4885 -0.4033
 2777TIP3   OH232525   0.644   0.977  20.802  0.5828 -0.3073  0.3364
 2777TIP3    H132526   0.642   0.942  20.713 -1.1209  1.0530 -0.2130
 2777TIP3    H232527   0.718   1.037  20.803  0.6996 -0.4438 -0.1209
 2778TIP3   OH232528   5.746   0.093  20.653 -0.1057 -0.2563  0.3481
 2778TIP3    H132529   5.764   0.071  20.562 -0.0184 -0.0772  0.3209
 2778TIP3    H232530   5.802   0.034  20.703  2.3712  1.8224  0.2409
 2779TIP3   OH232531   6.028   4.420  19.006 -0.3187 -0.5703 -0.5154
 2779TIP3    H132532   6.074   4.347  19.049 -0.5940 -0.6277 -0.3184
 2779TIP3    H232533   5.945   4.382  18.976 -0.9350 -0.0898  0.5293
 2780TIP3   OH232534   6.289   0.684  21.269  0.0095  0.2435 -0.0093
 2780TIP3    H132535   6.357   0.633  21.226 -0.2838  0.4886 -0.7760
 2780TIP3    H232536   6.284   0.648  21.358  0.9258  0.0310 -0.0369
 2781TIP3   OH232537   5.634   2.609  20.568 -0.1306 -0.0713 -0.2640
 2781TIP3    H132538   5.676   2.630  20.485 -0.5023  0.3415 -0.3556
 2781TIP3    H232539   5.564   2.548  20.545  0.6793 -1.1006 -0.0561
 2782TIP3   OH232540   0.316   4.649  20.715  0.4521  0.1070 -0.7137
 2782TIP3    H132541   0.241   4.596  20.687 -0.1498 -0.4505  1.7209
 2782TIP3    H232542   0.280   4.707  20.782  1.9046  0.9145 -0.6005
 2783TIP3   OH232543   2.698   5.864  18.315 -0.2051  0.1694 -0.3015
 2783TIP3    H132544   2.633   5.794  18.325 -0.7978  0.1080 -3.4392
 2783TIP3    H232545   2.646   5.944  18.313  0.2184  0.4795  0.7526
 2784TIP3   OH232546   1.436   3.403  20.409  0.2702  0.2568 -0.2530
 2784TIP3    H132547   1.380   3.327  20.425  0.9509 -0.0429  0.8233
 2784TIP3    H232548   1.395   3.447  20.335 -0.6339 -0.6771 -0.3410
 2785TIP3   OH232549   3.140   2.806  20.342 -0.3094  0.0113  0.2192
 2785TIP3    H132550   3.215   2.757  20.376 -0.1982  1.2893  1.9436
 2785TIP3    H232551   3.175   2.894  20.327 -0.8351 -0.0388 -1.5243
 2786TIP3   OH232552   2.010   4.568  19.556  0.0677  0.2536 -0.3808
 2786TIP3    H132553   1.929   4.519  19.570  0.8790 -0.9638  0.2030
 2786TIP3    H232554   1.988   4.631  19.486 -0.7138 -1.6634 -1.9665
 2787TIP3   OH232555   0.367   2.397  19.217  0.5530 -0.1977  0.1906
 2787TIP3    H132556   0.451   2.423  19.254  0.3112  0.3250  0.3907
 2787TIP3    H232557   0.357   2.305  19.242  0.8022 -0.0976  0.6744
 2788TIP3   OH232558   3.900   4.853  18.331  0.4434 -0.1405  0.5604
 2788TIP3    H132559   3.896   4.891  18.418  4.5004  1.0100  0.4574
 2788TIP3    H232560   3.970   4.787  18.337 -0.9838 -1.9579 -1.2458
 2789TIP3   OH232561   5.813   2.305  18.950  0.5100  0.0809  0.1749
 2789TIP3    H132562   5.772   2.267  18.873  0.3932 -0.6864  0.6018
 2789TIP3    H232563   5.906   2.311  18.928  0.1659  2.0149 -0.8701
 2790TIP3   OH232564   2.476   5.430  20.751  0.0139 -0.2478  0.0604
 2790TIP3    H132565   2.477   5.407  20.658  0.4040 -0.9977  0.2463
 2790TIP3    H232566   2.396   5.391  20.784  0.8115 -1.6512  0.4349
 2791TIP3   OH232567   3.441   5.656  17.828 -0.7237 -0.2109  0.3932
 2791TIP3    H132568   3.445   5.562  17.807  0.4896 -0.0005 -0.4551
 2791TIP3    H232569   3.523   5.691  17.792 -0.7138  1.0087  1.5713
 2792TIP3   OH232570   4.974   4.412  20.115  0.3892  0.0423  0.1286
 2792TIP3    H132571   5.042   4.479  20.115  0.4581 -0.0256  0.8232
 2792TIP3    H232572   5.006   4.344  20.173 -0.1888 -0.0734  0.3219
 2793TIP3   OH232573   3.922   1.389  20.681 -0.1709 -0.6404  0.2949
 2793TIP3    H132574   3.958   1.331  20.613  1.4724  0.4546  0.1841
 2793TIP3    H232575   3.911   1.332  20.757 -0.2667 -1.4780 -0.3257
 2794TIP3   OH232576   5.497   4.893  18.772 -0.9729  0.0208 -0.1052
 2794TIP3    H132577   5.549   4.834  18.827  0.4568 -0.5221 -1.9341
 2794TIP3    H232578   5.466   4.961  18.832  0.6217 -0.4584  1.3318
 2795TIP3   OH232579   4.146   3.537  20.135  0.0836 -0.5811  0.4114
 2795TIP3    H132580   4.137   3.442  20.151 -0.7743 -0.8768 -1.5809
 2795TIP3    H232581   4.083   3.555  20.065 -1.6390  1.9709  2.4321
 2796TIP3   OH232582   0.913   3.067  21.509 -0.3000 -0.7228 -0.1171
 2796TIP3    H132583   0.894   2.974  21.496 -0.3744 -0.5490 -1.3568
 2796TIP3    H232584   1.007   3.075  21.492 -0.1476 -0.6640  0.6695
 2797TIP3   OH232585   1.805   0.950  18.034 -0.6516  0.9432  0.2480
 2797TIP3    H132586   1.864   0.877  18.015 -0.5578  0.8832  0.7700
 2797TIP3    H232587   1.739   0.945  17.965 -1.4014 -0.4405  1.0262
 2798TIP3   OH232588   4.119   5.569  18.065  0.4052 -0.6995 -0.1048
 2798TIP3    H132589   4.195   5.628  18.058 -0.4336  0.3192 -1.0074
 2798TIP3    H232590   4.109   5.554  18.159  1.1687 -0.0930  0.0885
 2799TIP3   OH232591   0.803   2.439  21.705 -0.0575  0.0638 -0.0405
 2799TIP3    H132592   0.771   2.378  21.639  0.0017 -2.3513  2.0335
 2799TIP3    H232593   0.725   2.479  21.741 -0.1033  1.2084 -1.3106
 2800TIP3   OH232594   6.240   1.826  20.364  0.0007  0.4101 -0.1853
 2800TIP3    H132595   6.278   1.910  20.389  1.2239 -0.4173  0.8654
 2800TIP3    H232596   6.149   1.846  20.343 -0.3857  1.6504  2.2821
 2801TIP3   OH232597   6.546   2.289  18.874 -0.1967  0.0610 -0.0659
 2801TIP3    H132598   6.492   2.236  18.932 -0.7653  0.8743  0.1712
 2801TIP3    H232599   6.484   2.326  18.811  0.3033 -0.1833 -0.7092
 2802TIP3   OH232600   4.793   1.177  19.519  0.1695 -0.0361 -0.1370
 2802TIP3    H132601   4.856   1.211  19.582  1.1404 -2.7138  0.4895
 2802TIP3    H232602   4.742   1.253  19.491  3.3387  2.1769 -0.2977
 2803TIP3   OH232603   4.184   2.427  19.136 -0.2031 -0.0191  0.5395
 2803TIP3    H132604   4.248   2.486  19.176  0.8627 -1.5688  1.2205
 2803TIP3    H232605   4.233   2.377  19.071 -0.9844 -0.4329  0.2421
 2804TIP3   OH232606   5.536   1.338  19.639 -0.3125 -0.0801  0.6327
 2804TIP3    H132607   5.531   1.420  19.689 -0.5659  0.4776 -0.2725
 2804TIP3    H232608   5.622   1.302  19.661 -0.1991  0.4347  1.0557
 2805TIP3   OH232609   3.383   4.629  18.896 -0.0866 -0.7366  0.1266
 2805TIP3    H132610   3.359   4.715  18.932 -0.0614 -1.0830  0.9976
 2805TIP3    H232611   3.374   4.640  18.801 -1.4768 -0.1873  0.2943
 2806TIP3   OH232612   5.701   1.204  19.052  0.0237  0.2721  0.2650
 2806TIP3    H132613   5.700   1.173  19.142  0.4931 -1.3237 -0.2380
 2806TIP3    H232614   5.611   1.191  19.021  0.0862 -0.0920  0.2275
 2807TIP3   OH232615   6.040   2.004  20.577  0.0262 -0.1102 -0.6635
 2807TIP3    H132616   6.014   1.981  20.487  0.8968 -0.5688 -0.8099
 2807TIP3    H232617   5.967   1.974  20.631 -0.7909  0.7227 -1.2620
 2808TIP3   OH232618   6.257   0.853  20.159  0.5412 -0.0125  0.1729
 2808TIP3    H132619   6.243   0.886  20.071 -0.1147 -0.0297  0.2640
 2808TIP3    H232620   6.196   0.779  20.167  0.9828 -0.3503  0.4521
 2809TIP3   OH232621   1.610   4.557  20.160  0.2721  0.2175 -0.1855
 2809TIP3    H132622   1.632   4.638  20.207 -0.8451  0.2369  0.3459
 2809TIP3    H232623   1.560   4.587  20.083 -0.2570  0.0347  0.0827
 2810TIP3   OH232624   6.300   0.361  21.063 -0.0299 -0.3149  0.4487
 2810TIP3    H132625   6.321   0.274  21.032 -1.1045  0.0544 -1.4599
 2810TIP3    H232626   6.206   0.360  21.077  0.2142 -0.0185  2.3697
 2811TIP3   OH232627   0.544   2.456  18.389 -0.0092 -0.1487 -0.0886
 2811TIP3    H132628   0.502   2.389  18.335  0.3508  0.7073 -1.4946
 2811TIP3    H232629   0.595   2.407  18.453 -1.4645 -1.2028  0.3325
 2812TIP3   OH232630   1.628   5.163  20.298 -0.1295  0.1746 -0.2078
 2812TIP3    H132631   1.577   5.130  20.371  1.5401  0.8846  1.3822
 2812TIP3    H232632   1.565   5.179  20.228 -1.5018 -2.4943  0.3263
 2813TIP3   OH232633   4.381   4.422  20.292  0.6324  0.2936  0.8352
 2813TIP3    H132634   4.342   4.506  20.318 -1.2895 -0.4790  0.5690
 2813TIP3    H232635   4.341   4.358  20.351  2.1122 -0.4605  1.0595
 2814TIP3   OH232636   1.513   0.891  21.320  0.0489 -0.0247  0.9092
 2814TIP3    H132637   1.539   0.888  21.412  1.6034  2.0501  0.6146
 2814TIP3    H232638   1.468   0.975  21.311  2.4303  1.1881 -0.7395
 2815TIP3   OH232639   3.591   2.512  19.565  0.0404 -0.2455 -0.0325
 2815TIP3    H132640   3.513   2.463  19.537 -0.3024 -2.1840  3.6733
 2815TIP3    H232641   3.558   2.572  19.632  1.4773  0.2802  0.2189
 2816TIP3   OH232642   4.285   4.883  17.923 -0.1152 -0.1736 -0.2288
 2816TIP3    H132643   4.274   4.919  17.835  0.0125 -2.9948 -1.5073
 2816TIP3    H232644   4.196   4.862  17.951 -0.1996  1.1263  0.5525
 2817TIP3   OH232645   2.087   4.694  20.248 -0.4069 -0.4251  0.1910
 2817TIP3    H132646   2.070   4.687  20.342  1.9026 -0.1943  0.6685
 2817TIP3    H232647   2.077   4.604  20.215  0.9683 -0.9395  1.0933
 2818TIP3   OH232648   0.050   0.975  20.559  0.2767 -0.5337  0.6480
 2818TIP3    H132649   0.115   0.945  20.495  2.1564  2.3401  0.9985
 2818TIP3    H232650   0.099   1.035  20.616 -2.5902  1.4854  1.2030
 2819TIP3   OH232651   0.578   3.500  21.443  0.3376 -0.8980  0.3283
 2819TIP3    H132652   0.663   3.537  21.421  0.5805 -1.7665 -0.2474
 2819TIP3    H232653   0.598   3.432  21.508 -0.0317 -0.4443  0.9256
 2820TIP3   OH232654   2.952   1.886  21.026 -0.0505 -0.6722  0.0972
 2820TIP3    H132655   2.943   1.827  20.951 -1.0325 -0.8372  0.3270
 2820TIP3    H232656   2.995   1.833  21.093 -0.0548 -0.8294 -0.0225
 2821TIP3   OH232657   0.261   2.198  20.095  0.3332  0.1507 -0.3137
 2821TIP3    H132658   0.206   2.138  20.146 -0.8524  0.4936 -1.1215
 2821TIP3    H232659   0.254   2.282  20.141 -0.3740  0.3486 -0.7469
 2822TIP3   OH232660   3.860   5.632  21.419  0.5541  0.5549  0.4101
 2822TIP3    H132661   3.776   5.666  21.388 -0.6472 -1.5343  1.1665
 2822TIP3    H232662   3.851   5.537  21.414  2.8378  0.2563  0.6936
 2823TIP3   OH232663   2.895   1.975  19.172  0.5597  0.4224 -0.1819
 2823TIP3    H132664   2.835   1.906  19.200 -0.4549  1.3839  0.1030
 2823TIP3    H232665   2.981   1.933  19.171  0.1375 -0.5569  1.0417
 2824TIP3   OH232666   6.450   3.831  21.327 -0.7506  0.0468 -0.4216
 2824TIP3    H132667   6.454   3.737  21.342 -4.4591 -0.0795  0.5463
 2824TIP3    H232668   6.387   3.864  21.391  0.8579  3.3639 -0.2871
 2825TIP3   OH232669   1.180   6.108  20.780 -0.4236  0.5853  0.3795
 2825TIP3    H132670   1.171   6.148  20.694  0.9038  0.6783  0.2606
 2825TIP3    H232671   1.231   6.171  20.831  2.4992 -1.2135 -0.0737
 2826TIP3   OH232672   0.633   5.620  19.948  0.0221 -0.8187  0.1699
 2826TIP3    H132673   0.637   5.527  19.927 -0.2622 -0.9300  0.6079
 2826TIP3    H232674   0.559   5.653  19.898  0.0850 -0.8377  0.0628
 2827TIP3   OH232675   3.521   4.373  18.152  0.0650 -0.5077 -0.3253
 2827TIP3    H132676   3.464   4.331  18.217  0.6831  0.0203  0.5753
 2827TIP3    H232677   3.566   4.300  18.109  0.2589 -0.8353  0.4160
 2828TIP3   OH232678   4.068   2.862  20.330  0.8665  0.0844 -0.2466
 2828TIP3    H132679   4.084   2.909  20.412 -1.1557 -0.8818  0.7966
 2828TIP3    H232680   4.037   2.776  20.358 -2.1475  0.4878 -1.8939
 2829TIP3   OH232681   3.301   0.317  19.769  0.0200 -0.6147  0.3940
 2829TIP3    H132682   3.276   0.284  19.683 -1.0747 -0.4036  0.6111
 2829TIP3    H232683   3.259   0.403  19.774  0.4408 -0.4396  0.9632
 2830TIP3   OH232684   4.049   5.355  21.320  0.1159 -0.4562 -0.1004
 2830TIP3    H132685   3.975   5.372  21.262  0.2087 -0.0009 -0.0880
 2830TIP3    H232686   4.120   5.408  21.285  0.3978 -0.7784 -0.0278
 2831TIP3   OH232687   5.294   3.388  19.818  0.2989 -0.4363  0.0417
 2831TIP3    H132688   5.286   3.369  19.912 -1.8556 -0.8259 -0.1662
 2831TIP3    H232689   5.203   3.395  19.788  0.9647  0.7009 -1.8241
 2832TIP3   OH232690   1.287   3.967  18.980  0.1537  0.1738 -0.0436
 2832TIP3    H132691   1.269   3.986  18.888 -0.3472  0.3055  0.0776
 2832TIP3    H232692   1.324   4.048  19.015 -0.6433  0.4850  0.1225
 2833TIP3   OH232693   0.942   6.327  20.926  0.2679 -0.1111 -0.7095
 2833TIP3    H132694   0.896   6.308  20.844 -0.7750  0.3954 -0.2614
 2833TIP3    H232695   0.996   6.403  20.907  1.7992 -1.3652 -1.5487
 2834TIP3   OH232696   5.616   0.588  21.105  0.2608 -0.5192 -0.1687
 2834TIP3    H132697   5.685   0.652  21.086 -0.1805 -0.5268 -2.0807
 2834TIP3    H232698   5.662   0.514  21.144  1.3723 -0.5553 -1.4647
 2835TIP3   OH232699   0.873   1.897  18.435  0.2513  0.2808  0.5815
 2835TIP3    H132700   0.914   1.892  18.522  1.7771  0.1381 -0.1105
 2835TIP3    H232701   0.783   1.925  18.452  0.0563 -1.2609  2.3309
 2836TIP3   OH232702   1.387   5.021  20.803  0.3892 -0.1645  0.7464
 2836TIP3    H132703   1.306   4.971  20.790  0.9917 -0.7677 -0.9429
 2836TIP3    H232704   1.446   4.961  20.849  0.3704 -0.2204  0.6958
 2837TIP3   OH232705   0.857   6.103  19.151  0.1926 -0.0240  0.1724
 2837TIP3    H132706   0.863   6.196  19.129  3.4825 -0.0549  0.4234
 2837TIP3    H232707   0.798   6.066  19.085  0.9927  1.7824 -1.6697
 2838TIP3   OH232708   1.423   5.402  20.967 -0.0306  0.0832  0.6141
 2838TIP3    H132709   1.516   5.424  20.963  0.0365  0.1975  2.1749
 2838TIP3    H232710   1.421   5.313  21.003 -0.5204  0.0220  0.4446
 2839TIP3   OH232711   3.780   2.309  21.231 -0.0937  0.2873  0.0630
 2839TIP3    H132712   3.867   2.273  21.214  1.0992  3.5049 -1.3809
 2839TIP3    H232713   3.721   2.234  21.222  2.4512 -2.0464  1.2297
 2840TIP3   OH232714   6.516   3.822  19.598  0.1515 -0.7584  0.6106
 2840TIP3    H132715   6.559   3.752  19.547  0.6364 -0.8471  1.1315
 2840TIP3    H232716   6.429   3.787  19.617 -0.5180 -0.2074 -1.2358
 2841TIP3   OH232717   6.150   6.558  20.003 -0.6426 -0.6107 -0.1326
 2841TIP3    H132718   6.159   6.556  19.908 -0.2729 -2.2353 -0.0764
 2841TIP3    H232719   6.062   6.523  20.019 -0.9028  0.1265  0.1237
 2842TIP3   OH232720   1.719   1.418  21.150  0.0265  0.0414  0.9147
 2842TIP3    H132721   1.673   1.334  21.152 -0.9133  0.5218  0.2317
 2842TIP3    H232722   1.795   1.405  21.206 -2.1106 -0.1095  4.0674
 2843TIP3   OH232723   5.820   4.938  20.884  0.3434 -0.3445  0.1870
 2843TIP3    H132724   5.826   4.986  20.802 -2.1643  0.5116  0.4016
 2843TIP3    H232725   5.838   5.003  20.952  0.3265 -0.5234  0.3639
 2844TIP3   OH232726   0.665   2.261  19.123  0.7627 -0.0409 -0.1457
 2844TIP3    H132727   0.697   2.288  19.209 -1.0978  0.7480  0.3377
 2844TIP3    H232728   0.632   2.172  19.137  1.7528 -0.4653 -0.4088
 2845TIP3   OH232729   2.401   5.777  20.424  0.0901 -0.4994 -0.1269
 2845TIP3    H132730   2.354   5.860  20.431 -0.2110 -0.5572 -1.1800
 2845TIP3    H232731   2.458   5.774  20.500 -1.0504 -0.0568  0.7751
 2846TIP3   OH232732   6.589   4.853  18.922  0.0999  0.4206  0.4092
 2846TIP3    H132733   6.566   4.924  18.862  1.5395  2.1378  1.7567
 2846TIP3    H232734   6.584   4.893  19.009 -0.5199 -1.5848  1.3608
 2847TIP3   OH232735   1.599   5.906  19.034  0.3576  0.1634  0.7195
 2847TIP3    H132736   1.669   5.924  18.971 -0.3509  1.7755  0.3425
 2847TIP3    H232737   1.536   5.852  18.986  0.3440  0.4739  0.3872
 2848TIP3   OH232738   3.341   0.331  20.103 -0.1133  0.2445 -0.4225
 2848TIP3    H132739   3.246   0.341  20.103 -0.4102 -1.0927 -4.3079
 2848TIP3    H232740   3.375   0.420  20.091 -0.9446  0.5369 -0.6325
 2849TIP3   OH232741   0.992   1.342  18.634  0.7217  0.1857 -0.5772
 2849TIP3    H132742   1.072   1.358  18.684 -0.8180 -0.2361  2.2189
 2849TIP3    H232743   0.968   1.428  18.599  0.7547  0.9625  1.2042
 2850TIP3   OH232744   4.416   3.201  18.002  0.0953  0.2258 -0.3483
 2850TIP3    H132745   4.430   3.107  17.998 -2.4401 -0.2231 -0.3537
 2850TIP3    H232746   4.502   3.238  18.022  0.9092 -2.1606  0.8772
 2851TIP3   OH232747   6.431   3.492  17.981 -0.2935  0.0009  0.0624
 2851TIP3    H132748   6.471   3.510  17.896 -0.5740 -0.3272 -0.1398
 2851TIP3    H232749   6.458   3.566  18.036 -0.3471  0.3598 -0.3875
 2852TIP3   OH232750   1.802   0.513  19.301  0.4809  0.0702  0.6074
 2852TIP3    H132751   1.866   0.452  19.265 -0.8466 -1.6953  1.0843
 2852TIP3    H232752   1.752   0.543  19.225  1.1741  0.6443  0.3642
 2853TIP3   OH232753   2.134   0.104  19.468  0.2836 -0.1555  0.1220
 2853TIP3    H132754   2.199   0.036  19.486 -0.2303 -0.6988 -0.0617
 2853TIP3    H232755   2.070   0.095  19.539  1.0068  1.1474  0.9859
 2854TIP3   OH232756   6.362   0.301  19.902 -0.4667  0.3131 -0.3027
 2854TIP3    H132757   6.406   0.236  19.847  0.7942  0.9609 -0.0913
 2854TIP3    H232758   6.297   0.341  19.844 -0.7685 -0.6212 -0.6342
 2855TIP3   OH232759   1.188   2.055  20.649  0.1436 -0.0088 -0.1059
 2855TIP3    H132760   1.201   1.991  20.579 -0.9333  0.4973 -0.8028
 2855TIP3    H232761   1.261   2.116  20.639  1.0345 -0.9683  0.4046
 2856TIP3   OH232762   5.109   2.164  20.469 -0.1709 -0.1245 -0.0987
 2856TIP3    H132763   5.072   2.117  20.543 -0.0207 -0.3771 -0.1827
 2856TIP3    H232764   5.199   2.182  20.494 -1.0320  2.9146  1.2807
 2857TIP3   OH232765   5.277   0.957  18.326 -0.4326  0.2020  0.2223
 2857TIP3    H132766   5.279   0.949  18.231 -0.2373  0.2223  0.2242
 2857TIP3    H232767   5.190   0.991  18.346 -0.0963  1.2150 -0.0196
 2858TIP3   OH232768   5.008   2.000  18.707  0.1711  0.4989  0.5233
 2858TIP3    H132769   5.070   1.928  18.717  0.8129  0.7894 -1.0775
 2858TIP3    H232770   5.022   2.054  18.785  0.6557 -0.3641  1.0557
 2859TIP3   OH232771   0.851   4.429  19.415 -0.2605  0.7293  0.3397
 2859TIP3    H132772   0.793   4.373  19.466 -1.0538  1.5187  0.3232
 2859TIP3    H232773   0.793   4.490  19.370  0.3220 -0.4944 -2.2832
 2860TIP3   OH232774   2.397   6.588  18.881  0.6142 -0.0108  0.5995
 2860TIP3    H132775   2.323   6.627  18.835 -0.0080 -1.8986 -0.0806
 2860TIP3    H232776   2.372   6.592  18.974  0.6435  1.2999  0.5671
 2861TIP3   OH232777   4.919   2.753  18.908  0.4139  0.3294 -0.2623
 2861TIP3    H132778   4.864   2.791  18.977 -2.0028  0.2100 -1.9943
 2861TIP3    H232779   4.921   2.660  18.928  3.1330  0.7106  1.8163
 2862TIP3   OH232780   5.559   3.659  20.914 -0.1541 -0.3801 -0.6734
 2862TIP3    H132781   5.570   3.750  20.886  1.8000  0.2003  1.6025
 2862TIP3    H232782   5.592   3.607  20.841  1.0938  0.8564 -1.0371
 2863TIP3   OH232783   3.240   0.396  18.354  1.2741 -0.5352  0.3898
 2863TIP3    H132784   3.316   0.448  18.380 -0.2056  1.7311  0.3806
 2863TIP3    H232785   3.217   0.429  18.267 -0.0941 -0.7391  0.6604
 2864TIP3   OH232786   4.545   5.546  20.197 -0.2131  0.3695  0.2036
 2864TIP3    H132787   4.453   5.536  20.221 -0.8282  1.1352 -1.6190
 2864TIP3    H232788   4.555   5.496  20.116  0.6508  1.2458 -0.2608
 2865TIP3   OH232789   4.462   0.171  19.185 -0.2428  0.1000  0.4920
 2865TIP3    H132790   4.438   0.079  19.175 -1.2807  0.3992  0.0940
 2865TIP3    H232791   4.493   0.198  19.099 -1.6780  0.5919  0.1059
 2866TIP3   OH232792   3.649   6.144  19.968 -0.2130 -0.0349 -0.3853
 2866TIP3    H132793   3.624   6.236  19.970  0.1802  0.0532  0.8749
 2866TIP3    H232794   3.637   6.113  20.057 -0.8390 -1.3568 -0.9037
 2867TIP3   OH232795   0.227   2.433  20.538  0.3637 -0.1109  0.6049
 2867TIP3    H132796   0.139   2.470  20.542  0.9317  1.3173  0.5265
 2867TIP3    H232797   0.263   2.446  20.625  1.4748  1.9271 -0.0967
 2868TIP3   OH232798   4.506   4.972  20.928  0.2890 -0.2119  0.1045
 2868TIP3    H132799   4.441   4.998  20.993  0.2872  0.0514 -0.0036
 2868TIP3    H232800   4.589   4.973  20.976  0.1760 -0.8512  0.3221
 2869TIP3   OH232801   6.026   4.698  19.610  0.5266 -0.0379  1.0161
 2869TIP3    H132802   5.948   4.647  19.631  0.3969  0.0339  0.7182
 2869TIP3    H232803   6.082   4.689  19.687  0.1647  0.0269  1.2939
 2870TIP3   OH232804   4.732   4.807  19.541  0.2084  0.7718 -0.7110
 2870TIP3    H132805   4.820   4.783  19.512  0.7865  2.6767 -0.6817
 2870TIP3    H232806   4.691   4.848  19.465 -1.5284 -2.0583 -1.4159
 2871TIP3   OH232807   0.003   3.091  19.469  0.5027 -0.2846 -0.2571
 2871TIP3    H132808  -0.004   3.104  19.374  0.3404 -2.2655 -0.5649
 2871TIP3    H232809  -0.082   3.053  19.494 -0.4422  2.5475  1.1758
 2872TIP3   OH232810   6.523   6.439  18.802 -0.1524  0.0736 -0.2394
 2872TIP3    H132811   6.473   6.365  18.768  0.0707 -0.4448  0.5262
 2872TIP3    H232812   6.603   6.400  18.836  0.2748  0.7577 -0.4421
 2873TIP3   OH232813   3.568   4.676  18.346 -0.3719 -0.4788  0.7034
 2873TIP3    H132814   3.550   4.761  18.386 -0.5088 -0.2929  0.2558
 2873TIP3    H232815   3.652   4.688  18.302 -0.7792 -0.3141 -0.0595
 2874TIP3   OH232816   2.000   2.307  19.202 -0.0504  0.6057 -0.2509
 2874TIP3    H132817   2.005   2.401  19.214  1.9749  0.4704  0.2529
 2874TIP3    H232818   2.083   2.273  19.235 -0.3771 -1.2787 -1.1813
 2875TIP3   OH232819   5.035   0.149  20.954  0.4413  0.1760 -0.0215
 2875TIP3    H132820   5.058   0.137  21.046 -2.1935 -1.6977  0.5002
 2875TIP3    H232821   5.067   0.071  20.910 -2.7388 -1.5035  0.3680
 2876TIP3   OH232822   1.564   3.777  21.455 -0.4136  0.1974 -0.2446
 2876TIP3    H132823   1.492   3.776  21.519 -0.5999 -0.4420 -0.4578
 2876TIP3    H232824   1.640   3.746  21.504 -0.0366  1.8143  0.2472
 2877TIP3   OH232825   1.688   5.590  20.018  0.1219 -0.2944 -0.0916
 2877TIP3    H132826   1.624   5.553  20.079  1.9139 -1.3448  1.2542
 2877TIP3    H232827   1.728   5.514  19.975  0.9101  0.2881 -0.4226
 2878TIP3   OH232828   5.538   2.212  18.454 -0.5509 -0.0229  0.3843
 2878TIP3    H132829   5.473   2.150  18.488  0.4733 -0.8252  0.9579
 2878TIP3    H232830   5.488   2.292  18.437 -2.1464 -1.2944 -1.4354
 2879TIP3   OH232831   5.489   0.914  21.155  0.2578  0.1540 -0.0980
 2879TIP3    H132832   5.470   0.851  21.086 -1.4217  0.6977 -0.1736
 2879TIP3    H232833   5.425   0.984  21.143  1.7247  1.6476  0.3117
 2880TIP3   OH232834   0.076   1.917  20.558  0.0605 -0.7342  0.2855
 2880TIP3    H132835   0.005   1.853  20.562 -0.2219 -0.4013  0.7291
 2880TIP3    H232836   0.057   1.971  20.481 -0.7976  0.0641  1.0328
 2881TIP3   OH232837   0.526   4.565  19.736  0.6912 -0.1918  0.5797
 2881TIP3    H132838   0.558   4.518  19.813  0.7327 -1.0878  0.0256
 2881TIP3    H232839   0.491   4.647  19.771  0.9385 -0.4742  1.5210
 2882TIP3   OH232840   0.552   1.846  18.173 -0.0027 -0.0335 -0.4078
 2882TIP3    H132841   0.615   1.793  18.124  0.5639  0.4147 -0.1810
 2882TIP3    H232842   0.539   1.924  18.120 -0.1202  0.0223 -0.2987
 2883TIP3   OH232843   4.537   5.110  19.582  0.4444  0.2361  0.5644
 2883TIP3    H132844   4.629   5.103  19.606  0.6398 -0.8140 -0.4078
 2883TIP3    H232845   4.509   5.019  19.567 -1.1183  0.4126  2.1505
 2884TIP3   OH232846   5.672   1.919  20.451 -0.3096 -0.3725  0.0684
 2884TIP3    H132847   5.624   1.836  20.460  0.1165 -0.4241  3.2810
 2884TIP3    H232848   5.751   1.895  20.403 -0.1938 -1.8904  0.9244
 2885TIP3   OH232849   4.292   4.003  19.507  0.5050  0.3209 -0.3418
 2885TIP3    H132850   4.377   4.042  19.530  1.4375 -1.0159 -1.3271
 2885TIP3    H232851   4.310   3.954  19.426 -1.1563 -0.2233 -0.4149
 2886TIP3   OH232852   1.559   2.438  20.244  0.1127 -0.2655  0.3054
 2886TIP3    H132853   1.609   2.386  20.180 -1.1642  0.2590 -1.1925
 2886TIP3    H232854   1.467   2.425  20.218 -0.3057  1.8776  0.5471
 2887TIP3   OH232855   6.122   0.946  21.184 -0.1745  0.5792 -0.2318
 2887TIP3    H132856   6.209   0.931  21.222 -0.4118 -1.8189 -0.4501
 2887TIP3    H232857   6.064   0.954  21.259 -0.3502 -2.2164  0.0326
 2888TIP3   OH232858   5.843   3.119  21.392  0.6101  0.1396 -0.2845
 2888TIP3    H132859   5.871   3.175  21.320  4.5390 -0.7280  0.3168
 2888TIP3    H232860   5.883   3.157  21.470 -0.3834 -1.0381  0.8616
 2889TIP3   OH232861   6.033   2.194  20.163 -0.0786 -0.2517  0.6586
 2889TIP3    H132862   6.038   2.110  20.208 -0.1830  0.7279  2.5562
 2889TIP3    H232863   5.962   2.241  20.206 -0.2097  0.7273 -0.5591
 2890TIP3   OH232864   0.924   3.465  21.202  0.4448  0.1585 -0.5113
 2890TIP3    H132865   0.882   3.385  21.232 -1.1577  0.7087 -1.1838
 2890TIP3    H232866   0.991   3.436  21.141  1.8041 -0.7990  1.3502
 2891TIP3   OH232867   3.752   0.558  18.011 -0.3994 -0.1951 -0.0558
 2891TIP3    H132868   3.708   0.517  17.937  0.4539 -0.3479 -0.4924
 2891TIP3    H232869   3.723   0.649  18.008 -0.8979 -0.3557 -0.1690
 2892TIP3   OH232870   1.086   6.503  20.254  0.6776 -0.1241  0.2865
 2892TIP3    H132871   1.088   6.410  20.232  2.6030 -0.0705  0.0235
 2892TIP3    H232872   1.148   6.543  20.193 -0.2208  1.3694  0.3051
 2893TIP3   OH232873   4.329   4.961  19.262 -0.5600  0.3737 -0.2343
 2893TIP3    H132874   4.264   5.032  19.263 -1.3787 -0.3371  0.9493
 2893TIP3    H232875   4.282   4.887  19.223 -0.5770 -0.2210  0.8666
 2894TIP3   OH232876   6.058   2.141  21.259 -1.0801 -0.1133 -0.0674
 2894TIP3    H132877   6.008   2.061  21.277 -1.5468  0.4425  1.2066
 2894TIP3    H232878   5.993   2.207  21.238 -0.8878  0.5102  1.1961
 2895TIP3   OH232879   5.235   0.720  20.428  0.6931  0.5625  0.0752
 2895TIP3    H132880   5.276   0.636  20.405 -0.0190  0.7423 -2.1399
 2895TIP3    H232881   5.193   0.704  20.512 -0.6680 -1.7889 -0.9594
 2896TIP3   OH232882   3.284   2.785  18.817  0.1930  0.2673 -0.1205
 2896TIP3    H132883   3.324   2.786  18.730 -1.9483  1.4370 -1.1698
 2896TIP3    H232884   3.259   2.876  18.833 -2.3638 -0.4355  0.2537
 2897TIP3   OH232885   1.259   5.806  19.216  0.7156  0.2684  0.0223
 2897TIP3    H132886   1.259   5.730  19.157 -3.1376  0.0527  0.0264
 2897TIP3    H232887   1.303   5.774  19.295  2.2318 -0.7883 -1.1829
 2898TIP3   OH232888   5.033   5.902  21.314  0.2529  0.2844 -0.0933
 2898TIP3    H132889   4.943   5.918  21.285 -0.0851  1.5976  1.4946
 2898TIP3    H232890   5.041   5.807  21.315 -1.3571  0.1116  0.3453
 2899TIP3   OH232891   5.677   3.011  20.126 -0.0590 -0.6167 -0.0786
 2899TIP3    H132892   5.638   3.048  20.205 -2.5671 -0.2605 -1.4073
 2899TIP3    H232893   5.656   3.073  20.056  0.3687 -1.8957 -1.3993
 2900TIP3   OH232894   5.589   4.520  19.157  0.0593 -0.4806 -0.8373
 2900TIP3    H132895   5.642   4.545  19.233 -2.9605  0.8110  1.0418
 2900TIP3    H232896   5.586   4.425  19.159 -0.3962 -0.4555  1.0516
 2901TIP3   OH232897   4.558   4.823  18.354 -0.0846  0.0475  0.8203
 2901TIP3    H132898   4.575   4.792  18.265  0.8806 -0.4198  1.1470
 2901TIP3    H232899   4.608   4.763  18.410 -0.5306  0.4437  1.6705
 2902TIP3   OH232900   6.219   4.403  21.330 -0.3276 -0.2058  0.2988
 2902TIP3    H132901   6.290   4.338  21.326 -1.0903 -1.0702  0.3686
 2902TIP3    H232902   6.144   4.353  21.362 -1.4176  0.2751 -1.3652
 2903TIP3   OH232903   4.365   5.692  21.381 -0.7820  0.5850  0.1016
 2903TIP3    H132904   4.438   5.631  21.389  0.3397  2.0340  1.9927
 2903TIP3    H232905   4.399   5.763  21.326 -1.3101  0.5437 -0.2810
 2904TIP3   OH232906   0.923   2.441  20.127  0.3738  0.3560  0.0305
 2904TIP3    H132907   0.977   2.520  20.134  1.4126 -0.4412  1.5016
 2904TIP3    H232908   0.838   2.468  20.161  0.5549  1.0039 -0.0082
 2905TIP3   OH232909   5.871   6.038  19.777 -0.0384 -0.4586 -0.4727
 2905TIP3    H132910   5.823   6.092  19.840 -0.9536 -1.9603  0.1730
 2905TIP3    H232911   5.908   6.101  19.715 -0.1281  0.9803  0.8590
 2906TIP3   OH232912   1.616   5.887  18.651  0.4024 -0.1016  0.3840
 2906TIP3    H132913   1.578   5.945  18.586 -1.1806 -2.1697 -0.6768
 2906TIP3    H232914   1.710   5.894  18.639  0.2929  2.3521  0.4834
 2907TIP3   OH232915   1.074   4.400  20.542  0.7050 -0.2020 -0.1602
 2907TIP3    H132916   1.055   4.333  20.476 -0.7391  1.1679 -1.2157
 2907TIP3    H232917   1.162   4.431  20.519  0.4654 -0.1687 -1.0765
 2908TIP3   OH232918   4.223   1.056  20.886  0.1343 -0.0003  0.0191
 2908TIP3    H132919   4.144   1.020  20.927  0.7497  0.2189  1.4524
 2908TIP3    H232920   4.221   1.149  20.908 -0.0451  0.3437 -1.3588
 2909TIP3   OH232921   3.720   2.575  21.161  0.8338 -0.0339  0.2217
 2909TIP3    H132922   3.752   2.485  21.166  2.2049  0.4897  1.4261
 2909TIP3    H232923   3.667   2.587  21.240  0.5215  0.1795 -0.0152
 2910TIP3   OH232924   4.793   1.813  18.141 -0.2065  0.9603  0.0232
 2910TIP3    H132925   4.715   1.760  18.155  0.3694  0.0934  0.0328
 2910TIP3    H232926   4.840   1.808  18.224  0.3076  0.7123 -0.2787
 2911TIP3   OH232927   3.256   1.818  20.022 -0.6379 -0.6808 -0.0594
 2911TIP3    H132928   3.174   1.823  19.972 -0.6797 -0.1007  0.0675
 2911TIP3    H232929   3.254   1.893  20.080 -0.2056 -0.9003  0.2455
 2912TIP3   OH232930   2.325   4.393  20.287 -0.6697 -0.1016  0.3806
 2912TIP3    H132931   2.309   4.356  20.200  1.0547 -0.9801  0.3943
 2912TIP3    H232932   2.385   4.466  20.271 -0.1143 -0.4475  0.8334
 2913TIP3   OH232933   1.457   1.035  19.705 -0.2319  0.1067  0.4125
 2913TIP3    H132934   1.517   0.987  19.762 -0.3999 -0.8176 -0.1723
 2913TIP3    H232935   1.457   1.124  19.740  1.2126  0.0430  0.6393
 2914TIP3   OH232936   3.436   4.747  20.926  0.3482  0.2591  0.3258
 2914TIP3    H132937   3.391   4.822  20.963  1.1448  1.2034 -0.5432
 2914TIP3    H232938   3.371   4.702  20.873  0.0205  0.6802  0.3750
 2915TIP3   OH232939   0.227   3.586  20.451 -0.0421  0.0807 -0.5843
 2915TIP3    H132940   0.315   3.619  20.470 -0.8865  2.2032 -0.0103
 2915TIP3    H232941   0.236   3.541  20.367  1.5889  0.1951 -0.5160
 2916TIP3   OH232942   4.627   6.147  19.984 -0.3023 -0.1077 -0.0425
 2916TIP3    H132943   4.650   6.138  20.076  0.0773 -0.6965 -0.1935
 2916TIP3    H232944   4.582   6.065  19.962 -0.3444  0.0073 -0.3972
 2917TIP3   OH232945   6.054   0.968  17.929 -0.3468 -0.0297 -0.2674
 2917TIP3    H132946   6.142   0.950  17.895  0.1617 -1.1118  1.5085
 2917TIP3    H232947   6.066   1.041  17.989 -0.5968 -0.3344  0.1630
 2918TIP3   OH232948   3.050   6.190  20.016  0.4413 -0.2422 -0.2469
 2918TIP3    H132949   3.000   6.111  20.036 -1.1983  1.5982  4.2222
 2918TIP3    H232950   3.134   6.177  20.059  0.0967  0.3920  0.6743
 2919TIP3   OH232951   3.894   5.485  18.604 -0.1307 -0.4325  0.3374
 2919TIP3    H132952   3.960   5.481  18.536  0.0291 -0.2473  0.4800
 2919TIP3    H232953   3.939   5.456  18.683  0.3169  1.4687  0.8376
 2920TIP3   OH232954   0.544   3.627  19.685 -0.5651  0.1210  0.3184
 2920TIP3    H132955   0.568   3.707  19.731  0.7531  0.8338 -1.4638
 2920TIP3    H232956   0.476   3.655  19.623 -0.2313 -0.1568 -0.1810
 2921TIP3   OH232957   6.535   4.432  19.358 -0.1070 -0.3781  0.1680
 2921TIP3    H132958   6.454   4.408  19.404 -0.2893 -1.8544 -0.8711
 2921TIP3    H232959   6.517   4.414  19.266  0.7657  1.1240 -0.3454
 2922TIP3   OH232960   2.452   0.373  20.248  0.2213  0.1663 -0.2507
 2922TIP3    H132961   2.511   0.298  20.252  0.0109  0.0273  0.3154
 2922TIP3    H232962   2.366   0.334  20.232  0.0604  0.2631  0.3873
 2923TIP3   OH232963   1.746   3.815  21.061 -0.2236  0.7102 -0.1133
 2923TIP3    H132964   1.825   3.867  21.073  1.4497 -1.3787 -1.3246
 2923TIP3    H232965   1.749   3.789  20.969 -2.2335  0.4009 -0.1195
 2924TIP3   OH232966   3.799   5.271  18.422 -0.4555  0.2914  0.0304
 2924TIP3    H132967   3.815   5.358  18.457  1.4541  0.1537 -0.4020
 2924TIP3    H232968   3.876   5.220  18.447 -0.8422 -0.8753 -1.0195
 2925TIP3   OH232969   3.820   2.397  18.638 -0.3806 -0.2167 -0.5298
 2925TIP3    H132970   3.816   2.331  18.707  0.0931 -0.4469 -0.7228
 2925TIP3    H232971   3.908   2.390  18.602  0.1355  1.4156  0.3319
 2926TIP3   OH232972   0.927   0.005  18.218 -0.4710 -0.0976  0.3341
 2926TIP3    H132973   1.015  -0.032  18.206 -0.2119 -0.0012  1.7136
 2926TIP3    H232974   0.925   0.080  18.159 -0.2261 -1.0519 -0.9120
 2927TIP3   OH232975   2.094   4.136  20.330 -0.4319 -0.0369  0.2651
 2927TIP3    H132976   2.101   4.194  20.406 -1.9535  1.1708 -0.4442
 2927TIP3    H232977   2.161   4.167  20.269  1.0347 -1.2387  1.2091
 2928TIP3   OH232978   5.226   6.189  19.560 -0.0176  0.4535  0.1225
 2928TIP3    H132979   5.248   6.229  19.644  0.4142  0.4572  0.0094
 2928TIP3    H232980   5.310   6.179  19.515 -0.0528 -1.0836  0.3716
 2929TIP3   OH232981   2.731   3.555  19.252  0.0409  0.5578 -0.4915
 2929TIP3    H132982   2.702   3.511  19.332  0.0391 -0.5075 -1.0613
 2929TIP3    H232983   2.662   3.536  19.188  0.8689 -0.0692 -1.2202
 2930TIP3   OH232984   0.471   0.075  18.452 -0.0509 -0.7649  0.0196
 2930TIP3    H132985   0.551   0.040  18.414  0.3925 -0.9900  1.1266
 2930TIP3    H232986   0.464   0.164  18.415  0.3656 -0.9648 -0.5560
 2931TIP3   OH232987   3.653   4.016  20.226  0.0293 -0.0433 -0.1734
 2931TIP3    H132988   3.664   4.024  20.131  1.8070  2.8310  0.1396
 2931TIP3    H232989   3.700   4.091  20.262  1.6363 -2.3689  3.1616
 2932TIP3   OH232990   2.011   3.910  17.989  0.0644 -0.3720 -0.1702
 2932TIP3    H132991   1.938   3.911  18.051  0.1434  0.9424 -0.0712
 2932TIP3    H232992   2.025   4.002  17.966  2.1997 -0.4889  0.4294
 2933TIP3   OH232993   0.383   4.467  21.080 -0.6740 -0.6364 -0.5353
 2933TIP3    H132994   0.377   4.559  21.054  2.2960 -0.3066 -0.3912
 2933TIP3    H232995   0.433   4.469  21.162 -3.3758 -2.2176  1.3112
 2934TIP3   OH232996   4.525   1.025  21.181 -0.2503  0.0439  0.5166
 2934TIP3    H132997   4.526   1.113  21.143 -1.6445  0.3133  1.0416
 2934TIP3    H232998   4.520   0.966  21.106  1.9435  0.3070  0.0880
 2935TIP3   OH232999   1.937   0.613  18.261  0.5084 -0.3135 -0.1288
 2935TIP3    H133000   2.010   0.581  18.208 -0.4705 -1.2325 -0.9716
 2935TIP3    H233001   1.865   0.552  18.244 -0.6944  0.9660  0.0816
 2936TIP3   OH233002   4.280   1.900  21.086 -0.0255 -0.1545 -0.0334
 2936TIP3    H133003   4.247   1.814  21.062 -0.8194  0.4615 -1.2626
 2936TIP3    H233004   4.362   1.883  21.132 -1.8541 -1.7560  2.9390
 2937TIP3   OH233005   0.103   0.643  19.028 -0.8979 -0.3318 -0.8866
 2937TIP3    H133006   0.107   0.712  18.961 -1.0405  1.7559  1.1346
 2937TIP3    H233007   0.191   0.605  19.029 -0.9648 -0.5964 -2.3981
 2938TIP3   OH233008   1.935   0.119  19.273  1.1909  0.0538 -0.6705
 2938TIP3    H133009   2.004   0.142  19.335  0.2374  1.5036 -0.1020
 2938TIP3    H233010   1.934   0.192  19.211 -1.8604  1.7242  1.1223
 2939TIP3   OH233011   1.955   4.330  21.033 -0.0587  0.0874 -0.0500
 2939TIP3    H133012   1.976   4.236  21.033 -0.8040 -0.0879  0.1780
 2939TIP3    H233013   1.987   4.361  21.118 -1.4013 -0.3510  0.6459
 2940TIP3   OH233014   4.602   2.374  18.646 -0.3494  0.2457  0.3036
 2940TIP3    H133015   4.542   2.392  18.574  0.9592  0.6923 -0.6983
 2940TIP3    H233016   4.688   2.398  18.613  0.4675 -0.8085  1.5559
 2941TIP3   OH233017   5.805   0.892  18.736  0.4852 -0.2383  0.1366
 2941TIP3    H133018   5.853   0.888  18.818 -0.8048  3.6103  1.2931
 2941TIP3    H233019   5.862   0.940  18.677  0.9124 -1.9691 -0.9351
 2942TIP3   OH233020   1.119   5.076  21.144 -0.0370 -0.1726 -0.1054
 2942TIP3    H133021   1.178   5.012  21.104 -1.6346 -1.4238 -0.5501
 2942TIP3    H233022   1.120   5.055  21.237 -0.0942 -0.4585 -0.1683
 2943TIP3   OH233023   4.785   5.681  18.566  0.2534 -0.0062  0.0667
 2943TIP3    H133024   4.704   5.706  18.610  0.1675 -0.7116  0.3252
 2943TIP3    H233025   4.839   5.643  18.635  0.1659 -1.0091 -0.3996
 2944TIP3   OH233026   0.817   3.109  18.886  0.0635  0.5740  0.4032
 2944TIP3    H133027   0.815   3.199  18.919  2.2592  0.9618 -0.3368
 2944TIP3    H233028   0.729   3.095  18.850 -0.5916  2.0954  1.2982
 2945TIP3   OH233029   3.935   6.140  18.628  0.4389  0.3200  0.1950
 2945TIP3    H133030   3.848   6.175  18.648  0.3756  0.9423 -1.0825
 2945TIP3    H233031   3.979   6.211  18.582  0.4426 -1.1392 -2.1834
 2946TIP3   OH233032   3.102   4.799  18.711  0.8230  0.2061  0.0303
 2946TIP3    H133033   3.052   4.838  18.639 -0.0919  0.7603  0.9287
 2946TIP3    H233034   3.152   4.872  18.747 -0.3590  0.4421  1.2799
 2947TIP3   OH233035   4.731   2.900  19.107  0.2290  0.3904 -0.3145
 2947TIP3    H133036   4.650   2.883  19.060 -0.2874  0.2101  0.6234
 2947TIP3    H233037   4.706   2.962  19.175  1.1434  1.3363 -0.8045
 2948TIP3   OH233038   5.759   0.590  19.221 -0.4639  0.3370 -0.7139
 2948TIP3    H133039   5.735   0.682  19.234 -1.8369  0.0303 -0.8947
 2948TIP3    H233040   5.706   0.543  19.285  1.1234 -0.2558  0.2314
 2949TIP3   OH233041   0.108   4.310  19.593 -0.3398  0.2772 -0.1305
 2949TIP3    H133042   0.041   4.305  19.525  0.7050  0.6489 -1.2326
 2949TIP3    H233043   0.088   4.238  19.652 -2.0940  0.7847 -0.0435
 2950TIP3   OH233044   1.265   6.304  20.978  0.5344 -0.3169 -0.2320
 2950TIP3    H133045   1.206   6.300  21.053  0.4617  1.3954 -0.1576
 2950TIP3    H233046   1.238   6.383  20.930  1.9270 -0.2105 -0.9089
 2951TIP3   OH233047   2.374   3.065  19.611  0.1678  0.5576  0.3382
 2951TIP3    H133048   2.337   2.983  19.644 -0.8248  0.7365 -0.3042
 2951TIP3    H233049   2.468   3.055  19.622  0.0337 -0.5532  0.5281
 2952TIP3   OH233050   4.592   1.638  21.503  0.2275 -0.0579  0.1985
 2952TIP3    H133051   4.578   1.600  21.590  1.1530  0.0320  0.3931
 2952TIP3    H233052   4.508   1.626  21.459  0.4922 -2.4611  0.1977
 2953TIP3   OH233053   6.356   3.830  19.944 -0.5157  0.2339  0.3428
 2953TIP3    H133054   6.400   3.746  19.926 -0.7011  0.2673 -0.2758
 2953TIP3    H233055   6.350   3.833  20.039 -2.1553 -1.3189  0.3509
 2954TIP3   OH233056   3.211   0.588  20.726  0.2280  0.3366 -0.0453
 2954TIP3    H133057   3.154   0.548  20.661 -0.7783 -3.0356  2.6189
 2954TIP3    H233058   3.157   0.654  20.769 -0.9652 -1.1438  0.8287
 2955TIP3   OH233059   1.056   0.424  18.547 -0.2149 -0.4023  0.0740
 2955TIP3    H133060   1.072   0.487  18.617  1.1531  0.5919 -1.0761
 2955TIP3    H233061   1.068   0.338  18.589 -0.6355  0.1304  1.3226
 2956TIP3   OH233062   1.257   2.510  19.550  0.1956 -0.2161  0.5171
 2956TIP3    H133063   1.232   2.468  19.632 -2.3700  0.4830  0.1640
 2956TIP3    H233064   1.255   2.604  19.569 -2.7358  0.1043 -0.8138
 2957TIP3   OH233065   5.718   3.523  20.739 -0.0906 -0.1499 -0.2241
 2957TIP3    H133066   5.753   3.434  20.731  0.5278  0.1465 -0.9453
 2957TIP3    H233067   5.757   3.571  20.666 -0.7203  0.6213 -0.0696
 2958TIP3   OH233068   0.773   5.371  19.899 -0.7649  1.0174  0.4843
 2958TIP3    H133069   0.683   5.341  19.915 -1.0750  0.9344 -1.2297
 2958TIP3    H233070   0.822   5.292  19.880 -0.8621  1.2500 -0.8300
 2959TIP3   OH233071   3.893   5.958  19.554  0.3041 -0.1038  0.1390
 2959TIP3    H133072   3.861   6.029  19.610  0.6739  0.4138 -0.3007
 2959TIP3    H233073   3.987   5.971  19.550  0.4926 -1.1591  0.7844
 2960TIP3   OH233074   5.729   1.660  19.792 -0.1993 -0.6237 -0.4044
 2960TIP3    H133075   5.675   1.734  19.763  0.0457 -1.1720 -2.4037
 2960TIP3    H233076   5.817   1.696  19.797 -0.1845 -0.6145 -0.7163
 2961TIP3   OH233077   1.857   0.952  20.465 -0.4552 -0.3372 -0.7590
 2961TIP3    H133078   1.943   0.911  20.461 -0.5714 -0.8676  1.2450
 2961TIP3    H233079   1.809   0.914  20.391  0.8961 -0.2804 -1.6967
 2962TIP3   OH233080   2.675   4.742  21.037 -0.2775 -0.9241  0.3035
 2962TIP3    H133081   2.691   4.672  20.974  0.6909  0.5866 -1.2547
 2962TIP3    H233082   2.719   4.819  20.998 -0.9406  0.4430  2.1076
 2963TIP3   OH233083   1.892   5.151  20.854 -0.6641  0.2677 -0.5418
 2963TIP3    H133084   1.861   5.122  20.939 -1.5015 -1.2639 -1.3204
 2963TIP3    H233085   1.966   5.092  20.834  2.4353  3.2924  0.9037
 2964TIP3   OH233086   0.600   0.873  20.556  0.2040  0.0704  0.1200
 2964TIP3    H133087   0.547   0.939  20.510  2.3936  0.8317 -1.4736
 2964TIP3    H233088   0.611   0.803  20.492  0.4753 -0.4310  0.7103
 2965TIP3   OH233089   4.839   3.551  21.577 -0.3724  0.2862 -0.4095
 2965TIP3    H133090   4.888   3.573  21.656  0.6454 -1.4315 -0.5257
 2965TIP3    H233091   4.884   3.600  21.508  1.1181 -1.0765 -0.4743
 2966TIP3   OH233092   6.106   5.700  19.545  0.7046 -0.2629 -0.0900
 2966TIP3    H133093   6.200   5.683  19.554  1.1522  2.0807  0.3676
 2966TIP3    H233094   6.065   5.614  19.556  2.8589 -1.6851 -2.0790
 2967TIP3   OH233095   1.914   4.178  18.520 -0.5792  0.0179  0.2163
 2967TIP3    H133096   1.929   4.255  18.466 -1.3963 -0.5572 -0.8807
 2967TIP3    H233097   1.976   4.113  18.487 -0.1261  0.0875  0.9103
 2968TIP3   OH233098   3.227   3.084  20.311 -0.0081 -0.1961 -0.1425
 2968TIP3    H133099   3.199   3.110  20.223  1.4939 -0.1666 -0.6493
 2968TIP3    H233100   3.244   3.166  20.356 -0.0495 -0.2202 -0.0848
 2969TIP3   OH233101   1.746   0.109  21.297  0.3258  0.2033 -0.1310
 2969TIP3    H133102   1.823   0.122  21.241  0.3487  0.0425 -0.1371
 2969TIP3    H233103   1.779   0.124  21.386  1.2143 -3.2743  0.2505
 2970TIP3   OH233104   3.120   4.708  20.630 -0.2563 -0.2341  0.4427
 2970TIP3    H133105   3.076   4.792  20.621  0.8068  0.3242  0.2802
 2970TIP3    H233106   3.101   4.681  20.720 -4.3219 -2.0410 -0.7187
 2971TIP3   OH233107   5.060   1.248  20.676 -0.2633  0.8037 -0.1284
 2971TIP3    H133108   5.028   1.293  20.755 -1.9702 -2.0787  1.0167
 2971TIP3    H233109   5.155   1.247  20.686 -0.4580 -0.1514  2.3950
 2972TIP3   OH233110   2.052   3.973  18.367  0.5021  0.6931 -0.4596
 2972TIP3    H133111   2.128   3.924  18.399  0.6597  0.3121 -1.3943
 2972TIP3    H233112   1.999   3.908  18.321 -1.0232  0.6847  1.2023
 2973TIP3   OH233113   6.249   5.496  20.620 -0.2330  0.1813  0.2437
 2973TIP3    H133114   6.176   5.556  20.609  0.7101  1.7995  2.0721
 2973TIP3    H233115   6.298   5.533  20.694  1.5582 -1.7058  0.0660
 2974TIP3   OH233116   5.612   1.294  20.565 -0.5855  0.2903 -0.4465
 2974TIP3    H133117   5.669   1.367  20.589  0.2019 -0.1184 -1.0590
 2974TIP3    H233118   5.649   1.219  20.611 -1.1267  0.1837 -0.1815
 2975TIP3   OH233119   5.321   4.285  19.974  0.0268 -0.1895  0.4584
 2975TIP3    H133120   5.333   4.380  19.969  1.0009 -0.3668 -1.1774
 2975TIP3    H233121   5.263   4.264  19.901 -0.5842 -0.8104  1.1092
 2976TIP3   OH233122   4.273   4.474  21.247  0.0790  0.6155  0.1381
 2976TIP3    H133123   4.188   4.468  21.291  0.3741  0.0999  0.6498
 2976TIP3    H233124   4.262   4.419  21.168 -0.6126  1.9480 -0.7347
 2977TIP3   OH233125   4.777   4.819  19.178 -0.2814 -0.1025  0.7623
 2977TIP3    H133126   4.802   4.733  19.211  1.1585  0.2647  0.6742
 2977TIP3    H233127   4.757   4.805  19.085  2.0424 -0.0068  0.1919
 2978TIP3   OH233128   2.768   3.243  18.511 -0.1844 -0.5620  0.1694
 2978TIP3    H133129   2.788   3.311  18.575 -1.3820  0.3571 -0.3803
 2978TIP3    H233130   2.841   3.182  18.516 -0.0200 -0.2690  2.0703
 2979TIP3   OH233131   3.931   3.674  18.235 -0.4713  0.2827  0.0691
 2979TIP3    H133132   3.896   3.659  18.147  0.6001 -0.3975 -0.2674
 2979TIP3    H233133   3.933   3.769  18.245 -1.5517  0.3515 -0.2360
 2980TIP3   OH233134   6.335   0.336  20.432 -0.3581  0.1256 -0.3224
 2980TIP3    H133135   6.368   0.346  20.343  1.9137  0.0672  0.4342
 2980TIP3    H233136   6.345   0.422  20.471 -1.3618  0.1571 -0.1172
 2981TIP3   OH233137   2.229   5.436  20.467  0.2150 -0.1605  0.6625
 2981TIP3    H133138   2.229   5.397  20.555  1.0980  0.2108  0.8375
 2981TIP3    H233139   2.192   5.524  20.480  1.8474  0.5139  0.9737
 2982TIP3   OH233140   5.557   5.707  19.862  0.1698 -0.0318  0.1998
 2982TIP3    H133141   5.613   5.643  19.906  0.6169 -0.4421 -0.9212
 2982TIP3    H233142   5.468   5.674  19.876  0.4906 -2.8773 -3.1435
 2983TIP3   OH233143   5.635   1.425  19.904 -0.5014  0.3141 -0.2852
 2983TIP3    H133144   5.623   1.443  19.998 -2.8239 -0.0012 -0.4542
 2983TIP3    H233145   5.676   1.504  19.870 -0.5694  0.8605  0.8377
 2984TIP3   OH233146   3.666   5.117  19.914  0.0098 -0.1964  0.4507
 2984TIP3    H133147   3.758   5.102  19.893  0.2113  2.1007 -0.6073
 2984TIP3    H233148   3.623   5.125  19.828 -0.9024  0.2286  0.9270
 2985TIP3   OH233149   1.260   4.231  19.867 -0.1188  0.3292  0.1007
 2985TIP3    H133150   1.345   4.222  19.911  0.1189  1.6932 -0.0174
 2985TIP3    H233151   1.196   4.208  19.934  0.2825  1.2970  0.8432
 2986TIP3   OH233152   6.457   3.017  17.875 -0.2645  0.7618 -0.1087
 2986TIP3    H133153   6.453   3.047  17.784 -0.2408 -0.8071 -0.6474
 2986TIP3    H233154   6.511   2.938  17.872 -1.0246  0.1698  1.1236
 2987TIP3   OH233155   0.304   1.765  20.796  0.5811  0.0001 -0.2039
 2987TIP3    H133156   0.229   1.806  20.838  1.6661  0.9298  0.8959
 2987TIP3    H233157   0.266   1.695  20.743 -1.1220  1.0260 -0.4111
 2988TIP3   OH233158   4.790   1.059  20.872  0.0002  0.8739 -0.5300
 2988TIP3    H133159   4.880   1.037  20.893 -0.1042 -1.0031 -1.7650
 2988TIP3    H233160   4.791   1.153  20.857  2.2462  0.6394 -2.5339
 2989TIP3   OH233161   6.333   3.018  20.347  0.0009 -0.1660 -0.4642
 2989TIP3    H133162   6.389   3.071  20.291 -0.3523  0.1101 -0.5587
 2989TIP3    H233163   6.375   3.023  20.434 -0.6918  1.2996 -0.1829
 2990TIP3   OH233164   3.006   6.462  18.064  0.5629  0.5436  0.1621
 2990TIP3    H133165   3.011   6.543  18.014  2.0441  0.4990  0.2063
 2990TIP3    H233166   3.082   6.464  18.121  0.0965 -0.4438  0.8446
 2991TIP3   OH233167   1.744   6.461  20.511  0.0711 -0.0062  0.1540
 2991TIP3    H133168   1.671   6.486  20.567 -0.6577  0.4702 -0.9575
 2991TIP3    H233169   1.720   6.374  20.479 -0.6099  0.6198 -1.1211
 2992TIP3   OH233170   3.508   4.594  20.565 -0.3243  0.4188  0.2484
 2992TIP3    H133171   3.515   4.678  20.609  0.0919  0.7431 -0.4278
 2992TIP3    H233172   3.523   4.529  20.634 -2.7771  0.8129  1.2178
 2993TIP3   OH233173   1.290   5.317  21.289  0.0755  0.1842 -0.2172
 2993TIP3    H133174   1.368   5.280  21.247  0.4855  1.7641 -0.9049
 2993TIP3    H233175   1.218   5.263  21.257  0.6334  0.0630 -1.3140
 2994TIP3   OH233176   4.423   4.035  19.013  0.2432  0.3332  0.0471
 2994TIP3    H133177   4.426   4.131  19.017 -2.4812  0.4818  0.1137
 2994TIP3    H233178   4.412   4.008  19.104 -0.1245  0.0417 -0.0801
 2995TIP3   OH233179   4.483   4.980  20.048  0.4840  0.5259  0.0362
 2995TIP3    H133180   4.436   5.024  19.978  1.3023  0.1761 -0.7538
 2995TIP3    H233181   4.417   4.966  20.116 -0.0404  1.9682 -0.1373
 2996TIP3   OH233182   4.902   5.586  19.933  0.2728 -0.7078  0.2902
 2996TIP3    H133183   4.807   5.578  19.926  0.2680 -0.1231 -0.3729
 2996TIP3    H233184   4.920   5.679  19.919  1.0717 -1.0623 -1.2899
 2997TIP3   OH233185   1.572   0.773  21.596  0.1523 -0.1675  0.1905
 2997TIP3    H133186   1.550   0.798  21.686 -0.1999 -1.5682  0.5155
 2997TIP3    H233187   1.490   0.739  21.560  0.3634  0.1071 -0.5703
 2998TIP3   OH233188   5.134   3.352  18.990 -0.9693  0.0939 -0.2898
 2998TIP3    H133189   5.152   3.264  19.025 -1.3301  0.5171  1.0302
 2998TIP3    H233190   5.189   3.358  18.912 -0.3513 -1.0271  0.0263
 2999TIP3   OH233191   1.546   0.693  19.932  0.6493  0.3985 -0.2003
 2999TIP3    H133192   1.620   0.633  19.943  0.7446  0.4141 -0.6976
 2999TIP3    H233193   1.513   0.709  20.020  0.5288 -0.5049 -0.0758
 3000TIP3   OH233194   4.235   4.316  21.028 -0.2063  0.4523  0.2989
 3000TIP3    H133195   4.190   4.353  20.953  0.3743  1.0383  0.2275
 3000TIP3    H233196   4.204   4.226  21.034 -0.3581  0.4445 -0.5587
 3001TIP3   OH233197   2.029   5.817  18.363 -0.3137  0.4130 -0.2695
 3001TIP3    H133198   1.991   5.841  18.278 -1.0467  0.0761 -0.0392
 3001TIP3    H233199   2.123   5.810  18.345 -0.3573  1.1356 -0.8697
 3002TIP3   OH233200   4.898   3.188  18.015  0.0053 -0.3638  0.8609
 3002TIP3    H133201   4.819   3.161  17.967  0.2924 -1.7057  1.1160
 3002TIP3    H233202   4.941   3.251  17.957 -1.8312  1.2985  1.1969
 3003TIP3   OH233203   1.325   0.616  19.772  0.2849 -0.3764  0.1161
 3003TIP3    H133204   1.363   0.535  19.739  0.4567 -0.1857 -0.1715
 3003TIP3    H233205   1.384   0.643  19.843 -0.2325 -0.9238  0.7575
 3004TIP3   OH233206   0.270   4.791  19.979  0.4942  0.3334  0.1940
 3004TIP3    H133207   0.240   4.879  20.000 -0.3535  0.4966 -1.5581
 3004TIP3    H233208   0.209   4.759  19.912  1.3673 -1.2032  0.0687
 3005TIP3   OH233209   2.377   4.960  18.155 -0.3902 -0.1851 -0.9287
 3005TIP3    H133210   2.469   4.956  18.182 -0.1411  1.1164 -1.4937
 3005TIP3    H233211   2.376   4.921  18.067 -0.1968  0.6749 -1.3198
 3006TIP3   OH233212   4.463   1.650  19.053  0.2044  0.0831 -0.0636
 3006TIP3    H133213   4.483   1.727  19.108 -1.9494  1.7481 -1.4168
 3006TIP3    H233214   4.370   1.634  19.069  0.2336 -1.2249 -1.0841
 3007TIP3   OH233215   4.513   3.714  21.158 -0.2627 -0.2313  0.7767
 3007TIP3    H133216   4.550   3.684  21.242  1.6425  1.2739  0.5569
 3007TIP3    H233217   4.513   3.809  21.165  0.3726 -0.0555 -1.0866
 3008TIP3   OH233218   5.489   6.573  20.251 -0.1463 -0.1774 -0.0973
 3008TIP3    H133219   5.564   6.555  20.195  0.4569 -1.8580  1.1842
 3008TIP3    H233220   5.523   6.631  20.319 -0.6502  1.0817 -0.8779
 3009TIP3   OH233221   6.025   0.139  18.192 -0.1922  0.2434  0.0657
 3009TIP3    H133222   6.034   0.171  18.102 -1.1153  0.2930 -0.0152
 3009TIP3    H233223   6.087   0.066  18.197 -0.9970 -0.5360 -0.9805
 3010TIP3   OH233224   3.978   3.414  20.458  0.5484  0.0035 -0.3145
 3010TIP3    H133225   3.997   3.320  20.460  3.0801  0.4321 -1.3766
 3010TIP3    H233226   3.952   3.432  20.368  0.0691  0.3599 -0.1134
 3011TIP3   OH233227   3.618   3.727  18.053 -0.1799  0.2335  0.1308
 3011TIP3    H133228   3.591   3.760  18.139 -1.4179  0.0655 -0.1765
 3011TIP3    H233229   3.570   3.781  17.991  0.9388  0.5578 -0.4814
 3012TIP3   OH233230   1.996   1.304  18.942 -0.0158  0.4677  0.6279
 3012TIP3    H133231   2.014   1.397  18.952 -0.3259  0.3055  3.6416
 3012TIP3    H233232   1.910   1.292  18.983  0.2207 -1.1941  0.7132
 3013TIP3   OH233233   5.871   3.288  21.105 -0.2773 -0.4593 -0.1265
 3013TIP3    H133234   5.862   3.358  21.170 -0.3135 -0.4734 -0.1163
 3013TIP3    H233235   5.933   3.323  21.041 -1.2745  0.1019 -0.8134
 3014TIP3   OH233236   4.218   0.575  20.271 -0.3469  0.1157 -0.1321
 3014TIP3    H133237   4.132   0.610  20.294 -1.1215 -1.1610 -0.9439
 3014TIP3    H233238   4.237   0.510  20.338  0.1136  0.5776  0.1903
 3015TIP3   OH233239   3.842   1.642  18.258 -0.4422  0.0305  0.2004
 3015TIP3    H133240   3.816   1.659  18.349 -1.8239  0.9284 -0.3328
 3015TIP3    H233241   3.847   1.547  18.252 -1.0127 -0.0654  1.0453
 3016TIP3   OH233242   6.416   1.022  20.596  0.0689  0.4056  0.2587
 3016TIP3    H133243   6.386   0.974  20.674  0.5242 -0.5739 -0.1624
 3016TIP3    H233244   6.508   0.998  20.587 -0.1672 -0.0622 -0.9971
 3017TIP3   OH233245   4.048   5.710  19.971  0.1916  0.6083  0.0019
 3017TIP3    H133246   3.975   5.703  20.033 -1.5235 -1.0277 -2.0434
 3017TIP3    H233247   4.050   5.803  19.949 -1.5837  0.6512 -0.1678
 3018TIP3   OH233248   3.394   3.933  21.059 -0.2090 -0.1772  0.4179
 3018TIP3    H133249   3.401   3.839  21.040 -0.2664  0.0541 -0.8136
 3018TIP3    H233250   3.464   3.950  21.122 -0.9906 -1.2812  1.6252
 3019TIP3   OH233251   2.152   4.638  18.255  0.0320 -0.3813  0.7378
 3019TIP3    H133252   2.121   4.720  18.217 -1.5779 -0.4239  1.8788
 3019TIP3    H233253   2.105   4.570  18.206 -0.9511 -0.4868  1.7922
 3020TIP3   OH233254   2.494   5.634  20.931  0.9547  0.0238  0.8464
 3020TIP3    H133255   2.507   5.563  20.869  0.2946 -1.7155  2.5836
 3020TIP3    H233256   2.403   5.662  20.917  1.0834  0.2641  0.4583
 3021TIP3   OH233257   5.407   2.081  17.785 -0.1756 -0.2868  0.1387
 3021TIP3    H133258   5.312   2.085  17.800 -0.0499 -2.2794  2.0342
 3021TIP3    H233259   5.420   2.129  17.703 -2.7986  0.0875 -0.1728
 3022TIP3   OH233260   1.990   5.401  18.801  1.2239  0.7247 -0.1659
 3022TIP3    H133261   1.961   5.311  18.811  0.9390  0.7415 -0.8030
 3022TIP3    H233262   1.935   5.437  18.731  2.8982  0.6961 -1.5688
 3023TIP3   OH233263   3.499   3.176  21.266 -0.0571  0.1705 -0.0056
 3023TIP3    H133264   3.582   3.136  21.240  0.0676 -0.2750  1.0318
 3023TIP3    H233265   3.524   3.256  21.312 -0.0270 -1.2108  2.5581
 3024TIP3   OH233266   2.433   1.980  20.957  0.7728  0.2286 -0.0701
 3024TIP3    H133267   2.515   2.013  20.993  1.2753  0.5011 -1.3889
 3024TIP3    H233268   2.445   1.885  20.953  0.4545  0.1303  1.0548
 3025TIP3   OH233269   5.159   5.462  21.176  0.4116  0.3671 -0.6468
 3025TIP3    H133270   5.106   5.537  21.202  0.2054  0.4878 -1.4058
 3025TIP3    H233271   5.218   5.495  21.109  1.7046  0.3150  0.4186
 3026TIP3   OH233272   2.382   3.678  18.221  0.0026 -0.4462  0.0512
 3026TIP3    H133273   2.476   3.693  18.230  0.3008 -1.3289 -1.3939
 3026TIP3    H233274   2.374   3.601  18.164 -1.5982 -0.2292 -0.0831
 3027TIP3   OH233275   3.333   2.783  19.372  0.0658 -0.3389  0.3783
 3027TIP3    H133276   3.302   2.782  19.281 -0.9871 -0.6935  0.7340
 3027TIP3    H233277   3.344   2.690  19.394 -0.9148 -0.3193  1.0147
 3028TIP3   OH233278   4.295   2.340  21.103  0.0585 -0.4899 -0.2476
 3028TIP3    H133279   4.356   2.272  21.133  1.6851  0.2868 -1.6980
 3028TIP3    H233280   4.350   2.407  21.064 -1.6213  1.0784 -0.0464
 3029TIP3   OH233281   3.119   2.448  18.974  1.0625 -0.2316  0.0365
 3029TIP3    H133282   3.116   2.474  19.065  3.6042  2.1215 -0.4325
 3029TIP3    H233283   3.191   2.386  18.969  3.5670  2.5421 -0.8490
 3030TIP3   OH233284   0.371   3.237  18.486  0.3625  0.3212  0.4322
 3030TIP3    H133285   0.289   3.218  18.531 -0.0493  0.2240 -0.3303
 3030TIP3    H233286   0.345   3.257  18.396  1.2084 -0.1263  0.0683
 3031TIP3   OH233287   1.961   4.647  20.481  0.2001  0.0550  0.2463
 3031TIP3    H133288   1.891   4.679  20.538  0.2430 -1.4774  1.2170
 3031TIP3    H233289   2.037   4.636  20.538  0.8291  0.3581 -0.5115
 3032TIP3   OH233290   4.166   3.013  18.517 -0.5334  0.0067  0.1619
 3032TIP3    H133291   4.079   3.024  18.555 -0.2175 -1.1519  1.2855
 3032TIP3    H233292   4.187   2.921  18.530  0.3475 -0.0243 -1.2486
 3033TIP3   OH233293   4.163   0.052  18.879  0.3824 -0.5520  0.0815
 3033TIP3    H133294   4.151   0.146  18.865 -0.5539 -0.4520  1.3744
 3033TIP3    H233295   4.093   0.011  18.828 -0.3492 -0.4358  0.9816
 3034TIP3   OH233296   5.922   3.487  20.197  0.3008  0.1460  0.1214
 3034TIP3    H133297   5.959   3.431  20.129 -0.5331 -1.9616  1.2981
 3034TIP3    H233298   5.834   3.509  20.165  0.2228 -0.1373  0.1406
 3035TIP3   OH233299   0.273   5.092  19.652  0.4128 -0.0337 -0.0961
 3035TIP3    H133300   0.208   5.072  19.720  0.4055  0.0304 -0.0850
 3035TIP3    H233301   0.223   5.133  19.582  0.6383  1.2153  0.4545
 3036TIP3   OH233302   1.709   0.179  19.589  0.1655  0.1010  0.1281
 3036TIP3    H133303   1.684   0.272  19.589 -0.2670 -0.0152  0.3312
 3036TIP3    H233304   1.724   0.159  19.496  1.8427  0.7877  0.2084
 3037TIP3   OH233305   3.545   3.281  19.680 -0.7111 -0.0114 -0.6286
 3037TIP3    H133306   3.571   3.348  19.742 -0.8701 -0.4696 -0.0602
 3037TIP3    H233307   3.612   3.213  19.687  0.7507  1.0952 -2.8880
 3038TIP3   OH233308   4.005   2.568  20.419  0.2848 -0.5936  0.1772
 3038TIP3    H133309   3.969   2.544  20.504 -1.8824 -1.0646 -0.7878
 3038TIP3    H233310   4.070   2.500  20.399  0.2525 -0.9061  1.1054
 3039TIP3   OH233311   4.514   6.029  18.683 -0.4577 -0.2798 -0.5454
 3039TIP3    H133312   4.429   6.073  18.673  0.6288  1.4872 -2.8496
 3039TIP3    H233313   4.533   5.994  18.596  0.7696 -1.5223  0.1797
 3040TIP3   OH233314   3.914   3.143  17.888 -0.0363  0.7428 -0.0169
 3040TIP3    H133315   4.004   3.143  17.920  0.4258  2.8150 -1.1345
 3040TIP3    H233316   3.921   3.118  17.796 -0.5088  1.5038 -0.2706
 3041TIP3   OH233317   4.664   6.557  20.738 -0.1087 -0.1837 -0.1534
 3041TIP3    H133318   4.723   6.489  20.704  0.2481 -1.2968  2.4016
 3041TIP3    H233319   4.633   6.522  20.822 -0.3488  2.5783  1.0354
 3042TIP3   OH233320   1.747   1.714  21.182  0.3202  0.0682  0.1470
 3042TIP3    H133321   1.775   1.628  21.152 -1.6172 -1.3131  2.0224
 3042TIP3    H233322   1.677   1.739  21.122 -0.8205 -0.8638  1.0404
 3043TIP3   OH233323   6.351   0.407  20.147  0.5929  0.0720  0.3866
 3043TIP3    H133324   6.438   0.442  20.168  0.7403 -0.5032  0.7508
 3043TIP3    H233325   6.354   0.391  20.052  0.2011  1.9053  0.0251
 3044TIP3   OH233326   4.377   0.541  18.167 -0.7869 -0.1702 -0.4263
 3044TIP3    H133327   4.360   0.609  18.101 -1.1898  0.8348  0.6539
 3044TIP3    H233328   4.472   0.535  18.172 -0.6790  1.7111  0.7648
 3045TIP3   OH233329   2.080   6.548  18.935  0.0834  0.0905 -0.3766
 3045TIP3    H133330   2.050   6.627  18.980  2.9167  0.7119  0.6429
 3045TIP3    H233331   2.105   6.578  18.848  0.2486  0.1267 -0.3173
 3046TIP3   OH233332   0.501   2.557  20.420 -0.7141 -0.3702  0.3832
 3046TIP3    H133333   0.453   2.502  20.482 -0.8167 -0.9878 -0.2452
 3046TIP3    H233334   0.555   2.496  20.370 -1.5354 -0.0122 -0.9627
 3047TIP3   OH233335   6.227   2.167  17.952  0.0123  0.2050  0.4845
 3047TIP3    H133336   6.140   2.188  17.917 -0.8394 -2.5183  0.7708
 3047TIP3    H233337   6.213   2.158  18.046  1.0868  1.7564  0.8258
 3048TIP3   OH233338   2.243   5.659  18.547  0.2379 -0.5499 -0.4512
 3048TIP3    H133339   2.260   5.753  18.557 -0.3228 -0.6307  1.7757
 3048TIP3    H233340   2.148   5.651  18.554  0.2264 -1.2581 -1.1943
 3049TIP3   OH233341   1.790   0.972  21.034 -0.3275 -0.1766  0.3365
 3049TIP3    H133342   1.860   1.033  21.013 -0.3485  0.7881  2.7669
 3049TIP3    H233343   1.713   1.027  21.049 -1.0221 -1.0223  0.0316
 3050TIP3   OH233344   2.109   6.195  19.922 -0.0032  0.2777  0.5788
 3050TIP3    H133345   2.031   6.162  19.879 -0.1680  0.5134  0.6969
 3050TIP3    H233346   2.160   6.236  19.852  1.1911 -2.0135  0.0129
 3051TIP3   OH233347   4.618   2.214  21.124 -0.0606 -0.0467  0.0886
 3051TIP3    H133348   4.671   2.290  21.147  0.4984 -0.6999  1.0541
 3051TIP3    H233349   4.645   2.147  21.187 -1.9751 -0.4260  0.5695
 3052TIP3   OH233350   4.657   2.452  19.207 -0.5083 -0.5297  0.1656
 3052TIP3    H133351   4.651   2.396  19.285  2.9216 -1.8158 -0.3057
 3052TIP3    H233352   4.610   2.532  19.231 -1.1558 -1.6107  2.8426
 3053TIP3   OH233353   3.962   0.959  20.902  0.0652  0.2998 -0.3178
 3053TIP3    H133354   3.931   0.946  20.991  2.3598 -1.9366  0.2401
 3053TIP3    H233355   3.904   0.905  20.848 -0.0705  0.0772  0.0497
 3054TIP3   OH233356   4.642   2.604  20.837  0.9315  0.3774 -0.6043
 3054TIP3    H133357   4.574   2.653  20.789  0.9484 -1.2064 -2.3587
 3054TIP3    H233358   4.597   2.570  20.914 -0.4234 -0.9618 -1.9260
 3055TIP3   OH233359   2.360   6.597  19.840  0.7438  0.7696 -0.2514
 3055TIP3    H133360   2.381   6.610  19.933 -1.5097  1.3423  0.2442
 3055TIP3    H233361   2.286   6.536  19.841  0.3269  1.2279 -1.6401
 3056TIP3   OH233362   5.713   1.905  21.584 -0.2940 -0.0338  0.0920
 3056TIP3    H133363   5.762   1.823  21.594 -0.8664 -0.2130  1.6043
 3056TIP3    H233364   5.750   1.945  21.506  0.1893 -1.6008 -0.5268
 3057TIP3   OH233365   2.616   2.682  18.701  0.0213  0.3468 -0.6432
 3057TIP3    H133366   2.651   2.723  18.621  0.1774  0.7186 -0.3849
 3057TIP3    H233367   2.562   2.609  18.669  0.4142  0.2428 -1.0725
 3058TIP3   OH233368   5.634   3.698  18.536  0.3773  0.5238  0.1355
 3058TIP3    H133369   5.714   3.683  18.485  0.8786  0.0360  1.0385
 3058TIP3    H233370   5.618   3.614  18.579 -0.5093  0.6832  0.1277
 3059TIP3   OH233371   4.021   2.942  20.879  0.1951 -0.5441  0.1699
 3059TIP3    H133372   4.055   3.027  20.853 -2.0821  0.0761 -1.0713
 3059TIP3    H233373   4.004   2.950  20.973 -0.8990  0.7537 -0.1069
 3060TIP3   OH233374   5.893   5.586  18.581 -0.5431  0.0003 -0.2628
 3060TIP3    H133375   5.931   5.503  18.554  1.9764  0.5851  1.1487
 3060TIP3    H233376   5.853   5.622  18.502 -0.2171 -1.7796 -1.2730
 3061TIP3   OH233377   4.237   3.338  19.852  0.0480  0.3496  0.5368
 3061TIP3    H133378   4.303   3.364  19.788 -0.0058  2.3801  1.2394
 3061TIP3    H233379   4.154   3.364  19.812 -0.1398 -0.0716  0.6501
 3062TIP3   OH233380   5.163   4.182  20.259 -0.0806 -0.1292  0.3533
 3062TIP3    H133381   5.240   4.188  20.315  0.8773  1.9661 -1.1052
 3062TIP3    H233382   5.187   4.119  20.191 -0.3953 -0.9223  0.9604
 3063TIP3   OH233383   5.294   5.002  21.089  0.0644 -0.0399  0.6864
 3063TIP3    H133384   5.274   5.069  21.153  0.7561  0.0292  0.8312
 3063TIP3    H233385   5.277   5.044  21.004  1.8481  0.7894  0.7134
 3064TIP3   OH233386   3.466   0.405  19.081  0.2040  0.0453 -0.5334
 3064TIP3    H133387   3.401   0.344  19.046  0.6659  0.7406 -2.7975
 3064TIP3    H233388   3.508   0.442  19.003  1.4111  1.6570  0.8079
 3065TIP3   OH233389   2.906   2.655  20.039 -0.0102 -0.5084  0.1623
 3065TIP3    H133390   2.813   2.633  20.035 -0.7013  2.1925 -0.4560
 3065TIP3    H233391   2.942   2.623  19.956 -0.7026 -0.3533 -0.2033
 3066TIP3   OH233392   3.272   3.514  19.535  0.1148 -0.0851  0.0092
 3066TIP3    H133393   3.323   3.540  19.459 -1.1725 -0.4896 -1.0258
 3066TIP3    H233394   3.202   3.580  19.541 -0.7632 -0.9757 -0.1805
 3067TIP3   OH233395   4.823   5.386  20.851 -0.0220 -0.2196 -0.1009
 3067TIP3    H133396   4.853   5.347  20.933 -0.8730  1.5707  1.1252
 3067TIP3    H233397   4.877   5.464  20.840 -1.0960  0.5270 -0.2701
 3068TIP3   OH233398   5.923   2.700  20.007  0.3118 -0.3295  0.2482
 3068TIP3    H133399   5.977   2.704  19.928 -1.4535 -1.1349 -1.0698
 3068TIP3    H233400   5.973   2.647  20.068  0.7478 -1.5946 -1.1564
 3069TIP3   OH233401   5.387   2.351  20.001  0.3157 -0.0063  0.5506
 3069TIP3    H133402   5.308   2.307  20.032  0.4355 -0.3261  0.4088
 3069TIP3    H233403   5.399   2.425  20.061 -0.8345  0.8409 -0.2198
 3070TIP3   OH233404   4.277   3.605  21.078 -0.0477  0.6474  0.3051
 3070TIP3    H133405   4.306   3.558  20.999 -1.1440 -0.1054  0.3337
 3070TIP3    H233406   4.358   3.641  21.115  0.4056  1.7685 -1.6255
 3071TIP3   OH233407   2.306   5.324  20.043  0.2162  0.5182 -0.0996
 3071TIP3    H133408   2.342   5.262  20.107  0.1924  0.5823 -0.0230
 3071TIP3    H233409   2.379   5.345  19.986  0.2558  0.5152 -0.0488
 3072TIP3   OH233410   1.878   3.201  19.478  0.3202  0.1751  0.0577
 3072TIP3    H133411   1.969   3.182  19.453 -0.3035 -2.1514 -0.7035
 3072TIP3    H233412   1.852   3.273  19.421  1.5503  0.5794 -0.0193
 3073TIP3   OH233413   1.638   1.885  19.389  0.2380  0.2098 -0.3072
 3073TIP3    H133414   1.694   1.865  19.464  0.5511 -2.0384 -1.0460
 3073TIP3    H233415   1.686   1.851  19.314 -1.5380 -0.7000 -1.0987
 3074TIP3   OH233416   2.742   0.872  20.113  0.3554  0.1470 -0.3316
 3074TIP3    H133417   2.790   0.946  20.075 -0.4353 -0.4577 -2.6722
 3074TIP3    H233418   2.721   0.816  20.038 -1.5573 -1.0131  0.9861
 3075TIP3   OH233419   2.385   3.964  18.814 -0.4192 -0.1108 -0.0572
 3075TIP3    H133420   2.422   3.918  18.740 -2.1203  0.4618 -1.3380
 3075TIP3    H233421   2.397   3.905  18.888  2.7026 -0.0435 -0.3981
 3076TIP3   OH233422   3.631   6.235  20.251 -0.2901  0.1910  0.1472
 3076TIP3    H133423   3.560   6.297  20.239  0.2705  0.3354 -3.9154
 3076TIP3    H233424   3.711   6.288  20.245  0.1522 -0.5427 -0.8976
 3077TIP3   OH233425   6.310   2.003  20.677  0.2425 -1.1123  0.0423
 3077TIP3    H133426   6.376   2.035  20.616 -0.1250  0.1057  0.2496
 3077TIP3    H233427   6.228   2.040  20.644  0.0446 -0.4019  1.2835
 3078TIP3   OH233428   1.989   4.163  18.179 -0.1642  0.1965 -0.4980
 3078TIP3    H133429   1.906   4.125  18.149  0.7585 -0.8416 -1.8437
 3078TIP3    H233430   2.012   4.112  18.256 -0.5142  0.1615 -0.4109
 3079TIP3   OH233431   4.548   2.350  20.265  0.2524 -0.4237 -0.6010
 3079TIP3    H133432   4.615   2.388  20.208 -0.6648  1.6986 -0.3456
 3079TIP3    H233433   4.538   2.414  20.336 -1.6456 -0.9628 -0.3323
 3080TIP3   OH233434   0.141   0.431  17.818 -0.1343  0.1870 -0.1319
 3080TIP3    H133435   0.155   0.404  17.909  0.9908  0.2527 -0.2638
 3080TIP3    H233436   0.049   0.412  17.800  0.0308 -1.3614  0.5116
 3081TIP3   OH233437   6.475   5.612  20.030  0.3245 -0.0285 -0.2798
 3081TIP3    H133438   6.457   5.565  19.948  0.6484 -2.4721  0.9837
 3081TIP3    H233439   6.524   5.690  20.002  2.0731 -1.7339 -2.2965
 3082TIP3   OH233440   6.150   3.442  17.794  0.2690 -0.1897 -0.0209
 3082TIP3    H133441   6.116   3.490  17.719 -1.5575 -2.4632 -0.7631
 3082TIP3    H233442   6.227   3.396  17.761  1.3002  1.1968  0.3722
 3083TIP3   OH233443   4.747   1.150  18.145  0.0253 -1.3009 -0.0400
 3083TIP3    H133444   4.699   1.224  18.183  1.0474 -0.5129 -0.2402
 3083TIP3    H233445   4.705   1.135  18.061  0.3822 -0.3373 -0.4066
 3084TIP3   OH233446   0.120   1.138  18.763 -0.4030 -0.0196 -0.2980
 3084TIP3    H133447   0.162   1.218  18.731 -0.7869  0.6439  0.8029
 3084TIP3    H233448   0.030   1.164  18.782 -1.2658 -1.3198 -2.2406
 3085TIP3   OH233449   0.182   1.995  21.390 -0.3126 -0.4545 -0.4824
 3085TIP3    H133450   0.161   1.903  21.376  0.6959 -0.7447 -0.1282
 3085TIP3    H233451   0.254   2.013  21.330 -1.4067  0.4947 -1.5815
 3086TIP3   OH233452   2.219   4.862  20.429  0.1527 -0.1075  0.1280
 3086TIP3    H133453   2.295   4.822  20.471  0.2318 -0.6342 -0.5031
 3086TIP3    H233454   2.189   4.797  20.365 -0.5813  0.2626  0.0809
 3087TIP3   OH233455   4.050   2.574  17.086 -0.0566 -1.1638 -0.0569
 3087TIP3    H133456   4.077   2.539  17.171  1.8867  2.3725  1.0114
 3087TIP3    H233457   4.132   2.602  17.045 -1.2222  0.1478 -1.6377
 3088TIP3   OH233458   0.938   2.801  18.910 -0.4556  0.2080  0.6566
 3088TIP3    H133459   0.960   2.833  18.998  0.2544 -1.6510  1.2169
 3088TIP3    H233460   1.021   2.806  18.861  0.3150 -2.6206  1.4246
 3089TIP3   OH233461   4.962   5.594  20.729  0.3635 -0.6637  0.1994
 3089TIP3    H133462   4.935   5.613  20.639 -2.4827  0.9087  1.2727
 3089TIP3    H233463   4.909   5.652  20.783  3.1172 -0.3947  2.8862
 3090TIP3   OH233464   1.692   6.489  18.004  0.3958  0.3671  0.0741
 3090TIP3    H133465   1.697   6.396  18.023 -2.4799  0.2579  0.8757
 3090TIP3    H233466   1.632   6.496  17.930  1.0415  1.5420 -0.3651
 3091TIP3   OH233467   3.440   1.680  20.971 -0.6728 -1.0703 -0.1676
 3091TIP3    H133468   3.505   1.729  21.023 -1.4949 -0.0629 -0.0604
 3091TIP3    H233469   3.485   1.664  20.888  0.5168 -2.3565  0.6745
 3092TIP3   OH233470   0.334   1.581  19.736 -0.2401  0.3534  0.0303
 3092TIP3    H133471   0.277   1.654  19.761  0.0207  0.3117  0.7737
 3092TIP3    H233472   0.327   1.577  19.641 -1.2937  0.5062  0.0829
 3093TIP3   OH233473   1.719   4.257  19.140 -0.1281  0.0314  0.7535
 3093TIP3    H133474   1.689   4.261  19.049  0.0477 -1.1363  0.6247
 3093TIP3    H233475   1.721   4.348  19.169 -0.2943  0.4095 -0.3776
 3094TIP3   OH233476   6.329   1.784  19.023 -0.3326 -0.1248 -0.0570
 3094TIP3    H133477   6.386   1.763  19.097  3.6091  0.0215 -2.7613
 3094TIP3    H233478   6.291   1.869  19.046 -1.1873 -1.1254  2.6939
 3095TIP3   OH233479   0.067   1.399  20.884  0.4706 -0.4808  0.0000
 3095TIP3    H133480  -0.003   1.458  20.910  0.0747 -1.1993  0.6276
 3095TIP3    H233481   0.101   1.365  20.967  2.4586  0.8353 -0.2008
 3096TIP3   OH233482   4.198   3.253  19.504  0.1210  0.3825  0.2971
 3096TIP3    H133483   4.237   3.199  19.573  0.3838  0.7587  0.4520
 3096TIP3    H233484   4.107   3.225  19.500  0.1727  0.1589  0.6019
 3097TIP3   OH233485   4.470   0.059  18.734 -0.3591 -0.2248  0.5840
 3097TIP3    H133486   4.518   0.135  18.701  0.8186 -1.1481  0.0822
 3097TIP3    H233487   4.418   0.093  18.807  1.0017  0.8565  1.0993
 3098TIP3   OH233488   3.943   6.561  18.771  0.0114 -0.4143  0.4468
 3098TIP3    H133489   3.954   6.488  18.709  0.6137 -1.5942  1.8632
 3098TIP3    H233490   3.872   6.533  18.829 -0.4039  0.5739  0.4367
 3099TIP3   OH233491   2.214   0.278  18.898 -0.1156  0.0223  0.5277
 3099TIP3    H133492   2.156   0.346  18.863 -1.8249 -1.4045  0.4468
 3099TIP3    H233493   2.271   0.255  18.825 -0.7113  0.1387  0.0168
 3100TIP3   OH233494   1.833   1.998  21.093 -0.3269 -0.0691  0.1805
 3100TIP3    H133495   1.781   2.052  21.153 -0.1201 -0.9325  1.1616
 3100TIP3    H233496   1.855   1.920  21.144 -0.3670 -0.9508 -1.1078
 3101TIP3   OH233497   6.047   4.385  21.090 -0.3669  0.2050  0.1228
 3101TIP3    H133498   6.065   4.299  21.051  0.5442  1.6244 -2.9288
 3101TIP3    H233499   6.112   4.394  21.160 -1.5324 -2.1660  1.6307
 3102TIP3   OH233500   1.557   0.909  18.807  0.3568  0.5070  0.1484
 3102TIP3    H133501   1.515   0.879  18.726  1.7181  1.1160 -0.8124
 3102TIP3    H233502   1.633   0.851  18.818 -0.3205 -0.1842  1.5369
 3103TIP3   OH233503   4.856   1.643  18.657  0.3835 -0.6729  0.6550
 3103TIP3    H133504   4.895   1.629  18.743 -2.0127 -3.9856  1.4276
 3103TIP3    H233505   4.763   1.627  18.671 -0.5934  1.9554 -1.9964
 3104TIP3   OH233506   3.171   1.986  19.517 -0.1223  0.1673  0.1836
 3104TIP3    H133507   3.077   1.996  19.526 -0.2193 -1.3576  1.1560
 3104TIP3    H233508   3.207   2.010  19.603  0.3725  0.4672 -0.0937
 3105TIP3   OH233509   3.336   6.458  19.150 -0.3840  0.0117 -0.0394
 3105TIP3    H133510   3.422   6.488  19.122 -0.0060 -2.2775 -1.5532
 3105TIP3    H233511   3.275   6.500  19.090  0.0398 -1.2405 -1.4002
 3106TIP3   OH233512   1.456   5.370  19.350  0.1661  0.3228  0.1285
 3106TIP3    H133513   1.414   5.450  19.318 -0.6555 -0.8942 -2.0440
 3106TIP3    H233514   1.533   5.359  19.295  0.6451 -0.0424  0.8568
 3107TIP3   OH233515   4.969   5.564  18.723 -0.0542  0.1739 -0.4364
 3107TIP3    H133516   5.055   5.603  18.711  0.2162 -0.6023 -1.0940
 3107TIP3    H233517   4.953   5.571  18.817  0.4350  0.9177 -0.4005
 3108TIP3   OH233518   5.452   4.496  19.871  0.1665  0.0859 -0.0163
 3108TIP3    H133519   5.416   4.433  19.809 -0.3266  0.6858 -0.3471
 3108TIP3    H233520   5.515   4.547  19.820 -0.5558  0.8714 -0.1614
 3109TIP3   OH233521   0.880   3.320  20.875  0.0512  0.1154 -0.4978
 3109TIP3    H133522   0.954   3.289  20.928 -1.9310 -0.4849  2.0741
 3109TIP3    H233523   0.805   3.272  20.908 -1.6262  0.9721 -2.7988
 3110TIP3   OH233524   1.332   3.144  20.585  0.1314  0.3099  0.1023
 3110TIP3    H133525   1.370   3.060  20.610  1.8580  0.5257 -1.5869
 3110TIP3    H233526   1.398   3.209  20.610 -0.7577  1.0829  0.5012
 3111TIP3   OH233527   3.952   5.872  20.935 -0.1332  0.2355  0.1480
 3111TIP3    H133528   3.980   5.951  20.981 -2.9270  1.3565  0.1382
 3111TIP3    H233529   3.921   5.813  21.004 -0.4493  0.2242  0.0020
 3112TIP3   OH233530   5.952   3.053  19.034 -0.5176  0.2607 -0.1972
 3112TIP3    H133531   5.949   3.118  18.963 -2.0806  1.6305  1.0286
 3112TIP3    H233532   5.889   3.085  19.098  0.8627 -0.8848  1.8617
 3113TIP3   OH233533   0.440   5.765  18.099  0.2023  0.3440  0.2055
 3113TIP3    H133534   0.499   5.699  18.064 -0.6178 -1.1207  1.4667
 3113TIP3    H233535   0.454   5.842  18.044  0.4216 -1.1843 -1.9640
 3114TIP3   OH233536   5.022   1.128  19.804  0.5076  0.3115  0.2838
 3114TIP3    H133537   5.056   1.063  19.866  0.0716  0.0329  0.2318
 3114TIP3    H233538   5.079   1.204  19.816  0.5971  0.1622  0.8362
 3115TIP3   OH233539   5.382   1.706  20.884 -0.7546  0.1509 -0.7724
 3115TIP3    H133540   5.384   1.778  20.822 -0.4199 -0.9659 -2.1092
 3115TIP3    H233541   5.292   1.674  20.882 -1.2318  1.2839  0.7679
 3116TIP3   OH233542   6.338   3.433  20.798  0.1212 -0.5650  0.0252
 3116TIP3    H133543   6.404   3.496  20.770  1.2106 -1.5121  0.3377
 3116TIP3    H233544   6.340   3.365  20.731 -0.4068 -0.6974  0.1383
 3117TIP3   OH233545   1.173   2.005  20.915 -0.0981  0.4034 -0.3811
 3117TIP3    H133546   1.253   2.044  20.952 -0.3367 -0.4199  1.0666
 3117TIP3    H233547   1.180   2.022  20.821  0.6688  2.3338 -0.0219
 3118TIP3   OH233548   1.668   3.416  18.314 -0.7817 -0.4957  0.5629
 3118TIP3    H133549   1.661   3.474  18.238  1.9489 -0.6651  0.0912
 3118TIP3    H233550   1.693   3.331  18.278 -2.4320 -1.3916  1.4455
 3119TIP3   OH233551   4.943   1.630  18.939  0.4285 -0.1529  0.2079
 3119TIP3    H133552   5.036   1.622  18.959  0.6805 -0.6307 -1.0522
 3119TIP3    H233553   4.922   1.722  18.958  1.3004  0.1049 -0.0255
 3120TIP3   OH233554   6.562   2.639  20.997  0.3374  0.1772  0.1967
 3120TIP3    H133555   6.469   2.621  20.984 -0.3532  3.2287  0.0524
 3120TIP3    H233556   6.599   2.633  20.909  0.0691 -0.0288  0.0930
 3121TIP3   OH233557   6.375   6.152  18.818  0.0344 -0.4667  0.2520
 3121TIP3    H133558   6.420   6.088  18.761 -0.5304  0.2111 -0.9994
 3121TIP3    H233559   6.337   6.215  18.757 -1.5203 -0.2985  1.3580
 3122TIP3   OH233560   0.242   6.554  18.063  0.1117  0.1800 -0.5129
 3122TIP3    H133561   0.320   6.605  18.041  1.9059 -1.8528  0.7917
 3122TIP3    H233562   0.229   6.569  18.156  0.7008 -1.6732 -0.0939
 3123TIP3   OH233563   6.571   5.455  21.019 -0.2624 -0.0599  0.2231
 3123TIP3    H133564   6.605   5.449  21.108 -0.3515 -2.2173  0.1844
 3123TIP3    H233565   6.637   5.503  20.970  0.3195  0.1736  1.2173
 3124TIP3   OH233566   1.406   3.763  18.371  0.3602 -0.9577  0.0760
 3124TIP3    H133567   1.415   3.714  18.290  0.3889  1.7395 -1.6951
 3124TIP3    H233568   1.311   3.779  18.379  0.5576  1.4324 -1.2720
 3125TIP3   OH233569   1.315   3.943  19.727  0.7179 -0.0515 -0.2382
 3125TIP3    H133570   1.343   3.867  19.777  2.7678  0.8137  0.0248
 3125TIP3    H233571   1.280   4.004  19.792 -1.2729 -0.8661 -0.4899
 3126TIP3   OH233572   6.233   3.652  18.818 -0.0274 -0.3497 -0.7751
 3126TIP3    H133573   6.196   3.575  18.861  0.8072  0.3871  1.3579
 3126TIP3    H233574   6.189   3.726  18.860  0.0495  0.3942 -1.9571
 3127TIP3   OH233575   1.243   0.531  21.209  0.3848  0.3368 -0.1957
 3127TIP3    H133576   1.206   0.453  21.168 -1.1390  1.3444 -0.8371
 3127TIP3    H233577   1.331   0.505  21.235  1.6781 -0.2656 -4.4786
 3128TIP3   OH233578   2.931   0.004  20.522 -0.6509 -0.4543 -0.5413
 3128TIP3    H133579   3.016   0.042  20.501 -0.5337 -1.3683 -1.7812
 3128TIP3    H233580   2.933  -0.007  20.617  0.7226 -0.7003 -0.5765
 3129TIP3   OH233581   1.654   4.010  19.218  0.0394 -0.4306  0.0091
 3129TIP3    H133582   1.634   3.956  19.142 -0.0166  0.4613 -0.6146
 3129TIP3    H233583   1.674   4.096  19.183 -1.5495  0.4333  1.1133
 3130TIP3   OH233584   5.831   1.840  19.269  0.6704 -0.4145  0.4619
 3130TIP3    H133585   5.832   1.908  19.202 -0.6019  0.2292  1.0569
 3130TIP3    H233586   5.922   1.810  19.274  1.6031  2.2095  1.1302
 3131TIP3   OH233587   3.299   2.177  18.244  0.3073  0.1009 -0.5703
 3131TIP3    H133588   3.272   2.185  18.153 -1.7291  1.7974  0.1255
 3131TIP3    H233589   3.305   2.082  18.259 -1.3346 -0.2607 -1.9236
 3132TIP3   OH233590   3.157   3.034  18.923 -0.7525 -0.3405 -0.5697
 3132TIP3    H133591   3.203   3.117  18.919 -1.2870  0.0343  0.7102
 3132TIP3    H233592   3.067   3.057  18.948 -0.8340 -1.3124  0.1002
 3133TIP3   OH233593   0.697   3.905  18.933  0.6747  0.2445 -0.3253
 3133TIP3    H133594   0.713   3.947  18.849 -1.8122  2.8477  0.3300
 3133TIP3    H233595   0.614   3.944  18.964  1.4299 -0.6212  3.2649
 3134TIP3   OH233596   3.578   0.188  19.291  0.4374 -0.2502  0.1450
 3134TIP3    H133597   3.595   0.158  19.202 -0.5482  1.6586 -0.7424
 3134TIP3    H233598   3.491   0.156  19.311  0.3319  0.0078  0.1040
 3135TIP3   OH233599   2.010   3.202  21.100 -0.3606  0.0005 -0.2068
 3135TIP3    H133600   2.062   3.231  21.175 -0.5169 -0.7702  0.2043
 3135TIP3    H233601   2.074   3.192  21.029  0.0371 -0.7388  0.2412
 3136TIP3   OH233602   0.239   3.692  19.665 -0.0301 -0.1082  0.2562
 3136TIP3    H133603   0.168   3.664  19.609  0.3616 -2.5181  0.8726
 3136TIP3    H233604   0.248   3.622  19.730  0.7112  1.6992  2.2539
 3137TIP3   OH233605   2.783   5.982  20.184 -0.3858 -0.1901 -0.4987
 3137TIP3    H133606   2.691   5.956  20.180 -0.0637 -2.0745  1.9528
 3137TIP3    H233607   2.831   5.899  20.181  1.0951  0.5829  0.5901
 3138TIP3   OH233608   2.940   5.077  19.880 -0.3429  0.7849  0.2347
 3138TIP3    H133609   2.890   5.118  19.950  0.1526  0.1279  0.9978
 3138TIP3    H233610   2.987   5.005  19.923 -0.4661  0.0120 -0.8784
 3139TIP3   OH233611   3.184   3.423  20.760  0.7964 -0.0291 -0.8162
 3139TIP3    H133612   3.223   3.504  20.728 -0.0359  0.1030 -1.5497
 3139TIP3    H233613   3.100   3.449  20.798  1.6623 -0.2165  1.3651
 3140TIP3   OH233614   0.126   4.214  20.587  0.2091 -0.0602  0.2483
 3140TIP3    H133615   0.140   4.158  20.510  2.6523 -1.5056  1.5869
 3140TIP3    H233616   0.168   4.297  20.565 -0.4429  0.0793 -0.5091
 3141TIP3   OH233617   2.230   6.618  20.266  0.1057 -0.2561 -0.0356
 3141TIP3    H133618   2.184   6.700  20.282  0.4032 -0.2437  0.8172
 3141TIP3    H233619   2.191   6.584  20.185 -1.2897 -0.1793  0.5718
 3142TIP3   OH233620   4.238   4.003  20.542 -0.0452 -0.4566  0.1634
 3142TIP3    H133621   4.285   3.944  20.601 -1.0714  0.4349  1.9654
 3142TIP3    H233622   4.156   3.957  20.523  0.0582 -0.5108 -0.1636
 3143TIP3   OH233623   6.038   3.440  18.278  1.0483  0.1033 -0.4506
 3143TIP3    H133624   5.954   3.413  18.241  0.8669 -0.2540  0.2041
 3143TIP3    H233625   6.090   3.467  18.202  0.4453  0.0543 -0.8904
 3144TIP3   OH233626   0.865   0.903  18.869 -0.1162  0.3928  0.1408
 3144TIP3    H133627   0.845   0.872  18.957  0.9210  0.7415  0.5136
 3144TIP3    H233628   0.937   0.966  18.881  0.9182 -0.4960 -1.0669
 3145TIP3   OH233629   4.368   4.909  20.655  0.1571  0.3948 -0.0781
 3145TIP3    H133630   4.401   4.970  20.590 -0.1204  1.1249  0.4609
 3145TIP3    H233631   4.273   4.905  20.639  0.3688 -1.2275 -1.2226
 3146TIP3   OH233632   0.819   6.492  20.292  0.1448 -0.0102 -0.0926
 3146TIP3    H133633   0.843   6.578  20.326 -1.2388  1.3151 -2.2269
 3146TIP3    H233634   0.881   6.476  20.221 -0.4598 -0.1399 -0.5968
 3147TIP3   OH233635   5.190   6.118  21.277  0.0355  0.2733 -0.2063
 3147TIP3    H133636   5.283   6.097  21.291  0.0690  0.3387 -0.3360
 3147TIP3    H233637   5.144   6.038  21.302  0.1423  0.1561 -0.3819
 3148TIP3   OH233638   6.274   2.423  19.030 -0.4437 -0.3889  0.2358
 3148TIP3    H133639   6.249   2.515  19.041 -1.1003 -0.7155  1.8516
 3148TIP3    H233640   6.353   2.414  19.082  0.2158 -0.5157 -0.7750
 3149TIP3   OH233641   4.356   1.448  17.902  0.3925 -0.0572 -0.4726
 3149TIP3    H133642   4.451   1.443  17.891  0.3220 -0.7929 -0.8483
 3149TIP3    H233643   4.340   1.414  17.990  0.5545  1.0716  0.0062
 3150TIP3   OH233644   0.467   4.900  19.678 -0.2205 -0.5178  0.3427
 3150TIP3    H133645   0.517   4.915  19.758  1.0206  0.7048 -0.6176
 3150TIP3    H233646   0.424   4.983  19.661 -0.6886 -0.8527 -0.1260
 3151TIP3   OH233647   4.010   3.029  19.098 -0.0791  0.1397  0.5400
 3151TIP3    H133648   3.959   3.003  19.175 -0.3091  0.0168  0.3469
 3151TIP3    H233649   3.953   3.091  19.052 -0.3968 -0.6325 -0.1141
 3152TIP3   OH233650   5.623   6.351  21.141 -0.2550 -0.5681 -0.3403
 3152TIP3    H133651   5.713   6.323  21.127 -0.6622 -2.0480 -0.1216
 3152TIP3    H233652   5.596   6.386  21.056  0.5584  0.0261 -0.3657
 3153TIP3   OH233653   4.042   2.135  20.518  0.3553 -0.5469 -0.4800
 3153TIP3    H133654   4.114   2.197  20.508  0.6980 -0.9279 -0.4275
 3153TIP3    H233655   4.072   2.074  20.586 -0.0451 -0.6689 -0.4052
 3154TIP3   OH233656   5.311   1.841  21.140 -0.2481 -0.0737 -0.4096
 3154TIP3    H133657   5.316   1.782  21.065 -1.0777  0.4469 -0.8926
 3154TIP3    H233658   5.395   1.888  21.139 -0.5771  0.5355 -1.5448
 3155TIP3   OH233659   2.158   0.994  20.182  0.0285  0.2331 -0.2750
 3155TIP3    H133660   2.144   1.040  20.265  0.1237  0.6556 -0.4903
 3155TIP3    H233661   2.218   0.923  20.204  1.1402  1.1526 -0.2344
 3156TIP3   OH233662   3.906   0.860  17.479  0.5020 -0.2736  0.3625
 3156TIP3    H133663   3.981   0.826  17.528  1.6847  2.0713  0.3425
 3156TIP3    H233664   3.899   0.952  17.506 -1.2037  0.0639 -1.0307
 3157TIP3   OH233665   4.658   3.691  21.418  0.3377 -0.2826  0.2359
 3157TIP3    H133666   4.725   3.760  21.416  0.2628 -0.2175 -1.4644
 3157TIP3    H233667   4.689   3.629  21.485  1.4387  0.3775  0.3601
 3158TIP3   OH233668   6.392   0.599  18.794 -0.4433 -0.3864  0.1449
 3158TIP3    H133669   6.437   0.515  18.787 -0.9243 -0.5654 -1.1930
 3158TIP3    H233670   6.457   0.664  18.769  0.4573 -0.1270  2.8304
 3159TIP3   OH233671   2.192   0.869  19.319 -0.0889 -0.0369 -0.1171
 3159TIP3    H133672   2.246   0.949  19.311  0.9305 -0.8707 -2.1069
 3159TIP3    H233673   2.191   0.852  19.413  0.8856  1.5189  0.2279
 3160TIP3   OH233674   5.322   5.970  18.147  0.1801  0.3347  0.7035
 3160TIP3    H133675   5.253   5.918  18.187 -0.2011  0.7078  0.5364
 3160TIP3    H233676   5.294   6.061  18.159  1.7031  0.6040  2.6094
 3161TIP3   OH233677   4.063   2.755  19.020  0.2409  0.1346  0.5824
 3161TIP3    H133678   4.073   2.768  19.114 -1.0070  0.0200  0.7462
 3161TIP3    H233679   4.029   2.839  18.988  0.6927  0.1867  0.2093
 3162TIP3   OH233680   5.317   3.782  18.048 -0.4035  0.3429  0.0973
 3162TIP3    H133681   5.327   3.830  17.965 -0.0657  0.2310  0.0725
 3162TIP3    H233682   5.234   3.813  18.083 -0.5179  0.4439 -0.2521
 3163TIP3   OH233683   2.627   6.543  19.316 -0.0101 -0.0335  0.1028
 3163TIP3    H133684   2.638   6.603  19.389  0.4953  0.0030 -0.0006
 3163TIP3    H233685   2.661   6.459  19.348 -2.0061 -0.6663  0.7500
 3164TIP3   OH233686   4.834   0.209  17.334  0.0587  0.1551 -0.5611
 3164TIP3    H133687   4.898   0.211  17.405 -1.7070  1.9842  1.1222
 3164TIP3    H233688   4.804   0.300  17.327 -1.3779 -0.3928 -2.2191
 3165TIP3   OH233689   4.673   5.434  18.903  0.1546 -0.2464  0.5008
 3165TIP3    H133690   4.691   5.433  18.809  2.2258 -0.5343  0.8411
 3165TIP3    H233691   4.594   5.487  18.912  0.8000  1.1156 -1.2672
 3166TIP3   OH233692   2.189   3.348  20.098 -0.3103  0.7196 -0.2335
 3166TIP3    H133693   2.137   3.294  20.038 -1.4357  0.5783  0.8395
 3166TIP3    H233694   2.275   3.352  20.057 -0.8144 -0.0733 -1.4352
 3167TIP3   OH233695   4.888   3.346  20.388 -0.0002  0.0621  0.4140
 3167TIP3    H133696   4.812   3.384  20.433 -0.3478 -1.9338  1.6254
 3167TIP3    H233697   4.914   3.273  20.443  2.1733  0.0394 -0.5477
 3168TIP3   OH233698   3.230   5.629  18.613 -0.3578  0.6440  0.2349
 3168TIP3    H133699   3.190   5.623  18.526  1.8556 -0.0656 -0.7947
 3168TIP3    H233700   3.231   5.722  18.632 -2.1444  0.7155  0.1715
 3169TIP3   OH233701   4.490   0.535  19.392 -0.5885  0.3806  0.7138
 3169TIP3    H133702   4.405   0.572  19.369 -1.2074  0.4851  2.9560
 3169TIP3    H233703   4.543   0.610  19.418  0.1360  0.2834 -0.3931
 3170TIP3   OH233704   5.768   4.796  19.470  0.1541 -0.6625  0.5377
 3170TIP3    H133705   5.736   4.713  19.435  0.2238 -0.0509 -1.0778
 3170TIP3    H233706   5.863   4.790  19.465  0.3861 -1.9773  4.1397
 3171TIP3   OH233707   2.384   5.271  19.308 -0.1255  0.2549 -0.4986
 3171TIP3    H133708   2.406   5.352  19.353  0.3311  0.1841 -0.5909
 3171TIP3    H233709   2.405   5.288  19.216 -3.2269  1.2371 -1.1734
 3172TIP3   OH233710   5.694   3.312  18.200 -0.3411 -0.5556 -0.0654
 3172TIP3    H133711   5.620   3.255  18.178  0.0546 -0.8416 -0.6788
 3172TIP3    H233712   5.758   3.295  18.132 -0.2744  0.7495 -0.3534
 3173TIP3   OH233713   4.447   2.687  18.187 -0.0885  0.7394 -0.2074
 3173TIP3    H133714   4.532   2.645  18.195  0.0037  0.9580 -0.0385
 3173TIP3    H233715   4.388   2.617  18.157  0.1263  0.5644 -0.2180
 3174TIP3   OH233716   3.787   1.217  20.253  0.1919  0.3161 -0.2347
 3174TIP3    H133717   3.787   1.167  20.171  1.1651 -0.0600 -0.0250
 3174TIP3    H233718   3.711   1.184  20.301 -0.8632  1.0982 -1.2891
 3175TIP3   OH233719   2.910   0.058  19.793 -0.1640 -0.0846  0.1158
 3175TIP3    H133720   2.986   0.080  19.846 -0.5615 -0.3082  0.7971
 3175TIP3    H233721   2.836   0.066  19.854 -0.7970  1.0454 -0.7563
 3176TIP3   OH233722   3.577   5.813  18.589 -0.7322 -0.1827 -0.1015
 3176TIP3    H133723   3.596   5.905  18.570 -0.8071 -0.2251 -0.3732
 3176TIP3    H233724   3.484   5.811  18.610 -1.0329 -0.4093 -1.4078
 3177TIP3   OH233725   4.184   0.526  18.582 -0.1412 -0.4216  0.0978
 3177TIP3    H133726   4.276   0.520  18.556 -0.0611 -0.8377  0.4656
 3177TIP3    H233727   4.149   0.598  18.530 -0.4577 -2.3438 -2.5157
 3178TIP3   OH233728   5.302   0.978  20.773 -0.2813  0.6492  0.2065
 3178TIP3    H133729   5.373   0.915  20.778 -0.7689  0.0677 -0.0684
 3178TIP3    H233730   5.344   1.059  20.744  0.1160  0.0354 -1.0079
 3179TIP3   OH233731   4.884   0.045  20.297 -0.1821 -0.0795  0.2458
 3179TIP3    H133732   4.908   0.067  20.387 -2.1215  1.0412  0.5514
 3179TIP3    H233733   4.800   0.000  20.305 -1.5859  2.1248 -1.0914
 3180TIP3   OH233734   3.845   5.658  18.021  0.3247 -0.2665  0.4157
 3180TIP3    H133735   3.939   5.650  18.006  0.2898 -2.2480  1.0585
 3180TIP3    H233736   3.805   5.606  17.950 -0.4869  2.8467 -1.6337
 3181TIP3   OH233737   6.576   5.098  19.720  0.3433 -0.4665  0.1825
 3181TIP3    H133738   6.583   5.192  19.704  1.2686 -0.4328  0.6784
 3181TIP3    H233739   6.510   5.090  19.790  1.1342 -0.0696  0.9962
 3182TIP3   OH233740   4.091   5.237  18.984  0.2851  0.2665  0.3362
 3182TIP3    H133741   4.068   5.148  18.956 -0.1577  0.4813  0.0022
 3182TIP3    H233742   4.092   5.287  18.902 -0.8466  0.8671  0.6777
 3183TIP3   OH233743   2.667   3.329  17.859  0.2575  0.3894 -0.1843
 3183TIP3    H133744   2.725   3.401  17.886  0.3703 -0.0940  0.9249
 3183TIP3    H233745   2.592   3.373  17.819 -0.8875  1.3579  2.7243
 3184TIP3   OH233746   1.890   2.066  20.675 -0.5704  0.1382 -0.4664
 3184TIP3    H133747   1.905   1.993  20.735  0.1917  0.0141 -0.7877
 3184TIP3    H233748   1.796   2.083  20.680 -0.6175 -0.2898  0.2697
 3185TIP3   OH233749   1.037   0.593  19.003 -0.2831 -0.5515 -0.1309
 3185TIP3    H133750   1.015   0.530  19.073 -1.3942 -1.3301 -1.1451
 3185TIP3    H233751   1.014   0.678  19.040  0.1252 -0.8395  0.8327
 3186TIP3   OH233752   1.254   5.076  18.577  0.1194  0.0321  0.0732
 3186TIP3    H133753   1.282   5.133  18.505  0.0378 -1.4910 -1.2297
 3186TIP3    H233754   1.279   5.124  18.656  1.9647  0.9287 -0.9710
 3187TIP3   OH233755   2.762   0.554  20.378 -0.0182 -0.2966  0.4112
 3187TIP3    H133756   2.673   0.519  20.380 -0.2814  0.2658 -0.6479
 3187TIP3    H233757   2.797   0.535  20.465 -0.9088 -1.1935  0.5960
 3188TIP3   OH233758   0.732   4.779  18.748  0.4013 -0.0222  0.5071
 3188TIP3    H133759   0.773   4.795  18.663  2.5212 -0.4906  1.3934
 3188TIP3    H233760   0.658   4.721  18.728  1.8206 -1.4525 -0.8323
 3189TIP3   OH233761   2.040   4.693  17.885  0.0407 -0.3616  0.2155
 3189TIP3    H133762   1.980   4.750  17.837  0.5227 -0.1745 -0.1691
 3189TIP3    H233763   2.072   4.748  17.957  0.7905 -0.0028 -0.3676
 3190TIP3   OH233764   1.512   5.982  18.179 -0.3359  0.3919  0.0223
 3190TIP3    H133765   1.417   5.982  18.169 -0.2095  2.1445 -1.7433
 3190TIP3    H233766   1.538   5.893  18.154 -1.4197  0.1695 -0.3972
 3191TIP3   OH233767   4.218   6.566  19.909 -0.2472 -0.2981 -0.3610
 3191TIP3    H133768   4.252   6.480  19.933  1.1793  0.6078  1.0402
 3191TIP3    H233769   4.150   6.584  19.974 -0.6524 -0.4100 -0.7454
 3192TIP3   OH233770   2.655   1.795  17.977  0.3784  0.4621  0.0913
 3192TIP3    H133771   2.567   1.829  17.964  0.1837 -0.2065 -0.3139
 3192TIP3    H233772   2.705   1.871  18.009 -0.4397  0.7325  0.7693
 3193TIP3   OH233773   3.117   3.364  21.416  0.0450  0.6626 -0.3884
 3193TIP3    H133774   3.070   3.394  21.493  1.0347  0.7417  0.2019
 3193TIP3    H233775   3.103   3.270  21.414  0.8146  0.5173  0.4609
 3194TIP3   OH233776   4.278   6.533  18.595 -1.0460  0.7202  0.3046
 3194TIP3    H133777   4.333   6.581  18.657  2.6783 -1.4318 -0.9851
 3194TIP3    H233778   4.340   6.489  18.537 -4.2073 -2.0125 -1.3755
 3195TIP3   OH233779   3.432   0.304  18.623 -0.0667  0.2217  0.7658
 3195TIP3    H133780   3.494   0.311  18.550  0.8912  0.0610  1.5534
 3195TIP3    H233781   3.402   0.213  18.620 -1.0579  0.5460 -0.2227
 3196TIP3   OH233782   3.842   3.843  21.511  0.2429 -0.2405 -0.5054
 3196TIP3    H133783   3.925   3.822  21.468  1.4454  2.5395  0.2807
 3196TIP3    H233784   3.824   3.766  21.566  1.9683 -1.1673 -1.1583
 3197TIP3   OH233785   3.662   2.081  18.300 -0.1341  0.8661  0.3173
 3197TIP3    H133786   3.597   2.144  18.332  1.1465  2.2870  0.2164
 3197TIP3    H233787   3.713   2.058  18.378  0.2195  0.9388  0.1059
 3198TIP3   OH233788   1.682   5.634  18.822 -0.0063 -0.1442 -0.0052
 3198TIP3    H133789   1.726   5.607  18.903 -2.3101  0.3820  1.5508
 3198TIP3    H233790   1.713   5.723  18.806 -0.4004  0.1946  1.0199
 3199TIP3   OH233791   6.367   2.119  19.054  0.4527 -0.1350  0.3526
 3199TIP3    H133792   6.277   2.097  19.032  0.6666  0.7154 -1.6838
 3199TIP3    H233793   6.365   2.142  19.147 -0.7856 -3.1091  1.1664
 3200TIP3   OH233794   2.358   2.470  19.420  0.4084  0.3832 -0.6882
 3200TIP3    H133795   2.327   2.541  19.364 -0.1974 -1.4793 -2.8339
 3200TIP3    H233796   2.316   2.487  19.505 -1.8269  1.1907 -1.8689
 3201TIP3   OH233797   0.668   0.477  19.292  0.1301  0.1641 -0.4029
 3201TIP3    H133798   0.738   0.477  19.357  0.1876  0.7289 -0.4572
 3201TIP3    H233799   0.636   0.567  19.291 -2.0297 -0.4992  1.1453
 3202TIP3   OH233800   1.236   3.533  19.340  0.3537  0.7066  0.6662
 3202TIP3    H133801   1.194   3.455  19.376  0.1492  1.2338  1.6114
 3202TIP3    H233802   1.277   3.504  19.259 -1.5048  0.0726 -0.0938
 3203TIP3   OH233803   6.361   4.892  20.334 -0.3772 -0.1026  0.0428
 3203TIP3    H133804   6.398   4.959  20.277  1.5646 -1.3424 -0.2516
 3203TIP3    H233805   6.356   4.933  20.420 -0.3225  0.7780 -0.3694
 3204TIP3   OH233806   3.642   2.135  20.971 -0.0315 -0.2591 -0.0411
 3204TIP3    H133807   3.618   2.123  21.063 -2.6613 -0.6204 -0.6923
 3204TIP3    H233808   3.591   2.211  20.942  0.7278 -0.1649 -1.2091
 3205TIP3   OH233809   6.276   3.599  19.606  0.0860  0.0074 -0.4642
 3205TIP3    H133810   6.277   3.503  19.603 -1.9629 -0.0291 -2.4357
 3205TIP3    H233811   6.189   3.621  19.639  0.3202  1.1788 -0.6100
 3206TIP3   OH233812   2.983   1.170  19.499 -0.5394  0.1116 -0.5031
 3206TIP3    H133813   2.946   1.088  19.469  0.0920  0.0383 -1.0983
 3206TIP3    H233814   3.070   1.175  19.458 -0.0078  0.4209  0.6071
 3207TIP3   OH233815   2.385   4.746  17.702  0.6043  0.8773  0.3609
 3207TIP3    H133816   2.424   4.816  17.651  0.9842 -0.2535 -0.9600
 3207TIP3    H233817   2.294   4.774  17.716  1.0368  2.1141  0.8136
 3208TIP3   OH233818   0.975   0.679  18.718  0.4725 -0.4314 -0.4200
 3208TIP3    H133819   1.050   0.645  18.767  1.7364  0.8983 -1.3179
 3208TIP3    H233820   0.922   0.724  18.783  0.6506 -1.0446  0.1663
 3209TIP3   OH233821   3.650   0.091  21.206 -0.7566 -0.5219  0.1908
 3209TIP3    H133822   3.706   0.165  21.181 -1.8903  0.1693 -0.4027
 3209TIP3    H233823   3.710   0.017  21.216  0.2206  0.1249 -0.6887
 3210TIP3   OH233824   3.900   3.971  18.757  0.2862 -0.4011  0.3798
 3210TIP3    H133825   3.934   4.060  18.755  0.8491 -0.6003 -1.7683
 3210TIP3    H233826   3.857   3.963  18.842  0.6487  1.7388  0.8154
 3211TIP3   OH233827   0.084   1.742  21.172  0.4179  0.4843  0.2646
 3211TIP3    H133828   0.074   1.835  21.152 -0.5269  0.5229  0.8813
 3211TIP3    H233829   0.053   1.697  21.094  1.4973  0.6788 -0.2985
 3212TIP3   OH233830   4.571   3.877  18.845  0.7930 -0.2093  0.1668
 3212TIP3    H133831   4.508   3.921  18.903 -0.6811  0.8540 -2.1207
 3212TIP3    H233832   4.645   3.937  18.840  0.6873 -0.0480  0.5067
 3213TIP3   OH233833   1.466   5.006  19.425 -0.3196  0.2568 -0.2617
 3213TIP3    H133834   1.516   4.924  19.420  0.7764  0.7922  1.3432
 3213TIP3    H233835   1.474   5.043  19.337  1.7262  0.0806 -0.1989
 3214TIP3   OH233836   5.772   0.627  20.026 -0.2024  0.4290  0.2655
 3214TIP3    H133837   5.822   0.643  20.106  1.6412  4.8200 -1.4285
 3214TIP3    H233838   5.689   0.673  20.039 -0.2232  0.4823 -0.0408
 3215TIP3   OH233839   3.193   3.641  20.124  0.5129 -0.2338  0.0585
 3215TIP3    H133840   3.159   3.650  20.035 -1.4040 -2.6555  0.4316
 3215TIP3    H233841   3.268   3.582  20.116  0.8416  0.1847 -0.0139
 3216TIP3   OH233842   4.470   3.206  20.493  0.1371  0.0188  0.2114
 3216TIP3    H133843   4.557   3.169  20.476  0.0587 -0.2116  0.3000
 3216TIP3    H233844   4.483   3.268  20.564  0.4394  0.8638 -0.5554
 3217TIP3   OH233845   3.046   0.873  19.231  0.0526  0.2482 -0.0533
 3217TIP3    H133846   3.059   0.885  19.137  0.6985 -1.9011 -0.3006
 3217TIP3    H233847   3.132   0.890  19.269  0.2922 -0.7281 -0.1119
 3218TIP3   OH233848   2.393   6.022  20.575  0.5459  0.1628 -0.2678
 3218TIP3    H133849   2.462   5.966  20.610 -0.6724 -1.0991  0.1888
 3218TIP3    H233850   2.356   6.066  20.652 -0.3153 -0.5200 -0.2743
 3219TIP3   OH233851   4.727   4.237  19.179  0.3422 -0.3029  0.8877
 3219TIP3    H133852   4.808   4.287  19.178 -0.6609  1.5300  3.2616
 3219TIP3    H233853   4.690   4.251  19.266 -1.1042 -3.4993  0.9481
 3220TIP3   OH233854   0.498   2.985  21.176  0.1525 -0.4156  0.7109
 3220TIP3    H133855   0.495   2.963  21.270 -1.5738  0.3842  0.8891
 3220TIP3    H233856   0.417   2.948  21.140  1.3807 -1.7960 -0.7607
 3221TIP3   OH233857   1.987   1.548  19.673  0.6746  0.4495 -0.4405
 3221TIP3    H133858   1.997   1.582  19.762 -1.0656  0.3266 -0.1686
 3221TIP3    H233859   2.030   1.462  19.675  0.4295  0.3358  0.3674
 3222TIP3   OH233860   5.115   6.176  20.498  0.1852  0.1848 -0.2223
 3222TIP3    H133861   5.195   6.138  20.533 -0.5537 -1.8885 -0.6280
 3222TIP3    H233862   5.112   6.147  20.407 -1.5352 -0.7122  0.0760
 3223TIP3   OH233863   5.728   5.299  18.087  0.1924 -0.7275 -0.8382
 3223TIP3    H133864   5.743   5.207  18.065 -1.6265 -1.1850 -0.2850
 3223TIP3    H233865   5.657   5.327  18.030 -0.3875 -0.1431  0.1404
 3224TIP3   OH233866   2.293   1.795  19.326 -0.4113 -0.0895  0.4897
 3224TIP3    H133867   2.203   1.770  19.305 -1.0375  0.8002  1.9825
 3224TIP3    H233868   2.289   1.829  19.415  1.4638 -0.2941  0.6999
 3225TIP3   OH233869   5.483   3.429  21.076  0.2021 -0.2140 -0.3747
 3225TIP3    H133870   5.490   3.504  21.017 -2.2852  0.1292 -0.3718
 3225TIP3    H233871   5.436   3.363  21.025 -1.9905  0.0757  1.1165
 3226TIP3   OH233872   6.248   2.317  20.316  0.1988  0.5218 -0.4989
 3226TIP3    H133873   6.315   2.259  20.352 -0.5988 -0.1994 -0.1528
 3226TIP3    H233874   6.181   2.259  20.280  0.3732  1.2356 -2.0454
 3227TIP3   OH233875   6.135   5.984  19.440  0.1643 -0.2690 -0.3467
 3227TIP3    H133876   6.107   5.901  19.480  0.3722 -0.0292  0.2982
 3227TIP3    H233877   6.099   5.980  19.351 -0.9187 -0.4887  0.0864
 3228TIP3   OH233878   6.171   2.582  18.548 -0.3138  0.1158 -0.1280
 3228TIP3    H133879   6.249   2.562  18.599  0.3896  0.1096 -1.1691
 3228TIP3    H233880   6.198   2.653  18.490 -0.7269 -0.6451 -1.3006
 3229TIP3   OH233881   3.300   3.001  21.440 -0.1984 -0.0346 -0.6515
 3229TIP3    H133882   3.354   3.027  21.365  0.7657 -0.4743 -0.1235
 3229TIP3    H233883   3.350   2.932  21.483 -1.3434 -0.6969 -0.3336
 3230TIP3   OH233884   4.158   3.279  21.135  0.1870  0.0927  0.7343
 3230TIP3    H133885   4.179   3.367  21.102  0.1256 -0.2185 -0.1696
 3230TIP3    H233886   4.131   3.230  21.057 -3.0644  0.1882  1.6611
 3231TIP3   OH233887   1.079   2.235  21.471  0.1028 -0.0948  0.5401
 3231TIP3    H133888   1.064   2.172  21.400 -0.2004  0.2727  0.2784
 3231TIP3    H233889   1.090   2.180  21.549  0.4963 -0.5025  0.2029
 3232TIP3   OH233890   5.293   0.672  18.096  0.6046 -0.1983 -0.2316
 3232TIP3    H133891   5.326   0.759  18.073 -2.0698  0.6155 -1.4090
 3232TIP3    H233892   5.318   0.616  18.022  3.2825 -0.7863  1.0215
 3233TIP3   OH233893   1.138   3.294  20.204  0.1617  0.6590  0.4081
 3233TIP3    H133894   1.100   3.267  20.120  1.3342 -0.5893  0.2517
 3233TIP3    H233895   1.178   3.379  20.185 -0.3139  0.7887 -0.0650
 3234TIP3   OH233896   4.797   2.042  17.775  0.3783 -0.2813 -0.2041
 3234TIP3    H133897   4.708   2.060  17.804  1.0789  1.5971  0.9452
 3234TIP3    H233898   4.816   2.110  17.710  1.4732  0.3439  0.7218
 3235TIP3   OH233899   5.118   2.881  19.890 -0.2121  0.6136  0.2555
 3235TIP3    H133900   5.058   2.847  19.823  0.4422  0.0950 -0.0745
 3235TIP3    H233901   5.073   2.863  19.973  1.0552 -3.2375  0.2972
 3236TIP3   OH233902   3.769   2.644  20.317  0.0134  0.2061  0.0726
 3236TIP3    H133903   3.748   2.683  20.402 -0.6599  0.8235 -0.3599
 3236TIP3    H233904   3.858   2.610  20.327  0.4431  1.4401  0.6202
 3237TIP3   OH233905   2.973   0.082  19.518  0.6114  0.1918  0.5607
 3237TIP3    H133906   2.931   0.075  19.604  1.5088 -0.4701  0.9625
 3237TIP3    H233907   3.034   0.008  19.515  0.2634 -0.0728 -0.8451
 3238TIP3   OH233908   4.548   0.126  19.904  0.2027  0.2158  0.0744
 3238TIP3    H133909   4.470   0.167  19.867  0.9352  2.2789  0.7097
 3238TIP3    H233910   4.516   0.043  19.940 -1.3114  0.1257 -1.3626
 3239TIP3   OH233911   1.140   4.257  19.011 -0.1249  0.0197  0.0301
 3239TIP3    H133912   1.108   4.180  18.965 -3.3185  0.2272  1.6025
 3239TIP3    H233913   1.158   4.320  18.942 -3.0399 -0.2844 -1.1701
 3240TIP3   OH233914   1.596   5.720  18.132  0.4365 -0.1961 -0.1756
 3240TIP3    H133915   1.553   5.688  18.053  0.5884  0.5980 -0.5910
 3240TIP3    H233916   1.557   5.669  18.203  0.2814 -0.9032 -0.7568
 3241TIP3   OH233917   5.119   0.969  18.817 -0.1380  0.2322 -0.8949
 3241TIP3    H133918   5.129   1.062  18.798 -0.1036  0.9517  2.0560
 3241TIP3    H233919   5.094   0.966  18.910 -0.5375 -2.6991 -0.9817
 3242TIP3   OH233920   5.506   0.040  19.054  0.1645 -0.5369 -0.0130
 3242TIP3    H133921   5.515   0.021  19.147 -0.6129  1.5218  0.5305
 3242TIP3    H233922   5.414   0.025  19.035  0.2785 -0.7548 -0.4115
 3243TIP3   OH233923   1.982   6.550  20.657 -0.0780 -0.5230  0.5943
 3243TIP3    H133924   1.906   6.504  20.622  1.0641 -3.7498  1.9266
 3243TIP3    H233925   1.964   6.556  20.751  0.7719 -0.1898  0.7418
 3244TIP3   OH233926   4.612   4.740  20.693  0.5125 -0.3891  0.3015
 3244TIP3    H133927   4.637   4.832  20.688  1.7670 -0.6457  1.3058
 3244TIP3    H233928   4.595   4.714  20.603  2.2625  0.2797 -0.2617
 3245TIP3   OH233929   2.682   3.523  18.428  0.0753 -0.7015  0.3976
 3245TIP3    H133930   2.677   3.589  18.359 -1.4965 -1.2069 -0.0133
 3245TIP3    H233931   2.610   3.546  18.488  0.9684 -0.6919  1.4964
 3246TIP3   OH233932   3.422   3.789  17.857  0.0682  0.1621 -0.1537
 3246TIP3    H133933   3.339   3.742  17.848  0.6165 -0.6458 -1.2556
 3246TIP3    H233934   3.437   3.827  17.771 -0.3342  2.4079  0.6944
 3247TIP3   OH233935   6.467   0.673  19.107  0.0674  0.2510 -0.2957
 3247TIP3    H133936   6.438   0.588  19.139 -0.2228  0.7498  0.8373
 3247TIP3    H233937   6.562   0.665  19.099  0.0348 -0.1990 -0.2474
 3248TIP3   OH233938   4.328   3.081  17.660 -0.1518 -0.6603  0.1999
 3248TIP3    H133939   4.298   3.119  17.577 -0.6666 -1.1018  0.1824
 3248TIP3    H233940   4.271   3.121  17.726 -1.3902 -2.1461  0.0777
 3249TIP3   OH233941   1.059   4.566  19.309  0.4061  0.2372  0.3379
 3249TIP3    H133942   0.989   4.510  19.342  1.7515 -2.2768 -0.8198
 3249TIP3    H233943   1.095   4.609  19.387 -0.4532 -0.8019  1.3288
 3250TIP3   OH233944   3.836   0.653  20.495 -0.8894  0.6546  0.3754
 3250TIP3    H133945   3.776   0.579  20.487  0.8931 -0.6899 -1.7115
 3250TIP3    H233946   3.876   0.661  20.409 -0.0310  3.2352  0.9185
 3251TIP3   OH233947   2.042   2.973  19.743  0.1616  0.3646  0.0852
 3251TIP3    H133948   1.964   2.947  19.693  0.9222 -2.0998  0.0147
 3251TIP3    H233949   2.109   2.988  19.677  0.2888  0.3762  0.2162
 3252TIP3   OH233950   4.621   4.079  21.236  0.4493  0.1667 -0.1910
 3252TIP3    H133951   4.580   4.059  21.152 -0.0357 -3.1181  0.6878
 3252TIP3    H233952   4.554   4.062  21.301  1.1563  1.5618  0.9695
 3253TIP3   OH233953   6.462   3.597  19.045 -0.0395 -0.1359 -0.7204
 3253TIP3    H133954   6.499   3.623  18.960 -1.2696  0.1429 -1.1891
 3253TIP3    H233955   6.374   3.566  19.024 -0.5975  0.5556  0.5376
 3254TIP3   OH233956   0.872   1.488  18.203 -0.0842 -0.3609  0.1105
 3254TIP3    H133957   0.960   1.507  18.169  0.0261 -1.4981 -0.2627
 3254TIP3    H233958   0.878   1.509  18.297  0.1280  1.0341 -0.1866
 3255TIP3   OH233959   4.245   4.394  18.514  0.0251 -0.5240 -0.0452
 3255TIP3    H133960   4.306   4.459  18.549 -1.7929  1.7611 -0.8606
 3255TIP3    H233961   4.291   4.310  18.523  2.4267  0.8248  1.1805
 3256TIP3   OH233962   1.218   5.575  18.296 -0.0646  0.3244 -0.3310
 3256TIP3    H133963   1.159   5.505  18.269 -0.6970  1.2311 -1.3380
 3256TIP3    H233964   1.167   5.627  18.358 -0.8758  1.9081 -2.2297
 3257TIP3   OH233965   1.250   2.803  19.719  0.0195 -0.1396 -0.5261
 3257TIP3    H133966   1.251   2.737  19.789  1.3047 -1.5462 -1.7855
 3257TIP3    H233967   1.310   2.871  19.748 -0.0468 -0.3397  0.0799
 3258TIP3   OH233968   0.931   2.290  18.637  0.6204 -0.4350 -0.0837
 3258TIP3    H133969   0.953   2.380  18.612  1.0057 -0.4913  0.0533
 3258TIP3    H233970   0.835   2.290  18.643  0.5540 -0.2621 -0.9565
 3259TIP3   OH233971   4.286   2.967  19.069  0.6855  0.1108  0.4777
 3259TIP3    H133972   4.190   2.974  19.068  0.7093  0.4719  0.3813
 3259TIP3    H233973   4.307   2.942  19.158  0.3232 -3.0394 -0.2075
 3260TIP3   OH233974   5.417   6.492  19.580  0.8837 -0.0439 -0.4186
 3260TIP3    H133975   5.416   6.588  19.578  0.2943  0.0134 -3.7816
 3260TIP3    H233976   5.472   6.468  19.505 -0.7642 -2.2889 -1.0153
 3261TIP3   OH233977   4.949   4.580  21.548 -0.5671  0.3823  0.2061
 3261TIP3    H133978   4.907   4.581  21.634 -2.0304  0.9034 -0.4810
 3261TIP3    H233979   4.906   4.509  21.501 -0.3804  0.6502 -0.3738
 3262TIP3   OH233980   2.315   1.944  19.558  0.0254 -0.0370 -0.0303
 3262TIP3    H133981   2.347   2.034  19.570  1.3052 -0.5190  0.4294
 3262TIP3    H233982   2.226   1.945  19.592  0.3259  0.8742  0.7790
 3263TIP3   OH233983   4.315   1.200  17.249  0.4361  0.0601  0.3955
 3263TIP3    H133984   4.283   1.114  17.222  1.0894  0.2029 -0.9329
 3263TIP3    H233985   4.282   1.259  17.181  1.8973  0.4868  0.0263
 3264TIP3   OH233986   3.588   0.190  17.923  0.3388 -0.3105 -0.3808
 3264TIP3    H133987   3.546   0.115  17.883  0.0562  0.2865 -1.2371
 3264TIP3    H233988   3.523   0.260  17.917 -0.2082 -0.4782  2.2329
 3265TIP3   OH233989   5.584   6.394  18.769 -0.1173  0.3311 -0.3275
 3265TIP3    H133990   5.542   6.439  18.842 -0.5961 -1.2352  0.4185
 3265TIP3    H233991   5.591   6.460  18.700 -0.3961  1.6246  0.8436
 3266TIP3   OH233992   5.584   2.207  20.872 -0.0799 -0.6487  0.2325
 3266TIP3    H133993   5.571   2.161  20.789  0.9339 -1.4073  0.4764
 3266TIP3    H233994   5.663   2.168  20.909  0.0409  0.3691  1.0916
 3267TIP3   OH233995   1.626   3.524  20.548 -0.4633 -0.3736  0.1085
 3267TIP3    H133996   1.576   3.499  20.471 -1.0178  0.8496  0.0523
 3267TIP3    H233997   1.564   3.574  20.602  0.1552 -0.4890  0.9488
 3268TIP3   OH233998   5.450   0.180  19.360 -0.1223  0.4664  0.3185
 3268TIP3    H133999   5.425   0.172  19.452 -1.4480  2.9848  0.2620
 3268TIP3    H234000   5.386   0.241  19.323  0.4048 -0.4456 -2.2928
 3269TIP3   OH234001   0.355   6.075  18.870  0.4683 -0.0144  0.3060
 3269TIP3    H134002   0.266   6.068  18.833  0.8066  2.0186 -1.0658
 3269TIP3    H234003   0.357   6.162  18.910  1.5898 -0.3842  1.0743
 3270TIP3   OH234004   3.594   5.428  20.320 -0.5428 -0.1450  0.1632
 3270TIP3    H134005   3.574   5.449  20.229  0.0079 -0.7630 -0.1074
 3270TIP3    H234006   3.522   5.372  20.349 -1.6579  1.4958  0.6763
 3271TIP3   OH234007   4.773   5.810  21.221  0.2664 -0.3890 -0.0285
 3271TIP3    H134008   4.785   5.895  21.264  0.0671  0.6914 -1.9996
 3271TIP3    H234009   4.679   5.794  21.225  0.3343 -0.6777  0.5885
 3272TIP3   OH234010   0.356   0.417  20.510  0.2124 -0.1213 -0.6496
 3272TIP3    H134011   0.263   0.399  20.493  0.7390 -1.8407 -2.0621
 3272TIP3    H234012   0.382   0.476  20.440  0.0748  0.8963  0.1254
 3273TIP3   OH234013   3.180   4.459  19.775 -0.2302  0.2424  0.1058
 3273TIP3    H134014   3.238   4.412  19.715 -0.5528 -0.4392  0.3149
 3273TIP3    H234015   3.136   4.390  19.825  0.4989  0.8092  1.5765
 3274TIP3   OH234016   6.073   3.118  19.692 -0.0685 -0.1624  0.5837
 3274TIP3    H134017   6.108   3.031  19.710 -2.3983 -0.9212  1.8436
 3274TIP3    H234018   6.015   3.106  19.616 -1.5719 -0.0845  1.6779
 3275TIP3   OH234019   5.701   5.376  21.010  0.2094 -0.3985  0.1154
 3275TIP3    H134020   5.749   5.452  21.044 -0.1586  0.0802 -0.4108
 3275TIP3    H234021   5.663   5.335  21.088 -0.0591  0.2922  0.3610
 3276TIP3   OH234022   4.777   5.147  18.596  0.2880  0.5369 -0.1241
 3276TIP3    H134023   4.768   5.180  18.507 -2.8871  0.0979 -0.0812
 3276TIP3    H234024   4.730   5.064  18.596 -0.1520  0.7256  2.0667
 3277TIP3   OH234025   0.185   6.316  19.712  0.0827  0.7163  0.1912
 3277TIP3    H134026   0.122   6.348  19.648 -1.2657 -1.0586  0.5576
 3277TIP3    H234027   0.140   6.328  19.797  0.4047 -0.1582  0.4932
 3278TIP3   OH234028   6.150   4.815  20.803  0.3803 -0.5416  0.1040
 3278TIP3    H134029   6.091   4.754  20.760 -0.9429  2.1364 -2.1366
 3278TIP3    H234030   6.094   4.868  20.860  0.6334  1.5791 -1.5154
 3279TIP3   OH234031   1.321   5.160  20.211  0.4692  0.2278  0.2701
 3279TIP3    H134032   1.282   5.074  20.194  1.4459 -0.1816  0.0554
 3279TIP3    H234033   1.371   5.180  20.131  0.2847  0.9757  0.3372
 3280TIP3   OH234034   3.421   5.534  18.793  0.2374  0.3685 -0.1746
 3280TIP3    H134035   3.502   5.581  18.773  0.5954  0.0302  0.4386
 3280TIP3    H234036   3.356   5.572  18.734  1.0514 -0.0318 -1.3781
 3281TIP3   OH234037   6.076   1.714  19.227 -0.4012  0.6758  0.2341
 3281TIP3    H134038   6.109   1.645  19.285 -1.6871 -0.2611 -0.1081
 3281TIP3    H234039   6.102   1.687  19.140 -1.5177  0.2306  0.0221
 3282TIP3   OH234040   4.007   0.742  20.299  0.1572 -0.1342  0.7194
 3282TIP3    H134041   3.981   0.810  20.237 -0.3198 -0.4057  0.6128
 3282TIP3    H234042   4.041   0.790  20.374  2.5779  0.1932 -0.5019
 3283TIP3   OH234043   0.925   3.473  20.653  0.1842 -0.3275 -0.3803
 3283TIP3    H134044   0.959   3.409  20.715  2.2684 -0.2726 -1.3769
 3283TIP3    H234045   0.941   3.558  20.694  1.1735 -0.3083 -0.7807
 3284TIP3   OH234046   2.007   4.802  21.427 -0.2682 -0.6445  0.4308
 3284TIP3    H134047   1.973   4.889  21.449 -2.7053 -1.6063  0.7537
 3284TIP3    H234048   2.078   4.819  21.365 -1.0612  1.5466  0.0367
 3285TIP3   OH234049   4.297   0.822  20.515 -0.1628 -0.3780 -0.2510
 3285TIP3    H134050   4.300   0.734  20.553 -1.2830 -0.2599  0.1367
 3285TIP3    H234051   4.386   0.855  20.524  0.0376 -1.1003  0.4910
 3286TIP3   OH234052   3.551   5.317  20.709 -0.5327  0.3283 -0.1624
 3286TIP3    H134053   3.646   5.311  20.714 -0.4773  0.6528 -0.7398
 3286TIP3    H234054   3.524   5.230  20.679 -0.6872 -0.8151  2.9532
 3287TIP3   OH234055   2.322   5.986  20.874 -0.3836  0.1613 -0.0482
 3287TIP3    H134056   2.375   5.976  20.953 -0.0270 -1.0142 -0.4152
 3287TIP3    H234057   2.348   5.913  20.818 -1.2799  0.4563 -0.8860
 3288TIP3   OH234058   0.675   3.624  19.005  0.6555 -0.2452 -0.5760
 3288TIP3    H134059   0.705   3.711  18.978 -0.3668  0.2066 -0.3321
 3288TIP3    H234060   0.664   3.575  18.924 -0.1308  0.3274 -0.8275
 3289TIP3   OH234061   4.378   2.932  19.333 -0.7116 -0.3075  0.3706
 3289TIP3    H134062   4.358   2.924  19.427  0.5085 -3.4983  0.4639
 3289TIP3    H234063   4.437   3.006  19.328 -1.7269  0.6821  1.9373
 3290TIP3   OH234064   5.906   6.381  21.086 -0.3521 -0.0532 -0.4189
 3290TIP3    H134065   5.893   6.473  21.063 -1.6675 -0.2399 -0.5325
 3290TIP3    H234066   5.987   6.380  21.137 -1.1838  1.4277  1.0184
 3291TIP3   OH234067   2.676   5.557  19.587  0.1401 -0.6329 -0.3336
 3291TIP3    H134068   2.700   5.648  19.602  1.6841 -0.9250 -0.8511
 3291TIP3    H234069   2.679   5.517  19.674  0.9816 -0.5194 -0.3040
 3292TIP3   OH234070   3.376   0.519  18.805 -0.2578 -0.5346 -0.2681
 3292TIP3    H134071   3.366   0.609  18.773 -1.4428 -0.0560  1.3278
 3292TIP3    H234072   3.374   0.465  18.725  2.2685  0.9160 -1.4133
 3293TIP3   OH234073   0.357   2.107  19.028 -0.1119  0.5733  0.6333
 3293TIP3    H134074   0.316   2.182  18.984  0.6902  1.3057  1.1152
 3293TIP3    H234075   0.356   2.130  19.121 -1.5639 -0.8570  1.0025
 3294TIP3   OH234076   2.888   3.160  18.965 -0.4386  0.3674 -0.0932
 3294TIP3    H134077   2.802   3.127  18.940 -0.7829  0.1203  1.3434
 3294TIP3    H234078   2.874   3.253  18.981 -0.0308  0.7110 -1.5941
 3295TIP3   OH234079   3.899   6.411  19.122  0.3828  0.1522  0.2803
 3295TIP3    H134080   3.959   6.337  19.126  1.8409  1.1509 -1.2926
 3295TIP3    H234081   3.952   6.482  19.086 -1.3666  1.5340  0.2859
 3296TIP3   OH234082   2.099   0.037  18.453  0.0410  0.0789  0.6100
 3296TIP3    H134083   2.064   0.115  18.409 -1.7306 -1.1775 -0.3107
 3296TIP3    H234084   2.099  -0.031  18.386 -0.8337 -1.3624  1.9982
 3297TIP3   OH234085   3.804   6.017  18.354 -0.8573 -0.2134 -0.0177
 3297TIP3    H134086   3.737   6.032  18.288 -0.4756 -0.0578 -0.3753
 3297TIP3    H234087   3.763   6.044  18.436 -1.3472 -0.4415 -0.1820
 3298TIP3   OH234088   3.688   6.343  19.275 -0.1555  1.0273  0.3806
 3298TIP3    H134089   3.630   6.318  19.203 -1.2585  3.5644  0.3013
 3298TIP3    H234090   3.763   6.384  19.233  0.3776  0.3098  0.6071
 3299TIP3   OH234091   4.407   6.143  21.130  0.0276 -0.3701 -0.4203
 3299TIP3    H134092   4.376   6.171  21.044 -0.0710 -1.1510 -0.6466
 3299TIP3    H234093   4.331   6.102  21.171 -0.2423  0.9757  0.4958
 3300TIP3   OH234094   1.086   4.341  20.813 -0.2546  0.0090 -0.1384
 3300TIP3    H134095   1.062   4.384  20.731 -3.0979 -1.0661  0.0050
 3300TIP3    H234096   1.058   4.250  20.801 -2.5611  0.1895  2.5861
 3301TIP3   OH234097   5.411   4.774  20.098 -0.2828  0.8426  0.5899
 3301TIP3    H134098   5.456   4.849  20.057  0.4094  0.2282  0.2040
 3301TIP3    H234099   5.324   4.808  20.121  0.2068  1.9104  0.9006
 3302TIP3   OH234100   4.428   3.581  20.595  0.3872  0.1907 -0.2045
 3302TIP3    H134101   4.335   3.573  20.573  0.8495 -1.9358 -1.6987
 3302TIP3    H234102   4.452   3.669  20.566 -1.3536  1.2124  1.2133
 3303TIP3   OH234103   4.797   4.088  18.883 -0.0978  0.3203 -0.2047
 3303TIP3    H134104   4.887   4.115  18.866 -0.0709  0.7671  0.5647
 3303TIP3    H234105   4.748   4.171  18.887 -0.1244  0.2575  1.6326
 3304TIP3   OH234106   0.202   2.458  19.864  0.0302 -0.0082  0.3191
 3304TIP3    H134107   0.291   2.435  19.889  0.4861  1.0339 -0.2893
 3304TIP3    H234108   0.189   2.546  19.900 -0.5094  0.1207 -0.1758
 3305TIP3   OH234109   3.633   0.991  21.077  0.1925  0.4260 -0.1995
 3305TIP3    H134110   3.553   0.946  21.051  1.2524 -2.0952  0.6700
 3305TIP3    H234111   3.619   1.082  21.050 -2.4157 -0.2013 -1.2084
 3306TIP3   OH234112   6.620   5.398  19.777 -0.4734 -0.2447 -0.0021
 3306TIP3    H134113   6.670   5.463  19.728 -0.6883 -1.4854 -1.9725
 3306TIP3    H234114   6.529   5.424  19.766 -0.5493 -0.7667 -0.6468
 3307TIP3   OH234115   2.280   4.300  19.039 -0.5092  0.8884 -0.1876
 3307TIP3    H134116   2.243   4.223  19.082 -1.0290  1.5010  0.4830
 3307TIP3    H234117   2.299   4.361  19.111  2.8748  0.2106 -0.3454
 3308TIP3   OH234118   2.762   5.020  20.871 -0.5120 -0.0352 -0.2453
 3308TIP3    H134119   2.667   5.023  20.860 -0.4988  0.3767 -0.2671
 3308TIP3    H234120   2.792   5.104  20.836 -0.1637 -0.0593  0.0002
 3309TIP3   OH234121   3.256   4.209  21.137  0.7483  0.0905 -0.3030
 3309TIP3    H134122   3.201   4.201  21.215  0.7135  0.6316 -0.2679
 3309TIP3    H234123   3.325   4.143  21.150 -0.4408 -1.3020 -0.8319
 3310TIP3   OH234124   1.023   5.616  19.184  0.0979  0.1042  0.1603
 3310TIP3    H134125   1.104   5.576  19.152  0.9277  0.6334  1.5467
 3310TIP3    H234126   0.998   5.677  19.115 -0.9420 -2.3230 -1.8071
 3311TIP3   OH234127   3.996   5.083  20.970  0.3961  0.1188 -0.2820
 3311TIP3    H134128   3.915   5.117  20.931  0.4570  0.1928 -0.3450
 3311TIP3    H234129   3.968   5.009  21.023  0.6582 -2.2354 -3.1847
 3312TIP3   OH234130   1.359   4.683  21.221  0.4562  0.1520 -0.1348
 3312TIP3    H134131   1.264   4.672  21.225  0.6271 -0.9833  3.3551
 3312TIP3    H234132   1.394   4.594  21.213  1.2660  0.2443  1.9546
 3313TIP3   OH234133   3.605   5.661  20.686  0.5315  0.4209  0.2299
 3313TIP3    H134134   3.682   5.612  20.715 -0.1839 -0.9373 -0.0844
 3313TIP3    H234135   3.533   5.597  20.689 -0.5291  1.5800  0.2347
 3314TIP3   OH234136   5.431   3.334  19.048 -0.1268  0.5365  0.4014
 3314TIP3    H134137   5.413   3.342  18.954 -1.9086  1.7101  0.7802
 3314TIP3    H234138   5.498   3.266  19.054 -2.5186 -2.2449 -1.5112
 3315TIP3   OH234139   1.389   6.495  20.530 -0.7554 -0.5061 -0.0286
 3315TIP3    H134140   1.422   6.433  20.465  0.9237 -0.3462  0.6048
 3315TIP3    H234141   1.399   6.581  20.487  0.1897 -0.4150  0.3546
 3316TIP3   OH234142   3.571   1.048  19.592  0.0686 -0.0137  0.3126
 3316TIP3    H134143   3.541   1.077  19.678  2.5106  2.5982  0.4204
 3316TIP3    H234144   3.510   1.089  19.531  0.3579  0.9884  0.6853
 3317TIP3   OH234145   1.070   3.907  21.367  0.1735  0.2266 -0.0389
 3317TIP3    H134146   1.082   3.992  21.325 -0.6093  0.6191  0.4879
 3317TIP3    H234147   1.122   3.846  21.316  2.2300  1.3390  0.6336
 3318TIP3   OH234148   4.145   3.925  20.019 -0.2973 -0.8098  0.3809
 3318TIP3    H134149   4.164   3.881  19.936 -0.6903 -0.0181 -0.1587
 3318TIP3    H234150   4.224   3.976  20.037 -0.6868  0.0397 -0.2149
 3319TIP3   OH234151   3.140   1.531  18.717 -0.2490 -0.5230  0.6422
 3319TIP3    H134152   3.193   1.539  18.797 -0.7682 -1.3109  1.0799
 3319TIP3    H234153   3.202   1.499  18.651  0.5103  1.4463  0.3336
 3320TIP3   OH234154   2.105   3.813  19.489  0.2910  0.1006  0.1819
 3320TIP3    H134155   2.079   3.904  19.471  0.4224  0.0846 -0.1028
 3320TIP3    H234156   2.066   3.763  19.418 -0.3614 -0.1632  0.7224
 3321TIP3   OH234157   5.721   5.104  20.658 -0.5383  0.0641  0.0894
 3321TIP3    H134158   5.674   5.182  20.686 -1.2825  0.2847 -1.6508
 3321TIP3    H234159   5.653   5.036  20.654 -0.3158 -0.1313 -0.4482
 3322TIP3   OH234160   0.089   2.056  20.799  0.3183  0.1249  0.6997
 3322TIP3    H134161   0.088   1.998  20.722 -2.8488 -0.9634  1.3933
 3322TIP3    H234162   0.044   2.135  20.770  0.2105  0.2119  1.1016
 3323TIP3   OH234163   6.523   2.112  17.841 -0.1310 -0.0891  0.1534
 3323TIP3    H134164   6.526   2.178  17.910 -1.1144  0.4911 -0.3489
 3323TIP3    H234165   6.569   2.152  17.768 -2.5353  0.9440 -0.8822
 3324TIP3   OH234166   4.325   2.754  19.578 -0.0569  0.2548 -0.2093
 3324TIP3    H134167   4.277   2.815  19.633  0.8698  1.0334 -0.2267
 3324TIP3    H234168   4.319   2.670  19.624 -1.8331  0.1984 -0.4724
 3325TIP3   OH234169   5.060   2.194  17.607 -0.3338  0.0884  0.7887
 3325TIP3    H134170   5.057   2.165  17.515 -2.4848  2.6736 -0.0698
 3325TIP3    H234171   5.144   2.239  17.615 -0.3843  0.3617 -0.1013
 3326TIP3   OH234172   4.328   5.585  20.688  0.3034 -0.2925  0.7963
 3326TIP3    H134173   4.354   5.629  20.769  1.7256 -0.7163  0.5980
 3326TIP3    H234174   4.342   5.650  20.620  1.2410 -0.6427  0.6436
 3327TIP3   OH234175   1.478   2.182  18.880  0.3892 -0.3424 -0.3678
 3327TIP3    H134176   1.390   2.153  18.905 -0.1040  1.5022  0.1818
 3327TIP3    H234177   1.535   2.137  18.942 -0.4026  0.2463  0.8455
 3328TIP3   OH234178   4.344   1.640  21.364 -0.0994  0.6275 -0.0825
 3328TIP3    H134179   4.370   1.729  21.339 -0.6207  0.7850 -0.0735
 3328TIP3    H234180   4.357   1.588  21.284 -0.7757  0.9230 -0.3904
 3329TIP3   OH234181   3.355   4.924  19.931  0.3809 -0.8508  0.1267
 3329TIP3    H134182   3.375   4.837  19.897 -2.3993 -1.6340  0.2179
 3329TIP3    H234183   3.331   4.909  20.022 -1.7581 -0.3089 -0.2880
 3330TIP3   OH234184   5.200   5.637  19.673 -0.2657 -0.2275  0.0966
 3330TIP3    H134185   5.163   5.561  19.627  0.3489  0.7176 -2.1177
 3330TIP3    H234186   5.138   5.708  19.654  0.2594  0.2962  0.3291
 3331TIP3   OH234187   6.240   3.903  20.436 -0.2671 -0.1086 -0.1140
 3331TIP3    H134188   6.203   3.983  20.473 -1.0060  0.7352 -2.4872
 3331TIP3    H234189   6.175   3.874  20.371 -0.4928 -3.2311  1.3342
 3332TIP3   OH234190   3.377   3.717  18.942 -0.2145  0.0826 -0.6954
 3332TIP3    H134191   3.325   3.655  18.891  1.6927 -0.0331 -2.6455
 3332TIP3    H234192   3.444   3.663  18.984 -0.2468  0.5002 -0.0897
 3333TIP3   OH234193   6.087   2.355  18.831  0.2640 -0.0476  0.7353
 3333TIP3    H134194   6.052   2.444  18.829 -0.2810 -0.2626  0.7122
 3333TIP3    H234195   6.155   2.358  18.900 -0.4995  0.1145  1.5004
 3334TIP3   OH234196   5.344   6.079  20.572  0.7208 -0.4060 -0.5385
 3334TIP3    H134197   5.372   6.044  20.488  3.8017  2.3531 -0.8509
 3334TIP3    H234198   5.411   6.048  20.634 -0.3402 -0.6718  0.5083
 3335TIP3   OH234199   6.350   6.236  21.062  0.1936  0.0530 -0.1708
 3335TIP3    H134200   6.412   6.308  21.077 -0.4694  0.1063  3.0349
 3335TIP3    H234201   6.402   6.157  21.078  0.1672 -0.0475 -0.5791
 3336TIP3   OH234202   3.657   5.633  18.816  0.5632 -0.3479  0.1406
 3336TIP3    H134203   3.705   5.575  18.875 -0.3875 -1.7257 -0.3732
 3336TIP3    H234204   3.639   5.711  18.868 -0.0421 -1.4202  1.6070
 3337TIP3   OH234205   3.805   5.319  19.645  0.1453  0.0799  0.3070
 3337TIP3    H134206   3.888   5.282  19.614  0.0645  0.3353 -0.2268
 3337TIP3    H234207   3.831   5.391  19.703  0.3040 -0.7988  1.3595
 3338TIP3   OH234208   3.514   5.628  19.051  0.3377  0.0442  0.1350
 3338TIP3    H134209   3.559   5.584  19.124  1.8382 -1.0857 -1.3951
 3338TIP3    H234210   3.473   5.556  19.002 -0.4854  0.7696 -0.2577
 3339TIP3   OH234211   4.590   6.461  18.168  0.3208  0.2995 -0.1215
 3339TIP3    H134212   4.582   6.367  18.153  0.0345  0.1365  0.9856
 3339TIP3    H234213   4.541   6.501  18.096 -0.3114 -0.4244 -0.0988
 3340TIP3   OH234214   5.737   0.369  20.310 -0.1289  1.1814  0.7014
 3340TIP3    H134215   5.680   0.418  20.250  0.2321  1.2868  0.4434
 3340TIP3    H234216   5.826   0.393  20.284  0.0690  0.0731  0.2994
 3341TIP3   OH234217   1.577   0.395  21.025  0.3813  0.1210  0.2743
 3341TIP3    H134218   1.490   0.428  21.003  1.3611  2.9492  0.2420
 3341TIP3    H234219   1.578   0.306  20.992 -2.0933  0.3993 -0.7735
 3342TIP3   OH234220   0.567   4.820  18.438  0.7948 -0.2831  0.4178
 3342TIP3    H134221   0.522   4.790  18.359  3.9726 -3.3307 -0.5321
 3342TIP3    H234222   0.518   4.781  18.510  1.8551 -3.8774 -0.5829
 3343TIP3   OH234223   0.006   0.006  21.534 -0.3105 -0.2788  0.0205
 3343TIP3    H134224   0.020  -0.062  21.600  0.5731  0.4050  0.5536
 3343TIP3    H234225   0.042  -0.032  21.453 -0.8268 -0.8730  0.0665
 3344TIP3   OH234226   4.455   0.433  18.753 -0.1292 -0.0214  0.1061
 3344TIP3    H134227   4.462   0.520  18.791 -1.5045 -0.0432  0.4752
 3344TIP3    H234228   4.467   0.447  18.659  0.9126  0.3732  0.2935
 3345TIP3   OH234229   0.791   6.589  21.081 -0.3028 -0.3968 -0.2866
 3345TIP3    H134230   0.744   6.580  20.997 -0.1853 -2.0750 -0.2117
 3345TIP3    H234231   0.751   6.523  21.137  0.4668 -0.1277  0.5938
 3346TIP3   OH234232   6.456   1.339  19.007 -0.1500 -0.4336 -0.0934
 3346TIP3    H134233   6.526   1.404  19.010 -1.6495  1.2334  2.0881
 3346TIP3    H234234   6.447   1.309  19.097 -2.3985 -0.3850 -0.2546
 3347TIP3   OH234235   0.440   4.822  17.875  0.0249 -0.2253 -0.3022
 3347TIP3    H134236   0.471   4.766  17.946 -0.8248 -2.0639 -1.3259
 3347TIP3    H234237   0.461   4.775  17.795  1.5337  2.0876 -1.3831
 3348TIP3   OH234238   5.182   2.509  18.720 -0.5431  0.8328 -0.0509
 3348TIP3    H134239   5.168   2.579  18.785 -0.7636  1.5207 -0.8189
 3348TIP3    H234240   5.184   2.555  18.636  0.1355 -0.0012 -0.5021
 3349TIP3   OH234241   6.027   3.922  18.659  0.1864 -0.4036 -0.0478
 3349TIP3    H134242   6.098   3.974  18.619  1.7953 -1.4695  1.3007
 3349TIP3    H234243   6.049   3.919  18.752 -1.7243 -0.6820  0.4278
 3350TIP3   OH234244   1.431   1.068  19.396  0.4749 -0.0375  0.1787
 3350TIP3    H134245   1.459   1.069  19.487 -1.8640 -0.2598  0.9544
 3350TIP3    H234246   1.369   1.140  19.388  1.2877  0.5422 -1.4922
 3351TIP3   OH234247   5.845   1.431  20.163 -0.0397  0.0827 -0.3293
 3351TIP3    H134248   5.908   1.501  20.144  0.3122 -0.5825 -1.7281
 3351TIP3    H234249   5.761   1.476  20.169  0.1288  0.6091 -1.5548
 3352TIP3   OH234250   5.838   0.947  19.596 -0.3329 -0.4998  0.2223
 3352TIP3    H134251   5.810   0.874  19.652 -0.2595  0.2408  1.2539
 3352TIP3    H234252   5.873   1.011  19.657  2.3116 -0.7634 -0.9005
 3353TIP3   OH234253   4.347   0.069  20.213  0.0848  0.5766 -0.5558
 3353TIP3    H134254   4.299   0.059  20.130  0.5149 -0.5344 -0.6865
 3353TIP3    H234255   4.280   0.063  20.281  0.0979 -2.1591 -0.6754
 3354TIP3   OH234256   0.105   5.759  19.626 -0.2668  0.1338 -0.0269
 3354TIP3    H134257   0.166   5.818  19.583 -0.5410 -0.4126 -1.1909
 3354TIP3    H234258   0.020   5.803  19.619 -0.5586 -0.5971 -1.3387
 3355TIP3   OH234259   6.438   1.923  19.467  0.0851  0.3447  0.2051
 3355TIP3    H134260   6.351   1.882  19.464  0.7086 -1.0286 -1.6838
 3355TIP3    H234261   6.463   1.921  19.559 -0.8772 -1.5404  0.4744
 3356TIP3   OH234262   4.911   1.143  19.266 -0.3509  0.1606 -0.7220
 3356TIP3    H134263   4.917   1.224  19.216 -0.1943 -0.1638 -1.2362
 3356TIP3    H234264   4.860   1.166  19.344 -0.1305  0.7982 -0.7607
 3357TIP3   OH234265   0.520   1.949  20.870 -0.1229  0.2434 -0.0668
 3357TIP3    H134266   0.500   1.855  20.865  1.9341 -0.4699  2.8743
 3357TIP3    H234267   0.444   1.987  20.914 -0.4579 -0.2101 -0.2313
 3358TIP3   OH234268   3.139   4.298  18.133  0.2013 -0.3105 -0.2014
 3358TIP3    H134269   3.087   4.218  18.133 -0.2932 -0.0296  1.6183
 3358TIP3    H234270   3.222   4.273  18.174 -0.2890  0.2692  1.2144
 3359TIP3   OH234271   3.766   1.638  18.532  0.0229  0.4069  0.1777
 3359TIP3    H134272   3.735   1.702  18.596  0.9952  1.0797  0.0017
 3359TIP3    H234273   3.859   1.627  18.553  0.1331 -0.0611 -0.5388
 3360TIP3   OH234274   3.421   5.197  20.320  0.0222 -0.2132  0.2958
 3360TIP3    H134275   3.362   5.206  20.245  2.3168  2.5764 -1.3556
 3360TIP3    H234276   3.491   5.140  20.289 -0.3061 -1.1958  1.2796
 3361TIP3   OH234277   0.908   0.069  19.973  0.6181  0.2526  0.1800
 3361TIP3    H134278   0.929   0.089  19.882  1.3276  0.6053  0.4134
 3361TIP3    H234279   0.983   0.100  20.023 -0.7660  2.3070  1.1545
 3362TIP3   OH234280   4.764   0.396  20.388  0.3028 -0.0058 -0.6483
 3362TIP3    H134281   4.734   0.411  20.478  1.7635  2.2195 -0.4596
 3362TIP3    H234282   4.689   0.355  20.344 -1.8833  2.4446  0.5596
 3363TIP3   OH234283   1.158   4.911  21.399  0.0864  0.3653  1.0964
 3363TIP3    H134284   1.105   4.836  21.373 -0.4406  0.6145  1.4324
 3363TIP3    H234285   1.238   4.873  21.434 -0.4453 -0.0781  1.8674
 3364TIP3   OH234286   4.928   1.052  21.194 -0.0582 -0.3124  0.1874
 3364TIP3    H134287   4.962   1.030  21.107 -2.3424 -0.3632 -0.7691
 3364TIP3    H234288   4.932   0.970  21.243  1.4423 -0.2368  0.2390
 3365TIP3   OH234289   3.142   0.528  19.707  0.0110  0.1375  0.3413
 3365TIP3    H134290   3.085   0.590  19.753 -0.6249  0.7132 -1.1339
 3365TIP3    H234291   3.082   0.463  19.671  0.5568 -0.6629  0.8550
 3366TIP3   OH234292   1.022   1.733  21.626 -0.4630  0.3048  0.1526
 3366TIP3    H134293   1.090   1.791  21.589  0.4610  0.4531  1.9584
 3366TIP3    H234294   0.940   1.780  21.610  0.2242  1.9711  1.1947
 3367TIP3   OH234295   5.566   1.884  19.712 -0.2121 -0.0695 -0.2894
 3367TIP3    H134296   5.478   1.919  19.701 -0.2790 -0.6514 -1.8187
 3367TIP3    H234297   5.619   1.929  19.646  0.7422  0.5648  0.8778
 3368TIP3   OH234298   1.732   3.824  20.324 -0.1080 -0.2205  0.3098
 3368TIP3    H134299   1.789   3.876  20.381 -1.9389  2.7032 -0.3278
 3368TIP3    H234300   1.767   3.837  20.236 -0.9468  0.5031  0.0729
 3369TIP3   OH234301   5.487   5.454  19.121 -0.4012 -0.2522 -0.3441
 3369TIP3    H134302   5.521   5.543  19.121  0.3304 -0.5215 -1.0539
 3369TIP3    H234303   5.396   5.463  19.149 -0.1590  0.6423  0.1802
 3370TIP3   OH234304   5.990   2.415  18.436 -0.4793  0.4213 -0.2000
 3370TIP3    H134305   5.906   2.426  18.481 -0.2529 -0.5389  0.4812
 3370TIP3    H234306   6.053   2.459  18.492 -0.1835 -0.8467  0.4997
 3371TIP3   OH234307   5.843   1.645  18.066  0.1842  0.2164  0.0768
 3371TIP3    H134308   5.937   1.655  18.058  0.2920 -0.0781  0.8864
 3371TIP3    H234309   5.808   1.683  17.985  1.0117 -0.0827 -0.4331
 3372TIP3   OH234310   3.008   2.720  20.825  0.2227 -0.4849  0.2728
 3372TIP3    H134311   2.942   2.686  20.765 -0.4759 -0.6623  1.1305
 3372TIP3    H234312   2.961   2.780  20.882  1.0475  0.3422  0.1089
 3373TIP3   OH234313   5.760   0.913  20.365  0.2743 -0.3941 -0.6892
 3373TIP3    H134314   5.764   0.994  20.314 -0.3975  1.4635  1.9933
 3373TIP3    H234315   5.667   0.892  20.369 -0.0047  0.9090  1.6683
 3374TIP3   OH234316   0.576   6.308  19.787 -0.1295  0.3532 -0.0999
 3374TIP3    H134317   0.637   6.379  19.806 -0.3936  0.2067  1.4071
 3374TIP3    H234318   0.538   6.284  19.872  0.5092 -2.0987 -0.4099
 3375TIP3   OH234319   3.556   0.282  19.571  0.2921  0.2085  0.1568
 3375TIP3    H134320   3.523   0.224  19.502 -0.4418  0.5768  0.1908
 3375TIP3    H234321   3.496   0.356  19.571  1.2510  1.0109  0.0761
 3376TIP3   OH234322   3.267   2.807  18.525 -0.2938  0.4025 -0.3801
 3376TIP3    H134323   3.319   2.854  18.460  1.0888  0.0638  0.4516
 3376TIP3    H234324   3.177   2.836  18.509  0.3189  2.0992 -0.9082
 3377TIP3   OH234325   1.713   4.050  18.112 -0.1578  0.4802  0.1608
 3377TIP3    H134326   1.719   3.991  18.037  1.0421  0.1493  0.4870
 3377TIP3    H234327   1.686   4.134  18.074 -0.3395  0.1223 -0.5251
 3378TIP3   OH234328   5.104   4.033  19.987 -0.2479  0.5635  0.2605
 3378TIP3    H134329   5.183   4.049  19.934 -1.7387  1.6043 -1.7882
 3378TIP3    H234330   5.116   3.944  20.021  0.9496 -0.0710 -1.6444
 3379TIP3   OH234331   4.476   3.661  19.716 -0.3274  0.1728 -0.1106
 3379TIP3    H134332   4.400   3.654  19.774 -0.4159 -0.7172 -0.3148
 3379TIP3    H234333   4.441   3.638  19.629  0.0986  0.1239 -0.2695
 3380TIP3   OH234334   0.325   3.354  20.641  0.4420  0.2614 -0.3466
 3380TIP3    H134335   0.316   3.423  20.575 -2.0075 -0.4915 -0.9165
 3380TIP3    H234336   0.419   3.339  20.648  0.8812  1.8973 -2.0498
 3381TIP3   OH234337   0.386   5.782  18.643 -0.3767 -0.0602 -0.7791
 3381TIP3    H134338   0.418   5.810  18.557 -0.8532  0.4827 -0.7864
 3381TIP3    H234339   0.304   5.736  18.624 -1.0951  1.0848 -0.5276
 3382TIP3   OH234340   3.251   3.895  21.506  0.1032 -0.1399 -0.1439
 3382TIP3    H134341   3.306   3.817  21.500 -0.3311 -0.3734 -1.5259
 3382TIP3    H234342   3.183   3.882  21.439 -0.9193  0.6946  0.6850
 3383TIP3   OH234343   5.838   2.135  19.679  0.3964  0.2668 -0.6046
 3383TIP3    H134344   5.814   2.189  19.754  1.0670  0.4323 -0.5121
 3383TIP3    H234345   5.779   2.165  19.609  1.3552  1.7499 -0.8180
 3384TIP3   OH234346   3.366   4.434  20.972  0.0589 -0.1772 -0.4781
 3384TIP3    H134347   3.326   4.353  21.005 -0.1445 -1.2749 -3.1255
 3384TIP3    H234348   3.458   4.413  20.962  0.5144  0.8262  1.2199
 3385TIP3   OH234349   0.862   1.923  19.509 -0.4061  0.3652  0.1779
 3385TIP3    H134350   0.880   1.974  19.429 -0.8946  1.0549  0.4983
 3385TIP3    H234351   0.947   1.918  19.553 -0.3855  1.0678  0.2314
 3386TIP3   OH234352   2.713   5.092  18.816  0.2804  0.5937  0.1995
 3386TIP3    H134353   2.745   5.019  18.868 -0.0476 -0.7539 -1.4059
 3386TIP3    H234354   2.630   5.116  18.856 -0.5060 -1.1423 -0.2999
 3387TIP3   OH234355   5.515   5.331  20.764  0.4804  0.4408  0.0259
 3387TIP3    H134356   5.422   5.327  20.784  0.5969 -1.4781  0.4326
 3387TIP3    H234357   5.559   5.330  20.850  0.8816  0.3511 -0.1752
 3388TIP3   OH234358   2.901   0.114  20.260 -0.0471 -0.5948 -0.0992
 3388TIP3    H134359   2.877   0.081  20.347 -0.1221  1.9119  0.9167
 3388TIP3    H234360   2.997   0.115  20.261 -0.0452 -0.7265 -0.1140
 3389TIP3   OH234361   4.178   3.628  20.468  0.5231 -0.5665 -0.4047
 3389TIP3    H134362   4.116   3.676  20.523  1.5787  1.5203 -0.9404
 3389TIP3    H234363   4.134   3.544  20.451 -1.5661  0.3088  0.2913
 3390TIP3   OH234364   1.880   0.835  18.436 -0.4428  0.5870  0.1337
 3390TIP3    H134365   1.801   0.885  18.416 -0.3834  0.2087 -1.1748
 3390TIP3    H234366   1.871   0.756  18.383  0.4862  0.2263  0.5094
 3391TIP3   OH234367   4.033   3.077  16.803 -0.4413  0.1843  0.1861
 3391TIP3    H134368   4.110   3.091  16.747 -1.8607 -0.3326 -2.0352
 3391TIP3    H234369   4.066   3.085  16.892  2.1334  0.1995 -0.6910
 3392TIP3   OH234370   1.781   1.941  19.692  0.0410  0.1834  0.0589
 3392TIP3    H134371   1.802   1.970  19.781  1.5337  0.1391 -0.2488
 3392TIP3    H234372   1.758   2.021  19.646 -1.0408  0.1681  0.5557
 3393TIP3   OH234373   3.131   6.610  20.045 -0.1421 -0.0232 -0.6990
 3393TIP3    H134374   3.048   6.562  20.046  0.2507 -0.9496 -3.6668
 3393TIP3    H234375   3.195   6.548  20.079 -0.1959 -0.4145 -1.2962
 3394TIP3   OH234376   6.510   1.389  18.459 -0.1190  0.1708  0.0462
 3394TIP3    H134377   6.443   1.322  18.472 -0.2247  0.1471 -0.5883
 3394TIP3    H234378   6.479   1.464  18.511 -0.3473 -0.0348  0.2069
 3395TIP3   OH234379   1.049   0.580  20.956 -0.3217  0.5366 -0.0844
 3395TIP3    H134380   0.996   0.631  20.895  0.7110  0.7435 -0.8452
 3395TIP3    H234381   0.991   0.510  20.986 -0.7155  0.1145 -1.7227
 3396TIP3   OH234382   4.615   6.375  17.851  0.1259 -0.6244 -0.8218
 3396TIP3    H134383   4.554   6.434  17.895  0.0830 -0.4738 -1.0772
 3396TIP3    H234384   4.560   6.313  17.805  0.1738 -1.3977  0.1426
 3397TIP3   OH234385   0.631   1.709  21.320 -0.2083  0.2748  0.3786
 3397TIP3    H134386   0.717   1.710  21.361  0.8706 -3.1732 -1.4131
 3397TIP3    H234387   0.609   1.801  21.307  2.4224  1.2976  2.3826
 3398TIP3   OH234388   5.272   3.917  20.308  0.1135  0.0952  0.2907
 3398TIP3    H134389   5.234   3.885  20.390 -1.0686  2.8974  0.9661
 3398TIP3    H234390   5.217   3.879  20.240 -1.6983  1.1506  1.0875
 3399TIP3   OH234391   5.583   1.743  19.184  0.6769  0.3648  0.6676
 3399TIP3    H134392   5.659   1.766  19.237  0.2093  1.6292  0.8239
 3399TIP3    H234393   5.547   1.665  19.227  1.3971  0.2579  1.0837
 3400TIP3   OH234394   4.417   2.938  18.089  0.0035 -0.0637  0.3809
 3400TIP3    H134395   4.396   2.984  18.170 -2.1230 -0.5968  0.1822
 3400TIP3    H234396   4.438   2.849  18.117 -0.1089 -0.0876  0.3872
 3401TIP3   OH234397   4.326   6.204  18.449  0.3539 -0.1396  0.4294
 3401TIP3    H134398   4.351   6.121  18.408  0.6945 -0.9518  2.1753
 3401TIP3    H234399   4.251   6.234  18.398  0.4204 -1.3694 -0.4366
 3402TIP3   OH234400   2.602   2.382  19.299 -0.8016 -0.1078 -0.2424
 3402TIP3    H134401   2.520   2.420  19.330 -0.1234  0.2910  1.1564
 3402TIP3    H234402   2.652   2.457  19.266 -0.3176 -0.0677  0.5416
 3403TIP3   OH234403   2.183   2.446  20.608  0.2865  0.5047 -0.4041
 3403TIP3    H134404   2.196   2.529  20.654  2.0174  0.3397 -0.5202
 3403TIP3    H234405   2.202   2.380  20.674  0.4360  0.2302 -0.7207
 3404TIP3   OH234406   2.017   0.385  21.341  0.1160  0.2409  0.0964
 3404TIP3    H134407   2.019   0.462  21.398 -0.6415 -0.7851  1.5797
 3404TIP3    H234408   1.973   0.416  21.261  0.6374  1.5556  0.2867
 3405TIP3   OH234409   5.209   3.337  20.057  0.4277 -0.1997  0.1190
 3405TIP3    H134410   5.134   3.384  20.094  1.1614  1.0186  0.1262
 3405TIP3    H234411   5.244   3.287  20.130 -0.1821 -0.5206  0.1977
 3406TIP3   OH234412   5.534   2.473  20.939 -0.0258 -0.2447  0.2431
 3406TIP3    H134413   5.439   2.477  20.925 -0.4940 -0.3784  2.9009
 3406TIP3    H234414   5.558   2.383  20.915 -0.4017  0.0037 -1.1459
 3407TIP3   OH234415   0.951   3.857  19.979 -0.5160  0.0776 -0.0590
 3407TIP3    H134416   0.897   3.936  19.977 -0.3938  0.1516 -0.9610
 3407TIP3    H234417   1.040   3.890  19.992 -0.4031  0.1406 -0.9058
 3408TIP3   OH234418   0.908   4.598  18.279 -0.4392 -0.2919  0.4233
 3408TIP3    H134419   0.970   4.525  18.285  0.3339  0.3999  0.9871
 3408TIP3    H234420   0.838   4.565  18.223 -0.0852 -1.4549  0.6431
 3409TIP3   OH234421   2.983   1.335  18.843  0.1305 -0.1319 -0.7040
 3409TIP3    H134422   3.035   1.298  18.914 -1.5414 -0.1070  0.6206
 3409TIP3    H234423   3.045   1.386  18.791  1.3931 -0.0067  0.8413
 3410TIP3   OH234424   5.210   2.867  20.539 -0.1680 -0.1838 -0.0074
 3410TIP3    H134425   5.232   2.954  20.571  0.0399 -0.4657  0.6173
 3410TIP3    H234426   5.268   2.807  20.587 -0.7465 -0.7258  0.0337
 3411TIP3   OH234427   5.618   2.238  20.116 -0.2140  0.3184  0.4977
 3411TIP3    H134428   5.526   2.231  20.089 -0.2854  1.1427  0.5266
 3411TIP3    H234429   5.654   2.151  20.098 -0.9296  0.0677  0.2321
 3412TIP3   OH234430   3.023   0.440  18.140  0.5815  0.4992 -0.4352
 3412TIP3    H134431   3.039   0.427  18.047  1.5755  2.4352 -0.6105
 3412TIP3    H234432   3.037   0.534  18.153 -0.6020  0.4583  1.4753
 3413TIP3   OH234433   1.178   4.978  19.626  0.3999 -0.4852 -0.0068
 3413TIP3    H134434   1.175   5.072  19.608  0.5889 -0.3277  0.7552
 3413TIP3    H234435   1.159   4.937  19.542  0.5360  0.2319 -0.3942
 3414TIP3   OH234436   3.649   2.507  19.189 -0.0531  0.4293 -0.2988
 3414TIP3    H134437   3.653   2.595  19.226 -2.2826  0.1802  0.7581
 3414TIP3    H234438   3.740   2.480  19.179  0.7651  1.2727  3.3554
 3415TIP3   OH234439   4.455   0.508  18.483 -0.0123  0.1826  0.0551
 3415TIP3    H134440   4.503   0.438  18.438 -1.0008  0.0890 -0.8856
 3415TIP3    H234441   4.457   0.581  18.422  1.3345  1.1401  1.1866
 3416TIP3   OH234442   5.121   4.958  20.488  0.3186  0.5337 -0.2763
 3416TIP3    H134443   5.146   5.043  20.523  0.7804  0.4969 -0.5024
 3416TIP3    H234444   5.110   4.902  20.565  2.5522  0.1175 -0.1961
 3417TIP3   OH234445   2.694   2.664  18.394 -0.2783  0.0788 -0.0362
 3417TIP3    H134446   2.714   2.751  18.359 -0.2859  0.2040  0.2733
 3417TIP3    H234447   2.776   2.635  18.434 -0.6465  0.4975  1.0354
 3418TIP3   OH234448   3.728   0.587  20.158  0.0096  0.1282  0.5371
 3418TIP3    H134449   3.823   0.586  20.143  0.3253  0.6082  2.2588
 3418TIP3    H234450   3.717   0.542  20.242 -1.3233 -0.1505  0.2317
 3419TIP3   OH234451   0.055   4.660  18.497 -0.2701 -0.1717 -0.2579
 3419TIP3    H134452   0.070   4.621  18.410  0.8295 -1.0117  0.2823
 3419TIP3    H234453  -0.030   4.625  18.524 -0.8107  0.3996 -1.1314
 3420TIP3   OH234454   4.868   2.607  17.702 -0.1978 -0.5406  0.2220
 3420TIP3    H134455   4.862   2.538  17.769  0.0641 -0.9700 -0.1948
 3420TIP3    H234456   4.954   2.596  17.663 -0.9231 -1.2841 -1.2562
 3421TIP3   OH234457   2.584   3.028  19.191 -0.1323 -0.2719 -0.0124
 3421TIP3    H134458   2.545   2.942  19.202  0.3335 -0.6409 -1.1446
 3421TIP3    H234459   2.646   3.018  19.119  0.4689  0.8296  0.3273
 3422TIP3   OH234460   2.613   1.115  19.390  0.4089  0.0752 -0.2747
 3422TIP3    H134461   2.597   1.021  19.380  2.1341 -0.1291 -1.7205
 3422TIP3    H234462   2.704   1.121  19.418  1.2308  1.3113 -2.8770
 3423TIP3   OH234463   1.131   3.782  18.345 -0.6555  0.0701  0.2102
 3423TIP3    H134464   1.122   3.730  18.265 -1.3899 -2.2443  1.6925
 3423TIP3    H234465   1.048   3.827  18.355  0.2374  2.2268 -1.4684
 3424TIP3   OH234466   0.295   2.262  18.618  0.8691 -0.2455  0.4708
 3424TIP3    H134467   0.228   2.208  18.661 -0.1820 -1.3341 -2.3300
 3424TIP3    H234468   0.260   2.351  18.622 -0.3931 -0.6856 -0.2608
 3425TIP3   OH234469   4.105   3.100  17.077  0.1895  0.2286 -0.4844
 3425TIP3    H134470   4.194   3.078  17.107  0.6180  1.3683 -0.8670
 3425TIP3    H234471   4.054   3.108  17.157  0.7799  0.9833 -0.1731
 3426TIP3   OH234472   1.063   2.187  20.127  0.2789 -0.2961 -0.2519
 3426TIP3    H134473   1.024   2.118  20.073 -0.5197  0.3822 -0.5619
 3426TIP3    H234474   0.997   2.256  20.130  0.5879 -0.0283  1.0382
 3427TIP3   OH234475   5.187   4.552  18.392 -0.8037  0.4031 -0.6974
 3427TIP3    H134476   5.245   4.621  18.360 -0.9648  0.9022  0.0783
 3427TIP3    H234477   5.224   4.471  18.355  0.6924  0.6442  0.1590
 3428TIP3   OH234478   0.396   5.374  20.301  0.3538  0.0369 -0.2455
 3428TIP3    H134479   0.331   5.305  20.316 -1.1279  1.5237  0.3494
 3428TIP3    H234480   0.366   5.448  20.353  1.2876  1.5457 -1.7514
 3429TIP3   OH234481   4.216   4.727  17.609 -0.5270  0.2845 -0.2463
 3429TIP3    H134482   4.281   4.686  17.551 -2.3141  0.6544 -2.6491
 3429TIP3    H234483   4.253   4.813  17.629  0.5737 -0.2275  0.0205
 3430TIP3   OH234484   6.451   3.261  19.032  0.0225  0.3172  0.4516
 3430TIP3    H134485   6.422   3.322  18.964 -2.1743 -1.3252 -0.2552
 3430TIP3    H234486   6.374   3.250  19.088  1.3613  0.5587  2.4373
 3431TIP3   OH234487   6.244   4.240  18.322  0.5451 -0.2697 -0.0792
 3431TIP3    H134488   6.197   4.280  18.249 -2.0529 -0.7730  1.1967
 3431TIP3    H234489   6.335   4.266  18.309 -0.2984  2.2484 -1.7856
 3432TIP3   OH234490   2.315   2.285  20.779  0.4032 -0.3724  0.1754
 3432TIP3    H134491   2.274   2.251  20.859 -1.8150  1.0670 -0.2403
 3432TIP3    H234492   2.355   2.209  20.738  0.2312 -1.4334  1.8828
 3433TIP3   OH234493   4.254   4.092  18.185 -0.3966  0.3231 -0.7676
 3433TIP3    H134494   4.343   4.115  18.213 -0.1703 -0.4029 -0.8727
 3433TIP3    H234495   4.257   4.096  18.089 -0.8540  1.6423 -0.7473
 3434TIP3   OH234496   5.430   5.935  20.325  0.3523 -0.5522 -0.6551
 3434TIP3    H134497   5.500   5.874  20.348  0.5276 -0.5562 -1.1668
 3434TIP3    H234498   5.394   5.901  20.243 -1.6642 -1.7124  0.6446
 3435TIP3   OH234499   3.762   3.900  20.018  0.7320  0.2706 -0.1537
 3435TIP3    H134500   3.697   3.829  20.018  1.1371 -0.1288  0.9345
 3435TIP3    H234501   3.790   3.907  19.926 -0.9843  0.6043 -0.6793
 3436TIP3   OH234502   4.666   4.703  18.944 -0.0796 -0.6165 -0.0230
 3436TIP3    H134503   4.730   4.712  18.874  2.0901 -0.4118  1.8561
 3436TIP3    H234504   4.662   4.609  18.962 -0.0512 -0.5991  0.0761
 3437TIP3   OH234505   0.174   2.566  19.137  0.3516  0.0493 -0.3047
 3437TIP3    H134506   0.232   2.504  19.180  0.5109  0.2504 -0.2274
 3437TIP3    H234507   0.125   2.607  19.208  2.0317  1.8403 -0.0982
 3438TIP3   OH234508   5.957   6.233  19.531 -0.4138  0.7818 -0.0017
 3438TIP3    H134509   6.050   6.247  19.512 -0.5086  0.5449 -0.6580
 3438TIP3    H234510   5.911   6.263  19.452 -0.8761  0.5885  0.1897
 3439TIP3   OH234511   0.496   3.418  17.675 -0.4797 -1.2007 -0.2168
 3439TIP3    H134512   0.587   3.443  17.695 -1.0553  0.8000  0.1510
 3439TIP3    H234513   0.472   3.360  17.747 -0.2682  0.3323  1.1742
 3440TIP3   OH234514   2.174   2.854  17.771  0.5704  0.3924  0.1893
 3440TIP3    H134515   2.206   2.903  17.847  0.6443  0.8083 -0.1090
 3440TIP3    H234516   2.251   2.846  17.714  0.5719 -0.1111  0.2537
 3441TIP3   OH234517   3.595   1.845  18.169  0.0347 -0.1392  0.6029
 3441TIP3    H134518   3.627   1.918  18.222 -1.1457 -0.5632  1.9706
 3441TIP3    H234519   3.639   1.767  18.206  1.4880 -0.1424 -1.0131
 3442TIP3   OH234520   3.251   2.039  17.076 -0.0355  0.3295 -0.5003
 3442TIP3    H134521   3.233   2.065  16.985 -1.5140 -0.9877 -0.6297
 3442TIP3    H234522   3.180   2.079  17.126  0.7780  1.0523  0.1018
 3443TIP3   OH234523   0.444   6.235  20.953 -0.5582  0.3954 -0.4826
 3443TIP3    H134524   0.452   6.312  20.897 -0.3393  0.9975  0.3674
 3443TIP3    H234525   0.507   6.249  21.023 -0.6111 -0.4986 -0.2415
 3444TIP3   OH234526   4.898   3.788  19.028 -0.3042  0.2931 -0.5114
 3444TIP3    H134527   4.890   3.851  18.956 -2.3209 -0.7927 -1.3390
 3444TIP3    H234528   4.814   3.794  19.074 -0.1763 -1.0931 -0.0371
 3445TIP3   OH234529   3.287   4.272  20.452  0.1694 -0.2959  0.0171
 3445TIP3    H134530   3.278   4.324  20.532  1.8112 -1.9694  1.3785
 3445TIP3    H234531   3.206   4.221  20.449  0.0657 -0.1802  0.5826
 3446TIP3   OH234532   3.028   3.301  21.087  0.6383  0.4347 -0.1175
 3446TIP3    H134533   3.117   3.279  21.061  1.3510  1.9261  0.9161
 3446TIP3    H234534   3.011   3.246  21.163  0.6359  0.0733 -0.3784
 3447TIP3   OH234535   1.436   0.347  18.874 -0.4942 -0.4705 -0.3803
 3447TIP3    H134536   1.408   0.270  18.923 -0.7680 -1.5060 -2.1017
 3447TIP3    H234537   1.532   0.348  18.884 -0.6839  0.9289  2.3818
 3448TIP3   OH234538   3.253   5.768  19.038  1.0589 -0.3904 -0.0471
 3448TIP3    H134539   3.337   5.754  19.082  0.7047  1.5395  1.3700
 3448TIP3    H234540   3.201   5.819  19.100 -0.1163  0.9735 -2.0152
 3449TIP3   OH234541   3.336   5.755  20.864 -0.4225  0.1603  0.4314
 3449TIP3    H134542   3.246   5.721  20.862 -0.1463 -0.5661 -0.4006
 3449TIP3    H234543   3.373   5.728  20.780  0.6706  0.1942  0.8907
 3450TIP3   OH234544   6.011   3.989  18.943  0.0472 -0.0486  0.1461
 3450TIP3    H134545   5.977   3.910  18.986  1.3741  0.6090  2.6358
 3450TIP3    H234546   5.962   4.060  18.984 -0.5903  0.5163 -1.5190
 3451TIP3   OH234547   5.604   0.452  17.842 -0.0761 -0.0088 -0.5670
 3451TIP3    H134548   5.642   0.440  17.756  1.4608  0.0900  0.0779
 3451TIP3    H234549   5.667   0.414  17.903 -0.7675  0.5975  0.5761
 3452TIP3   OH234550   4.152   4.997  20.480 -0.0085  0.2421  0.1711
 3452TIP3    H134551   4.198   5.061  20.426  1.4357 -0.4467  0.5487
 3452TIP3    H234552   4.101   5.050  20.542 -0.3587  1.0160 -0.7414
 3453TIP3   OH234553   3.928   5.030  19.837  0.2499  0.1518 -0.2906
 3453TIP3    H134554   3.918   4.935  19.827 -2.9429  0.3456  0.0436
 3453TIP3    H234555   4.004   5.052  19.784 -0.3790 -2.2918 -2.3965
 3454TIP3   OH234556   3.416   4.925  18.426  0.1708  0.1955 -0.5025
 3454TIP3    H134557   3.432   4.988  18.356  3.5758 -0.2564 -0.3294
 3454TIP3    H234558   3.357   4.860  18.388 -0.7230  1.7011 -1.7824
 3455TIP3   OH234559   1.503   2.643  20.585  0.2699  0.7191  0.1474
 3455TIP3    H134560   1.485   2.732  20.557 -1.9926  0.3097  0.1550
 3455TIP3    H234561   1.417   2.601  20.590  1.1689 -1.1179  1.3213
 3456TIP3   OH234562   3.782   3.523  18.867  0.7647  0.4912 -0.1518
 3456TIP3    H134563   3.829   3.484  18.794 -0.2785 -1.8701  0.3689
 3456TIP3    H234564   3.848   3.534  18.935  1.0685 -0.5287 -0.2677
 3457TIP3   OH234565   1.825   4.332  19.455  0.1990 -0.6583  0.1465
 3457TIP3    H134566   1.859   4.277  19.527  1.0341  0.6022  0.7629
 3457TIP3    H234567   1.734   4.348  19.478  0.8026  0.8513  1.7049
 3458TIP3   OH234568   2.885   5.890  18.755 -0.8674  0.2959  0.4798
 3458TIP3    H134569   2.815   5.868  18.816 -0.8634  0.5049  0.5601
 3458TIP3    H234570   2.899   5.984  18.767 -0.2696  0.1688  0.7780
 3459TIP3   OH234571   4.026   0.993  20.182  0.0582 -0.7449  0.1437
 3459TIP3    H134572   4.103   1.002  20.126 -0.3965 -1.6550 -0.6620
 3459TIP3    H234573   3.959   1.047  20.141 -0.0225 -0.7319  0.2908
 3460TIP3   OH234574   3.693   0.440  20.389 -0.5771  0.4501  0.8034
 3460TIP3    H134575   3.615   0.400  20.427 -0.4972  0.5112  1.0299
 3460TIP3    H234576   3.718   0.380  20.318 -0.0551 -0.2644  1.5850
 3461TIP3   OH234577   1.536   6.601  19.138  0.5401 -0.5351 -0.3163
 3461TIP3    H134578   1.476   6.646  19.078  0.1874 -0.2991  0.2003
 3461TIP3    H234579   1.600   6.559  19.082  1.3626  1.2748 -0.8135
 3462TIP3   OH234580   5.933   1.215  19.195  0.5394  0.7014 -0.1762
 3462TIP3    H134581   5.935   1.123  19.222  1.4874  1.0572  1.0165
 3462TIP3    H234582   5.916   1.211  19.101  1.1675 -0.7164 -0.2606
 3463TIP3   OH234583   5.208   1.116  17.611 -0.1361  0.0868  0.6226
 3463TIP3    H134584   5.212   1.201  17.567 -0.3347  0.2540  0.9294
 3463TIP3    H234585   5.231   1.134  17.702  0.1629 -0.2431  0.6197
 3464TIP3   OH234586   2.068   1.882  19.637  0.0564 -0.4389  0.3436
 3464TIP3    H134587   2.056   1.801  19.686  0.6580 -0.7674 -0.0457
 3464TIP3    H234588   2.038   1.951  19.697 -1.1567 -0.9970  0.4111
 3465TIP3   OH234589   4.103   1.758  20.509  0.0550 -0.1733  0.4197
 3465TIP3    H134590   4.173   1.697  20.533 -2.0828 -2.5019  1.1207
 3465TIP3    H234591   4.092   1.747  20.415 -0.2247 -0.7991  0.5209
 3466TIP3   OH234592   4.700   3.488  20.490 -0.0386  0.1855  0.0801
 3466TIP3    H134593   4.740   3.538  20.562 -0.7097  1.7404 -0.5801
 3466TIP3    H234594   4.646   3.552  20.444  1.8686 -0.2656 -3.0077
 3467TIP3   OH234595   4.757   5.439  21.448 -1.1862  0.1793  0.3481
 3467TIP3    H134596   4.703   5.392  21.512 -1.3513  1.7233  1.3977
 3467TIP3    H234597   4.693   5.479  21.388 -1.1132  0.1687  0.2635
 3468TIP3   OH234598   3.983   5.337  17.661  0.0187  0.8029  0.2649
 3468TIP3    H134599   4.069   5.344  17.619 -0.2696 -0.0942 -0.5209
 3468TIP3    H234600   3.958   5.245  17.647 -0.3293  0.6168  1.9542
 3469TIP3   OH234601   1.835   4.230  20.211 -0.6705  0.6010 -0.0858
 3469TIP3    H134602   1.745   4.260  20.197 -1.3174 -0.0649  2.2412
 3469TIP3    H234603   1.860   4.268  20.296  0.7716 -0.3104 -0.0676
 3470TIP3   OH234604   3.547   3.240  20.346  0.1849  0.3597  0.3037
 3470TIP3    H134605   3.594   3.322  20.337 -0.6526  1.0603  1.8824
 3470TIP3    H234606   3.506   3.245  20.432 -1.6345 -0.7892 -0.4294
 3471TIP3   OH234607   0.062   2.052  19.391 -0.1785  0.0290  0.1501
 3471TIP3    H134608   0.001   1.978  19.391  0.3780 -0.4365 -0.4352
 3471TIP3    H234609   0.120   2.036  19.466  0.2268 -0.3720 -0.2449
 3472TIP3   OH234610   5.814   2.344  18.209  0.0009 -0.1846 -0.1326
 3472TIP3    H134611   5.795   2.399  18.133 -1.7162 -0.7552 -0.1462
 3472TIP3    H234612   5.856   2.403  18.271  0.4899  0.5325 -1.1168
 3473TIP3   OH234613   0.937   0.138  19.705  0.0316  0.1737 -0.2315
 3473TIP3    H134614   1.025   0.159  19.674  0.7048 -1.5264  0.4308
 3473TIP3    H234615   0.880   0.159  19.631  1.1761 -0.3300 -1.2871
 3474TIP3   OH234616   4.264   6.004  20.805 -0.0003  0.0978  0.0696
 3474TIP3    H134617   4.244   5.986  20.713 -1.3806  0.2288  0.3139
 3474TIP3    H234618   4.232   6.093  20.820 -0.6480 -0.2570  0.8906
 3475TIP3   OH234619   5.614   1.437  19.229 -0.0801  0.0183  0.5430
 3475TIP3    H134620   5.641   1.481  19.309 -0.0100 -2.0550  1.7395
 3475TIP3    H234621   5.691   1.438  19.173  0.4629 -0.1489  1.2762
 3476TIP3   OH234622   4.207   6.277  20.244 -0.0637 -0.0900 -0.4373
 3476TIP3    H134623   4.237   6.300  20.333  1.4481  0.1470 -0.9681
 3476TIP3    H234624   4.129   6.330  20.230 -0.7243 -0.6357  0.9981
 3477TIP3   OH234625   5.661   6.139  19.035 -0.2175  0.1846  0.2015
 3477TIP3    H134626   5.632   6.230  19.037 -2.0229 -0.3013 -1.3422
 3477TIP3    H234627   5.601   6.093  19.093 -0.2357 -0.2344 -0.1380
 3478TIP3   OH234628   5.059   3.473  19.682 -0.2635 -0.2321 -0.5280
 3478TIP3    H134629   5.102   3.445  19.601 -0.5344  1.8369 -1.4619
 3478TIP3    H234630   5.082   3.566  19.690  0.5655 -0.5818  2.3295
 3479TIP3   OH234631   3.712   3.573  21.472 -0.6453 -0.2368 -0.2523
 3479TIP3    H134632   3.722   3.557  21.378  3.3933  0.6907 -0.1924
 3479TIP3    H234633   3.788   3.530  21.512 -0.4177  2.1193  2.1601
 3480TIP3   OH234634   6.151   0.836  19.860  0.1269 -0.5899 -0.9395
 3480TIP3    H134635   6.145   0.927  19.832 -1.1217 -1.0603 -2.3411
 3480TIP3    H234636   6.092   0.789  19.802 -1.4096 -1.9001  1.5088
 3481TIP3   OH234637   3.129   0.180  20.454 -0.6399 -0.0845  0.1146
 3481TIP3    H134638   3.099   0.265  20.422 -0.1370  0.0549 -0.0048
 3481TIP3    H234639   3.218   0.172  20.419 -1.0333 -1.1065 -0.6964
 3482TIP3   OH234640   1.431   1.370  18.738  0.3023 -1.1104  0.0179
 3482TIP3    H134641   1.443   1.365  18.643  1.2651 -0.8250  0.1194
 3482TIP3    H234642   1.344   1.409  18.748 -1.3501 -4.2943 -0.7259
 3483TIP3   OH234643   5.341   3.293  18.504  0.1528  0.1777 -0.0148
 3483TIP3    H134644   5.337   3.341  18.421  0.6648 -0.4713 -0.4260
 3483TIP3    H234645   5.277   3.223  18.495  1.2397 -0.7847 -0.4609
 3484TIP3   OH234646   1.818   1.824  19.186  0.2172 -0.6708  0.3515
 3484TIP3    H134647   1.892   1.876  19.215  0.3249 -1.9156  2.5270
 3484TIP3    H234648   1.851   1.734  19.186 -0.5104 -0.9865 -1.4609
 3485TIP3   OH234649   5.877   0.143  20.122  0.2613 -0.1133 -0.9209
 3485TIP3    H134650   5.971   0.128  20.137  0.3003 -0.3879 -1.4428
 3485TIP3    H234651   5.874   0.223  20.070  0.2458 -0.5551 -1.6017
 3486TIP3   OH234652   6.144   4.651  19.859  0.6196 -0.2066  0.1672
 3486TIP3    H134653   6.199   4.714  19.905  0.1266  0.4618 -0.1277
 3486TIP3    H234654   6.114   4.591  19.927  1.0806 -0.1089  0.4611
 3487TIP3   OH234655   3.824   0.133  20.862 -0.0314  0.4288 -0.1068
 3487TIP3    H134656   3.890   0.118  20.795 -0.2968 -1.1347 -0.0472
 3487TIP3    H234657   3.757   0.067  20.844 -1.1691  1.4224  0.3624
 3488TIP3   OH234658   2.030   1.531  21.104  0.0309 -0.1993  0.1918
 3488TIP3    H134659   2.014   1.451  21.054 -1.7576 -0.1599  0.6419
 3488TIP3    H234660   2.008   1.507  21.194 -0.8621  0.8965  0.2749
 3489TIP3   OH234661   3.822   6.174  20.674  0.4567  0.0311 -0.1150
 3489TIP3    H134662   3.750   6.236  20.687  0.4915 -0.3039  2.1456
 3489TIP3    H234663   3.779   6.089  20.666  0.5216  0.0546 -0.7433
 3490TIP3   OH234664   2.947   2.890  20.170  0.7741 -0.1540  0.3035
 3490TIP3    H134665   3.023   2.843  20.204  1.6757  0.6900 -0.4943
 3490TIP3    H234666   2.901   2.826  20.115  0.9249 -0.6561  0.7607
 3491TIP3   OH234667   0.210   0.290  18.067 -0.0500  0.4886  0.4427
 3491TIP3    H134668   0.256   0.286  18.151 -2.8980 -2.0188  2.0488
 3491TIP3    H234669   0.223   0.204  18.028 -0.3181  1.0168 -0.8626
 3492TIP3   OH234670   0.561   0.354  19.888  0.4474 -0.1845  0.2954
 3492TIP3    H134671   0.524   0.293  19.825  2.7662 -0.3602 -1.0336
 3492TIP3    H234672   0.603   0.421  19.835  1.3183  0.4163  1.6655
 3493TIP3   OH234673   0.744   4.359  20.510  0.2170 -0.2927 -0.1545
 3493TIP3    H134674   0.781   4.281  20.470  1.8560  1.1473 -1.6620
 3493TIP3    H234675   0.808   4.385  20.576 -0.5059 -0.4177  0.6096
 3494TIP3   OH234676   4.707   5.788  20.223  0.4208 -0.0241 -0.5234
 3494TIP3    H134677   4.709   5.778  20.318  0.6246 -0.3984 -0.5643
 3494TIP3    H234678   4.638   5.727  20.195  0.2194  0.2391 -0.5964
 3495TIP3   OH234679   6.500   1.605  20.960  0.0409 -0.1318 -0.5298
 3495TIP3    H134680   6.468   1.687  20.923  0.7280 -0.2217 -1.3605
 3495TIP3    H234681   6.421   1.561  20.992 -0.1687  1.6529  1.6750
 3496TIP3   OH234682   5.859   1.143  17.835  0.5692 -0.5057 -0.3456
 3496TIP3    H134683   5.898   1.185  17.758 -0.3586  2.6786  0.7669
 3496TIP3    H234684   5.910   1.062  17.846  2.7336  0.4119 -2.4932
 3497TIP3   OH234685   6.329   4.909  21.069  0.2724 -0.4998  0.0777
 3497TIP3    H134686   6.338   4.818  21.097 -0.0169 -1.0191 -1.4101
 3497TIP3    H234687   6.238   4.917  21.042  0.8005 -0.4101 -1.8322
 3498TIP3   OH234688   2.700   1.994  18.647 -0.1536  0.2634 -0.0873
 3498TIP3    H134689   2.639   2.001  18.573  1.0846 -0.6800 -1.2576
 3498TIP3    H234690   2.697   1.902  18.672  0.3711  0.3200  0.1989
 3499TIP3   OH234691   4.655   4.562  20.024 -0.2391  0.4374 -0.6520
 3499TIP3    H134692   4.748   4.541  20.032 -0.1189  0.5452 -1.6084
 3499TIP3    H234693   4.610   4.477  20.032 -0.1632  0.5255  1.0067
 3500TIP3   OH234694   5.014   4.492  18.597 -0.1107 -0.1394 -0.1965
 3500TIP3    H134695   5.005   4.497  18.501 -1.4083  0.8400 -0.0565
 3500TIP3    H234696   5.107   4.507  18.613  0.7750 -3.4506 -1.4361
 3501TIP3   OH234697   3.375   6.221  19.305 -0.3255  0.1668  0.5401
 3501TIP3    H134698   3.393   6.306  19.264  0.8583 -0.2718  0.0924
 3501TIP3    H234699   3.313   6.178  19.246  0.3313  0.0822 -0.1061
 3502TIP3   OH234700   4.053   4.196  18.472 -0.8037  0.4199 -0.4400
 3502TIP3    H134701   4.025   4.210  18.563 -1.5098  0.9676 -0.7376
 3502TIP3    H234702   4.122   4.260  18.457 -0.4668  0.1186 -0.1980
 3503TIP3   OH234703   1.968   2.045  19.874 -0.6841  0.3531  0.5532
 3503TIP3    H134704   1.993   2.132  19.905  1.6249 -0.8011  2.2333
 3503TIP3    H234705   1.965   1.992  19.953 -1.6278 -1.2016 -0.4855
 3504TIP3   OH234706   6.070   0.412  18.787  0.2290 -0.5068 -0.0511
 3504TIP3    H134707   6.045   0.444  18.873  2.6344 -0.9604  0.8940
 3504TIP3    H234708   6.086   0.492  18.735 -0.6666 -0.2368  0.0707
 3505TIP3   OH234709   1.392   0.133  19.383  0.0392 -0.1161 -0.3325
 3505TIP3    H134710   1.483   0.106  19.388  0.3631  0.6927 -1.4335
 3505TIP3    H234711   1.395   0.228  19.371 -1.0140  0.2067  1.5526
 3506TIP3   OH234712   1.787   2.771  20.533  0.1061 -0.3364  0.0444
 3506TIP3    H134713   1.743   2.690  20.560 -1.4165  0.1016 -0.9895
 3506TIP3    H234714   1.814   2.812  20.616 -0.0036 -1.4121  0.6269
 3507TIP3   OH234715   3.740   2.769  20.564  0.0129  0.3661 -0.2830
 3507TIP3    H134716   3.808   2.712  20.599  0.0108 -0.0782 -0.9893
 3507TIP3    H234717   3.735   2.841  20.626  0.9052  0.2435 -0.0558
 3508TIP3   OH234718   3.795   0.592  19.167  0.0279 -0.5952 -0.1232
 3508TIP3    H134719   3.714   0.548  19.193  0.7090  0.0286  3.5541
 3508TIP3    H234720   3.863   0.526  19.179  0.4220 -0.1863 -0.0843
 3509TIP3   OH234721   2.781   1.581  18.201  1.0090  0.4798 -0.3386
 3509TIP3    H134722   2.811   1.615  18.116  2.3863 -0.1031 -0.1063
 3509TIP3    H234723   2.689   1.558  18.186  1.2017  0.4737 -1.6375
 3510TIP3   OH234724   2.331   6.405  18.458  0.0949  0.2718  0.1344
 3510TIP3    H134725   2.332   6.461  18.536  0.1168 -0.8833  0.9789
 3510TIP3    H234726   2.418   6.416  18.420  0.5098 -0.0929  0.9620
 3511TIP3   OH234727   6.295   2.583  20.931 -0.1655 -0.4471 -0.7424
 3511TIP3    H134728   6.264   2.493  20.913 -0.9556 -0.7101  1.6420
 3511TIP3    H234729   6.247   2.609  21.009  1.0264  1.6008 -0.6471
 3512TIP3   OH234730   1.505   4.536  18.557 -0.1231  0.0083  0.4090
 3512TIP3    H134731   1.467   4.502  18.476  0.1814 -0.6326  0.5350
 3512TIP3    H234732   1.435   4.589  18.595 -0.1718  0.5540 -0.4150
 3513TIP3   OH234733   5.733   2.917  20.986  0.6377 -0.3977 -0.2378
 3513TIP3    H134734   5.738   3.001  20.940 -1.1028  0.3406  0.8223
 3513TIP3    H234735   5.810   2.916  21.042  0.8609  0.3343 -0.5221
 3514TIP3   OH234736   2.151   3.632  20.068 -0.4672 -0.2968  0.1741
 3514TIP3    H134737   2.056   3.643  20.068 -0.5788 -0.9990  1.5830
 3514TIP3    H234738   2.164   3.542  20.097  0.6090 -0.6618 -1.3558
 3515TIP3   OH234739   5.340   3.814  20.610 -0.4922  0.0998  0.0525
 3515TIP3    H134740   5.307   3.852  20.692 -1.0055 -0.6591  0.2108
 3515TIP3    H234741   5.434   3.829  20.613 -0.4381 -0.3258  1.0071
 3516TIP3   OH234742   1.464   6.161  19.091  0.1126 -0.6220 -0.2132
 3516TIP3    H134743   1.544   6.118  19.060  1.4805  0.6636  1.3257
 3516TIP3    H234744   1.474   6.162  19.187 -0.6500  1.5750 -0.1118
 3517TIP3   OH234745   5.764   5.637  20.741 -0.1083  0.2204 -0.0488
 3517TIP3    H134746   5.696   5.619  20.677 -0.5054 -0.9029  0.6391
 3517TIP3    H234747   5.716   5.663  20.820  0.3088  0.3981  0.1486
 3518TIP3   OH234748   2.414   1.836  18.817 -0.2379 -0.4776 -0.3510
 3518TIP3    H134749   2.469   1.875  18.884 -1.3362  0.0526  0.2761
 3518TIP3    H234750   2.474   1.816  18.745  0.5667  1.2382 -0.2068
 3519TIP3   OH234751   3.425   1.984  20.240  0.1494 -0.1144  0.3892
 3519TIP3    H134752   3.476   1.941  20.171  0.8410 -0.8493  1.3397
 3519TIP3    H234753   3.455   2.076  20.236  0.7143 -0.2980  0.1863
 3520TIP3   OH234754   0.259   2.908  21.057 -0.1004 -0.5043 -0.7778
 3520TIP3    H134755   0.242   2.813  21.062 -2.0856 -0.3447 -2.4761
 3520TIP3    H234756   0.173   2.945  21.034  1.0421  1.4686 -2.1432
 3521TIP3   OH234757   4.789   0.164  20.824 -0.1657 -0.0364  0.0311
 3521TIP3    H134758   4.871   0.147  20.871  0.7326 -1.5081 -1.9050
 3521TIP3    H234759   4.766   0.080  20.785 -1.9991  0.6254 -0.4238
 3522TIP3   OH234760   4.947   0.178  18.903 -0.1864  0.5824  0.1620
 3522TIP3    H134761   4.885   0.251  18.906  0.4133  1.1937 -1.4550
 3522TIP3    H234762   4.893   0.102  18.880 -0.5693  0.8300  0.2396
 3523TIP3   OH234763   2.695   5.091  18.196 -0.0729  0.1310 -0.5336
 3523TIP3    H134764   2.702   5.108  18.290  0.1483  0.3589 -0.5876
 3523TIP3    H234765   2.724   5.173  18.155  1.1282 -0.4110 -0.8120
 3524TIP3   OH234766   4.749   2.671  20.106  0.2593  0.1006 -0.1086
 3524TIP3    H134767   4.730   2.579  20.123 -1.5500  0.1591 -1.5775
 3524TIP3    H234768   4.709   2.718  20.179  1.4535 -0.2512  0.8077
 3525TIP3   OH234769   4.367   0.200  19.717 -0.7185 -0.5442 -0.4978
 3525TIP3    H134770   4.298   0.265  19.728 -0.2328 -0.2249  0.7810
 3525TIP3    H234771   4.320   0.120  19.692 -1.3358  0.2050 -1.8665
 3526TIP3   OH234772   1.928   5.655  18.566  0.6220 -0.0607  0.2605
 3526TIP3    H134773   1.835   5.643  18.550  0.2754  1.5399  0.8819
 3526TIP3    H234774   1.958   5.710  18.494  0.5250  1.4915  1.3639
 3527TIP3   OH234775   1.642   2.982  19.347  0.4666 -0.4932 -0.1589
 3527TIP3    H134776   1.608   2.905  19.393 -1.6642 -0.1442 -1.0254
 3527TIP3    H234777   1.588   3.055  19.378 -1.5615 -0.3378 -3.4869
 3528TIP3   OH234778   5.735   0.421  19.701 -0.0691  0.1118 -0.3175
 3528TIP3    H134779   5.685   0.468  19.767 -1.5551 -1.2421 -0.4167
 3528TIP3    H234780   5.678   0.350  19.673  0.2796  0.8791 -3.4117
 3529TIP3   OH234781   5.108   1.416  17.540  0.0645 -0.9503  0.7284
 3529TIP3    H134782   5.034   1.357  17.554 -0.7609 -0.3627 -0.9331
 3529TIP3    H234783   5.127   1.409  17.447  1.3987 -0.2457  0.9245
 3530TIP3   OH234784   4.268   2.147  17.412 -0.5283 -0.5436  0.6550
 3530TIP3    H134785   4.299   2.104  17.332 -1.8512  0.4572 -0.4410
 3530TIP3    H234786   4.346   2.184  17.452  0.0209 -0.0744 -0.7948
 3531TIP3   OH234787   1.548   3.509  21.087  0.1297 -0.4123 -0.6845
 3531TIP3    H134788   1.625   3.460  21.058  1.0886  0.6432  0.0034
 3531TIP3    H234789   1.554   3.592  21.041 -1.1864 -0.6891 -1.4185
 3532TIP3   OH234790   4.525   5.928  18.939 -0.2212 -0.3467 -0.1392
 3532TIP3    H134791   4.453   5.955  18.996 -0.3064 -2.0975  0.6405
 3532TIP3    H234792   4.505   5.968  18.854 -1.8587 -0.4133  0.1897
 3533TIP3   OH234793   4.318   3.507  19.527 -0.4512  0.3958  0.0112
 3533TIP3    H134794   4.281   3.422  19.551 -0.6899  0.2620 -0.8165
 3533TIP3    H234795   4.253   3.546  19.469 -0.1748  0.9965  0.0953
 3534TIP3   OH234796   1.616   0.782  20.889 -0.0762 -0.0635 -0.1015
 3534TIP3    H134797   1.675   0.715  20.855 -0.2358  0.3399 -1.1921
 3534TIP3    H234798   1.674   0.852  20.919  0.0181  0.0529 -0.5609
 3535TIP3   OH234799   4.353   4.019  20.267  0.5908 -0.4634  0.1886
 3535TIP3    H134800   4.321   3.929  20.267 -0.4270 -0.1173 -0.6483
 3535TIP3    H234801   4.347   4.046  20.359  0.6586 -1.1573  0.4046
 3536TIP3   OH234802   5.156   3.777  20.093 -0.1288 -0.2643 -0.2141
 3536TIP3    H134803   5.148   3.705  20.155 -1.5709 -2.1429 -2.4132
 3536TIP3    H234804   5.205   3.740  20.019 -0.9840  0.9677 -1.4425
 3537TIP3   OH234805   5.622   1.351  17.902  0.6738  0.6087  0.1972
 3537TIP3    H134806   5.552   1.331  17.841  0.7198  1.4493 -0.1577
 3537TIP3    H234807   5.679   1.274  17.901 -1.1651 -0.8494  1.8699
 3538TIP3   OH234808   1.036   2.201  19.518 -0.8261 -0.9526  0.4733
 3538TIP3    H134809   1.091   2.150  19.577  1.4144  1.8268  1.0273
 3538TIP3    H234810   1.093   2.219  19.442 -0.6060  2.4604  1.3000
 3539TIP3   OH234811   4.017   2.378  16.892  0.1122  0.0336 -0.5579
 3539TIP3    H134812   3.924   2.378  16.873 -0.0238  0.4125  0.0565
 3539TIP3    H234813   4.028   2.448  16.957  0.0511 -2.8185  2.8877
 3540TIP3   OH234814   0.999   3.102  18.527 -0.4768  0.5526  0.4414
 3540TIP3    H134815   0.918   3.109  18.578  0.7815  2.3112  2.3282
 3540TIP3    H234816   1.006   3.186  18.481  1.8612  1.8939  2.9558
 3541TIP3   OH234817   5.303   3.068  19.890 -0.4287  0.0965  0.5512
 3541TIP3    H134818   5.260   2.983  19.899 -1.1662  0.4716  0.6486
 3541TIP3    H234819   5.242   3.120  19.837  1.7243 -0.6145 -2.8688
 3542TIP3   OH234820   3.265   4.667  21.209  0.6168  0.1503  0.1131
 3542TIP3    H134821   3.359   4.648  21.202  0.6291 -0.4324  1.5881
 3542TIP3    H234822   3.227   4.586  21.243  0.0097  1.3233  2.3701
 3543TIP3   OH234823   0.475   2.328  19.810  0.4442  0.7309  0.5313
 3543TIP3    H134824   0.424   2.272  19.752 -0.8520  1.6059  0.7784
 3543TIP3    H234825   0.539   2.270  19.850 -0.7718 -0.5434  0.6808
 3544TIP3   OH234826   1.454   2.902  20.671  0.3805  0.2663 -0.0514
 3544TIP3    H134827   1.503   2.944  20.742  0.0123 -0.0429  0.3890
 3544TIP3    H234828   1.378   2.862  20.714 -0.9517  1.7998 -0.8851
 3545TIP3   OH234829   2.498   4.328  20.957 -0.4374  0.0464 -0.1594
 3545TIP3    H134830   2.499   4.415  20.917  0.9953  0.1010 -0.0807
 3545TIP3    H234831   2.431   4.333  21.025  0.0484  1.3025  0.2543
 3546TIP3   OH234832   6.561   6.147  20.874 -1.0904 -0.3735  0.1341
 3546TIP3    H134833   6.606   6.064  20.890 -1.8057 -0.8313 -0.1574
 3546TIP3    H234834   6.607   6.210  20.929  0.8479 -0.4920 -1.2428
 3547TIP3   OH234835   2.311   0.159  19.135  0.5424 -0.1993  0.0795
 3547TIP3    H134836   2.265   0.188  19.056  0.0458 -1.2920 -0.0579
 3547TIP3    H234837   2.318   0.238  19.189  0.9354  0.5808 -1.0627
 3548TIP3   OH234838   5.853   6.282  19.298 -0.1889  0.7198  0.0092
 3548TIP3    H134839   5.780   6.224  19.278  0.4504  0.0867 -0.5700
 3548TIP3    H234840   5.823   6.368  19.270 -0.2804  0.2737 -1.3796
 3549TIP3   OH234841   4.354   4.576  19.661  0.3475  0.2615 -0.1018
 3549TIP3    H134842   4.446   4.589  19.684  0.2692  0.5234  0.0625
 3549TIP3    H234843   4.334   4.488  19.694  0.6198  0.0785 -0.4095
 3550TIP3   OH234844   2.128   1.847  21.225 -0.1545  0.2855 -0.0591
 3550TIP3    H134845   2.136   1.942  21.224  0.9085  0.2151  0.4439
 3550TIP3    H234846   2.184   1.817  21.153  2.7708 -0.1189  2.1971
 3551TIP3   OH234847   5.558   5.962  19.751 -0.3960 -0.3412 -0.1468
 3551TIP3    H134848   5.645   5.990  19.777 -0.4411  0.9074 -1.2529
 3551TIP3    H234849   5.559   5.867  19.763  1.2024 -0.3845 -0.4011
 3552TIP3   OH234850   1.598   5.112  17.537  0.0064  0.2720  0.0733
 3552TIP3    H134851   1.628   5.054  17.467  0.0324  1.5131 -0.9838
 3552TIP3    H234852   1.674   5.124  17.593  0.8100  1.3645 -1.1839
 3553TIP3   OH234853   5.478   5.980  19.198  0.2321  0.0381  0.6444
 3553TIP3    H134854   5.466   5.929  19.278  0.0186  0.7098  1.0521
 3553TIP3    H234855   5.390   6.000  19.169  0.3000 -0.7662 -0.1353
 3554TIP3   OH234856   3.155   4.466  20.107 -0.2126  0.2616  0.2300
 3554TIP3    H134857   3.106   4.402  20.055 -3.1131  0.0301  2.9503
 3554TIP3    H234858   3.194   4.524  20.042 -3.5080 -0.0175 -2.2629
 3555TIP3   OH234859   5.816   0.660  20.293 -0.4414  0.1001 -0.1320
 3555TIP3    H134860   5.775   0.609  20.363 -1.0604  0.8466  0.0602
 3555TIP3    H234861   5.821   0.749  20.328  2.1053 -0.0864  0.1711
 3556TIP3   OH234862   5.044   1.055  20.472 -0.2613 -0.3357  0.3074
 3556TIP3    H134863   5.042   1.130  20.532  0.2821  1.5995 -1.9256
 3556TIP3    H234864   4.952   1.034  20.458 -0.4524  0.3970  0.4006
 3557TIP3   OH234865   5.668   2.897  21.389  0.4382  0.0727 -0.5300
 3557TIP3    H134866   5.703   2.862  21.470 -0.3706  0.1763 -0.1263
 3557TIP3    H234867   5.712   2.981  21.377 -0.7932  0.9529  0.8080
 3558TIP3   OH234868   2.339   2.433  19.697 -0.2107  0.1203 -0.2761
 3558TIP3    H134869   2.348   2.423  19.792 -1.5065 -0.3370 -0.1743
 3558TIP3    H234870   2.260   2.487  19.687 -0.3718 -0.2645 -1.1089
 3559TIP3   OH234871   2.153   5.522  19.429 -0.2305  0.4245 -0.3478
 3559TIP3    H134872   2.062   5.522  19.459 -0.0163  1.8321  0.4308
 3559TIP3    H234873   2.149   5.498  19.337 -1.2462 -0.8524  0.0011
 3560TIP3   OH234874   1.778   3.964  20.701 -0.3964  0.3402 -0.0560
 3560TIP3    H134875   1.707   3.902  20.714 -0.0953 -0.0998 -0.4891
 3560TIP3    H234876   1.802   3.954  20.609  0.8473 -0.1867  0.3070
 3561TIP3   OH234877   3.957   0.791  17.848  0.3048  0.3053  0.0811
 3561TIP3    H134878   3.869   0.822  17.825 -0.2898 -0.0684  1.6925
 3561TIP3    H234879   3.998   0.771  17.764 -2.3051 -2.5529 -0.7066
 3562TIP3   OH234880   0.831   0.966  21.396 -0.0275  0.1500  0.2477
 3562TIP3    H134881   0.786   1.050  21.400 -2.7798 -1.2651  1.3240
 3562TIP3    H234882   0.772   0.905  21.440  2.0149 -2.3062 -0.2028
 3563TIP3   OH234883   5.833   1.470  19.071  0.4476 -0.1825 -0.0186
 3563TIP3    H134884   5.924   1.489  19.090  0.5845 -0.4789 -0.3487
 3563TIP3    H234885   5.832   1.376  19.052 -0.2080 -0.5355  1.6116
 3564TIP3   OH234886   6.220   6.472  20.732 -0.0395  0.4349  0.1429
 3564TIP3    H134887   6.175   6.462  20.648 -0.2761 -0.2459  0.3427
 3564TIP3    H234888   6.215   6.385  20.772  0.1275  0.7392  0.8354
 3565TIP3   OH234889   0.347   5.050  17.962  0.4155  0.3812 -0.1485
 3565TIP3    H134890   0.379   4.975  17.912  2.0767  1.6612 -1.1170
 3565TIP3    H234891   0.253   5.052  17.945  0.4593 -0.9982 -0.7150
 3566TIP3   OH234892   3.972   4.247  18.742  0.2397  0.0300 -0.3185
 3566TIP3    H134893   4.064   4.259  18.766 -0.1331 -0.4351  1.4764
 3566TIP3    H234894   3.927   4.322  18.782 -0.3375 -0.4828  0.0030
 3567TIP3   OH234895   0.485   2.026  20.118 -0.1885 -0.2183 -0.2279
 3567TIP3    H134896   0.400   2.062  20.093 -1.2299 -0.9760  1.9204
 3567TIP3    H234897   0.475   1.931  20.108 -0.3971 -0.4929  1.9801
 3568TIP3   OH234898   2.212   5.629  19.850 -0.2024  0.1805 -0.0382
 3568TIP3    H134899   2.248   5.643  19.763 -0.0844 -0.1431 -0.0428
 3568TIP3    H234900   2.119   5.613  19.835  0.1572 -1.8829 -0.3035
 3569TIP3   OH234901   2.521   3.708  21.244 -0.4495  0.4552 -0.0361
 3569TIP3    H134902   2.540   3.788  21.195  2.3795  0.1265  0.3358
 3569TIP3    H234903   2.427   3.696  21.236 -0.7302  2.9675 -1.3954
 3570TIP3   OH234904   3.082   5.028  18.330  0.8266  0.0936 -0.1246
 3570TIP3    H134905   3.097   5.039  18.236  2.0217 -0.8044 -0.0570
 3570TIP3    H234906   3.146   5.087  18.371  0.9078 -0.1729  0.1340
 3571TIP3   OH234907   0.617   0.074  19.925  0.3861  0.1247 -0.0763
 3571TIP3    H134908   0.619   0.075  19.830 -0.6255  0.6513 -0.1045
 3571TIP3    H234909   0.706   0.100  19.951  0.3106  1.2510 -0.8755
 3572TIP3   OH234910   4.629   5.110  18.354  0.3026 -0.0413  0.0556
 3572TIP3    H134911   4.622   5.016  18.370  0.4162  0.2770  2.5142
 3572TIP3    H234912   4.683   5.118  18.275 -0.4113 -2.0203 -0.6744
 3573TIP3   OH234913   1.161   5.825  21.139 -0.2247  0.2841  0.4628
 3573TIP3    H134914   1.114   5.860  21.063  0.4959 -0.7345 -0.4788
 3573TIP3    H234915   1.105   5.755  21.172 -0.2637  0.3426  0.5218
 3574TIP3   OH234916   0.908   0.502  21.395 -0.5265  0.1362 -0.9089
 3574TIP3    H134917   0.973   0.573  21.391 -0.4687  0.0947 -0.6634
 3574TIP3    H234918   0.833   0.541  21.439  0.4755 -0.7198  1.6971
 3575TIP3   OH234919   0.770   3.773  20.198 -0.3414  0.3973  0.0483
 3575TIP3    H134920   0.820   3.707  20.246  0.2898  0.5152 -0.4257
 3575TIP3    H234921   0.814   3.780  20.113 -0.7361  1.0233 -0.1169
 3576TIP3   OH234922   6.543   3.057  19.943 -0.2683  0.5155  0.1833
 3576TIP3    H134923   6.519   3.061  20.036 -1.3012 -2.9274  0.1657
 3576TIP3    H234924   6.622   3.003  19.941 -0.2829  0.5122 -0.9502
 3577TIP3   OH234925   4.151   2.274  18.735  0.2141  0.2668  0.1013
 3577TIP3    H134926   4.108   2.193  18.764  1.7727 -0.6400 -0.0249
 3577TIP3    H234927   4.118   2.289  18.647 -1.2035  0.6125  0.6644
 3578TIP3   OH234928   1.565   5.391  18.749 -0.1378  0.0018  0.8831
 3578TIP3    H134929   1.485   5.396  18.698 -0.3092 -1.7351  0.9498
 3578TIP3    H234930   1.602   5.480  18.743 -0.7849  0.1820 -1.1769
 3579TIP3   OH234931   4.679   0.857  18.207  0.2481  0.0303 -0.1369
 3579TIP3    H134932   4.674   0.853  18.111 -0.3933  0.4252 -0.1249
 3579TIP3    H234933   4.607   0.915  18.232 -0.3975 -1.0992  0.6789
 3580TIP3   OH234934   5.380   0.710  19.739 -0.5650 -0.1571 -0.1326
 3580TIP3    H134935   5.332   0.683  19.818 -0.8226 -1.1517 -0.6152
 3580TIP3    H234936   5.321   0.772  19.696 -0.2057  0.7889  0.7066
 3581TIP3   OH234937   1.935   3.938  20.467 -0.3917 -0.0862 -0.1098
 3581TIP3    H134938   1.938   4.020  20.419  2.2699  0.6858  1.1733
 3581TIP3    H234939   2.006   3.885  20.430 -0.3846 -0.7505  0.8137
 3582TIP3   OH234940   4.324   2.276  18.962  0.1471 -0.2265  0.0871
 3582TIP3    H134941   4.264   2.291  18.889  0.1248  1.0024  0.3476
 3582TIP3    H234942   4.409   2.305  18.931 -0.0313  1.1624  0.8379
 3583TIP3   OH234943   1.545   4.087  20.438  0.6101 -0.0587  0.2314
 3583TIP3    H134944   1.492   4.112  20.363  0.0118  0.5427  0.8378
 3583TIP3    H234945   1.584   4.170  20.468  2.0590 -0.5177 -0.3206
 3584TIP3   OH234946   1.634   6.407  20.010 -0.0685 -0.4629  0.1517
 3584TIP3    H134947   1.693   6.450  19.949 -1.2167 -1.0012 -1.4010
 3584TIP3    H234948   1.624   6.319  19.976 -1.2977 -0.5614  0.7147
 3585TIP3   OH234949   6.504   5.633  20.492 -0.3248  0.3752  0.1770
 3585TIP3    H134950   6.438   5.580  20.535 -0.1258  1.0507  1.3751
 3585TIP3    H234951   6.462   5.718  20.478  0.1552  0.6979  0.6249
 3586TIP3   OH234952   3.570   4.186  20.576  0.3829 -0.3276 -0.4638
 3586TIP3    H134953   3.620   4.105  20.571 -0.9011 -1.1931  0.2719
 3586TIP3    H234954   3.525   4.192  20.492  0.2439 -0.5186 -0.4001
 3587TIP3   OH234955   3.455   0.065  19.939  0.1012 -0.0399  0.2780
 3587TIP3    H134956   3.501   0.017  20.009 -1.3217 -0.3454  1.0295
 3587TIP3    H234957   3.525   0.094  19.881  1.0469 -3.0313 -0.2409
 3588TIP3   OH234958   2.743   2.312  20.102  0.0467  0.0677  0.0577
 3588TIP3    H134959   2.671   2.257  20.132 -1.0318  1.0647 -0.6130
 3588TIP3    H234960   2.739   2.308  20.006  1.9093 -1.1330 -0.0196
 3589TIP3   OH234961   4.105   3.573  17.332 -0.1496  0.3015 -0.3179
 3589TIP3    H134962   4.169   3.501  17.338 -0.6774 -0.0787  1.1713
 3589TIP3    H234963   4.130   3.620  17.253  1.5141 -0.2861 -0.1885
 3590TIP3   OH234964   3.188   2.372  19.251 -0.0131 -0.1347 -0.0119
 3590TIP3    H134965   3.096   2.345  19.250 -0.1078  0.1958 -0.2689
 3590TIP3    H234966   3.236   2.290  19.247 -0.2971 -0.3103  0.1100
 3591TIP3   OH234967   3.185   3.977  19.094 -0.2033  0.2831  0.2567
 3591TIP3    H134968   3.174   3.950  19.003 -1.0491 -0.0875  0.4613
 3591TIP3    H234969   3.269   4.023  19.095  1.1981 -2.1092 -0.1473
 3592TIP3   OH234970   1.910   4.369  20.446  0.7752 -0.6425 -0.1129
 3592TIP3    H134971   1.972   4.324  20.503  0.8368  0.6688  0.9139
 3592TIP3    H234972   1.944   4.458  20.439 -1.8886  0.7279  2.0936
 3593TIP3   OH234973   3.946   4.024  20.163 -0.1323  0.5783  0.0379
 3593TIP3    H134974   4.024   3.972  20.142 -0.5652 -0.2343  0.3930
 3593TIP3    H234975   3.876   3.984  20.111 -0.2346  1.5971 -0.6415
 3594TIP3   OH234976   5.064   6.099  21.015 -0.2310 -0.3447  0.5667
 3594TIP3    H134977   5.138   6.114  20.955 -0.8483  0.2380 -0.0700
 3594TIP3    H234978   5.101   6.111  21.102 -0.1745  3.0857  0.2216
 3595TIP3   OH234979   2.874   5.977  20.772 -0.3285 -0.2320 -0.0233
 3595TIP3    H134980   2.959   6.018  20.788 -0.2899 -0.3467  0.0592
 3595TIP3    H234981   2.843   5.950  20.858 -0.0886 -0.9053 -0.1413
 3596TIP3   OH234982   3.719   0.809  19.863 -0.0980 -0.1615 -0.3110
 3596TIP3    H134983   3.709   0.809  19.768  0.6180 -0.8254 -0.3957
 3596TIP3    H234984   3.795   0.753  19.879 -0.3311 -0.2125  0.6621
 3597TIP3   OH234985   3.902   2.247  17.311  0.2324  0.0795 -0.3079
 3597TIP3    H134986   3.887   2.168  17.259  0.1448  0.8614 -1.5099
 3597TIP3    H234987   3.843   2.312  17.274 -0.2739  0.5108  1.1766
 3598TIP3   OH234988   4.190   5.212  19.257 -0.2281  0.1279 -0.0938
 3598TIP3    H134989   4.123   5.222  19.190  0.0367 -1.3283 -0.6168
 3598TIP3    H234990   4.266   5.259  19.223  0.6102 -2.2966 -1.8973
 3599TIP3   OH234991   0.443   0.983  21.479 -0.0337 -0.1664 -0.6659
 3599TIP3    H134992   0.533   0.953  21.492 -0.7374 -1.7437  1.0719
 3599TIP3    H234993   0.451   1.065  21.431  2.4578  0.7905  1.2177
 3600TIP3   OH234994   5.355   4.879  19.599  0.3901 -0.4569 -0.3760
 3600TIP3    H134995   5.430   4.922  19.557  0.8249 -0.0849  0.7373
 3600TIP3    H234996   5.310   4.834  19.528  0.2431  1.3599 -1.5155
 3601TIP3   OH234997   4.283   3.276  18.689  0.3840  0.4004  0.0982
 3601TIP3    H134998   4.348   3.224  18.737  0.7750 -1.1459 -2.0027
 3601TIP3    H234999   4.234   3.212  18.638 -1.0326  1.8389 -0.4227
 3602TIP3   OH235000   6.251   0.206  19.339 -0.0522 -0.0228 -0.6203
 3602TIP3    H135001   6.188   0.158  19.284  1.6127  0.2195 -2.8765
 3602TIP3    H235002   6.285   0.275  19.282  2.1886 -0.0860  0.5275
 3603TIP3   OH235003   4.684   2.921  20.985 -0.7411 -0.0584  0.1407
 3603TIP3    H135004   4.762   2.872  20.960 -1.7827 -2.0730  0.5220
 3603TIP3    H235005   4.662   2.974  20.908 -0.4706 -1.4903 -0.9757
 3604TIP3   OH235006   1.999   2.727  19.474 -1.0509  0.3326  0.0714
 3604TIP3    H135007   1.954   2.792  19.527 -1.5187  1.3666 -1.5436
 3604TIP3    H235008   1.934   2.699  19.410  0.0798  0.5906 -1.2251
 3605TIP3   OH235009   2.586   5.184  19.784  0.1893  0.1769  0.3991
 3605TIP3    H135010   2.515   5.246  19.767  0.8528  0.7094 -0.4984
 3605TIP3    H235011   2.585   5.125  19.709  0.4439 -0.0637  0.5799
 3606TIP3   OH235012   5.425   1.255  19.316 -0.7554 -0.0111 -0.1504
 3606TIP3    H135013   5.469   1.174  19.342 -2.2493 -0.7476  0.2250
 3606TIP3    H235014   5.496   1.316  19.295  0.5616 -0.0560  3.5125
 3607TIP3   OH235015   5.829   6.156  20.925  0.3251 -0.2636  0.2020
 3607TIP3    H135016   5.889   6.218  20.966 -1.6012  1.1087  1.1295
 3607TIP3    H235017   5.852   6.071  20.963  0.6917  0.4802  1.7145
 3608TIP3   OH235018   2.751   2.266  19.024  0.0125  0.2394  0.9125
 3608TIP3    H135019   2.825   2.233  18.973 -0.4140 -3.1999  2.2498
 3608TIP3    H235020   2.676   2.261  18.965 -0.6945 -4.7469  1.7797
 3609TIP3   OH235021   2.945   3.410  19.816 -0.3858 -0.0160  0.4433
 3609TIP3    H135022   2.978   3.325  19.786  1.9605  1.0187 -0.1362
 3609TIP3    H235023   2.964   3.411  19.910 -2.2901 -0.8862  0.8841
 3610TIP3   OH235024   2.253   3.095  18.322  0.0831  0.1361 -0.8172
 3610TIP3    H135025   2.226   3.168  18.266 -2.1772  0.1597  0.2054
 3610TIP3    H235026   2.315   3.134  18.383 -1.0434  1.2184 -0.3235
 3611TIP3   OH235027   6.115   3.116  20.923 -0.6148  0.1626 -0.2090
 3611TIP3    H135028   6.199   3.073  20.907  0.9310  3.0925 -0.7647
 3611TIP3    H235029   6.106   3.179  20.851 -1.9069  1.8285  1.3143
 3612TIP3   OH235030   3.664   2.280  18.126 -0.6347  0.1226 -0.0332
 3612TIP3    H135031   3.685   2.197  18.169  1.8416  0.5898 -0.2228
 3612TIP3    H235032   3.664   2.259  18.033 -1.0137  0.1370 -0.0370
 3613TIP3   OH235033   3.127   0.872  18.461  0.2613 -0.2382 -0.2256
 3613TIP3    H135034   3.160   0.928  18.531  1.7304 -0.2498 -0.8700
 3613TIP3    H235035   3.100   0.934  18.392 -0.5534 -0.2497  0.0744
 3614TIP3   OH235036   5.609   1.510  18.119  0.2738  0.2336  0.2480
 3614TIP3    H135037   5.603   1.455  18.041  0.3314  0.9733 -0.2813
 3614TIP3    H235038   5.687   1.563  18.106  0.1306  0.5596  0.6798
 3615TIP3   OH235039   3.794   4.607  20.878 -0.2535 -0.0011 -0.8933
 3615TIP3    H135040   3.824   4.537  20.937 -1.0203 -0.1938 -0.7206
 3615TIP3    H235041   3.719   4.569  20.833 -0.6736  0.7232 -0.8049
 3616TIP3   OH235042   0.670   0.975  21.078 -0.2672 -1.1020 -0.3385
 3616TIP3    H135043   0.646   0.962  20.986 -0.4717 -0.1812 -0.4179
 3616TIP3    H235044   0.587   0.972  21.125 -0.1713 -1.4782 -0.1867
 3617TIP3   OH235045   3.021   2.900  18.201  0.1673  0.5895 -0.1344
 3617TIP3    H135046   3.067   2.818  18.184 -2.6990 -0.6978 -2.5160
 3617TIP3    H235047   3.000   2.897  18.294  1.3150 -0.6931  0.1188
 3618TIP3   OH235048   4.778   6.249  18.916  0.3839  0.0145  0.1291
 3618TIP3    H135049   4.785   6.170  18.864  0.6164  1.0622 -1.5017
 3618TIP3    H235050   4.840   6.236  18.988  0.8315 -1.0480 -0.4343
 3619TIP3   OH235051   6.178   3.525  18.054 -0.8029  0.1469  0.1030
 3619TIP3    H135052   6.274   3.526  18.051 -0.7884  0.9409  0.4276
 3619TIP3    H235053   6.151   3.517  17.963 -0.4288 -0.5070  0.0437
 3620TIP3   OH235054   2.698   5.584  20.640 -0.2339 -0.0780  0.0578
 3620TIP3    H135055   2.627   5.581  20.703 -1.8596  0.5804 -1.6491
 3620TIP3    H235056   2.662   5.631  20.565  2.5620  1.8470 -0.2297
 3621TIP3   OH235057   0.326   6.199  17.983 -0.4230  0.2573 -0.4818
 3621TIP3    H135058   0.404   6.255  17.990  0.7328 -1.1875 -1.2790
 3621TIP3    H235059   0.252   6.259  17.997  0.8371  1.1006  4.1039
 3622TIP3   OH235060   5.404   2.473  20.403 -0.9298  0.3512  0.1656
 3622TIP3    H135061   5.364   2.387  20.398 -1.2933  0.4419  1.3276
 3622TIP3    H235062   5.407   2.503  20.312 -2.6958 -0.0300 -0.0640
 3623TIP3   OH235063   6.127   4.138  20.556 -0.1270 -0.3327  0.7388
 3623TIP3    H135064   6.039   4.171  20.577 -0.2522 -0.0110 -0.2520
 3623TIP3    H235065   6.186   4.206  20.588 -0.4222  1.4843 -2.2355
 3624TIP3   OH235066   6.094   6.361  19.127  0.6974  0.1681  0.0387
 3624TIP3    H135067   6.027   6.310  19.172  0.6610 -0.4206 -0.6466
 3624TIP3    H235068   6.045   6.414  19.064  0.8893 -0.5787 -0.7601
 3625TIP3   OH235069   0.876   3.220  19.288  0.5394  0.1756  0.4386
 3625TIP3    H135070   0.836   3.296  19.247 -2.7733 -0.7893  1.5537
 3625TIP3    H235071   0.858   3.148  19.228  0.0693 -0.3883  1.2374
 3626TIP3   OH235072   5.659   2.650  18.908  0.5422 -0.0938  0.5175
 3626TIP3    H135073   5.610   2.592  18.849 -0.5208 -0.8584  2.0786
 3626TIP3    H235074   5.706   2.709  18.849 -0.5079 -0.7704 -1.0909
 3627TIP3   OH235075   1.740   0.167  20.520  0.5745 -0.6420  0.0754
 3627TIP3    H135076   1.819   0.171  20.466  0.9196 -0.2357  0.6032
 3627TIP3    H235077   1.770   0.186  20.608 -0.0537 -0.9024  0.3521
 3628TIP3   OH235078   5.200   1.754  20.008 -0.5025  0.1874 -0.1639
 3628TIP3    H135079   5.203   1.673  19.958 -0.5289  0.2550 -0.2741
 3628TIP3    H235080   5.196   1.725  20.100  0.8652  0.0664 -0.1229
 3629TIP3   OH235081   6.475   1.733  19.280  0.2534  0.3450  0.2884
 3629TIP3    H135082   6.490   1.653  19.330 -0.3777  0.0630  0.0435
 3629TIP3    H235083   6.472   1.802  19.346 -0.2260  0.0220  0.6122
 3630TIP3   OH235084   6.190   1.209  19.329  0.0783 -0.1683  0.2801
 3630TIP3    H135085   6.103   1.201  19.290  0.0934 -1.3424  0.4577
 3630TIP3    H235086   6.174   1.235  19.420  0.0088  1.5480 -0.1769
 3631TIP3   OH235087   2.050   3.640  20.665  0.4884 -0.0191 -0.2354
 3631TIP3    H135088   2.054   3.596  20.751 -1.7778  1.1537  0.5309
 3631TIP3    H235089   2.003   3.578  20.609  1.1496 -0.3894 -0.3928
 3632TIP3   OH235090   0.106   2.011  20.223 -0.6085  0.1368  0.2225
 3632TIP3    H135091   0.036   2.049  20.276 -1.8862 -0.3110 -1.0980
 3632TIP3    H235092   0.085   1.918  20.218  0.8766 -0.2722  0.9593
 3633TIP3   OH235093   2.479   0.948  18.773 -0.0801  0.2729  0.3397
 3633TIP3    H135094   2.555   0.978  18.824  0.6301  0.4153 -0.7767
 3633TIP3    H235095   2.426   1.027  18.760  0.4130  0.5120 -0.2678
 3634TIP3   OH235096   3.503   1.540  18.781 -0.3767 -0.2123  0.2225
 3634TIP3    H135097   3.504   1.469  18.717  0.5008  0.7859 -0.9134
 3634TIP3    H235098   3.543   1.501  18.859 -0.3703 -1.1142 -0.2137
 3635TIP3   OH235099   0.576   4.367  19.301  0.2002 -0.4287 -0.1189
 3635TIP3    H135100   0.516   4.390  19.372 -1.0627 -1.0276 -0.9600
 3635TIP3    H235101   0.612   4.282  19.328 -0.2623 -0.6472 -0.1803
 3636TIP3   OH235102   4.247   4.264  18.811  0.0633 -0.4861  0.2812
 3636TIP3    H135103   4.296   4.197  18.762 -1.1001 -2.7827  2.0207
 3636TIP3    H235104   4.304   4.287  18.884 -0.1407 -0.7596  0.5315
 3637TIP3   OH235105   3.968   6.019  19.157  0.0877 -0.4693 -0.0488
 3637TIP3    H135106   4.003   5.972  19.081  0.4833  0.8937 -0.7644
 3637TIP3    H235107   4.011   5.979  19.232  2.5722  0.4850 -0.8286
 3638TIP3   OH235108   6.594   6.523  20.906  0.1268 -0.0270  0.0075
 3638TIP3    H135109   6.565   6.477  20.827  1.9636 -0.1296 -0.6705
 3638TIP3    H235110   6.688   6.504  20.911  0.2172  0.7268  1.7269
 3639TIP3   OH235111   3.565   6.158  21.011 -0.8258 -0.0999  0.0121
 3639TIP3    H135112   3.651   6.136  21.046  0.0126  1.1706 -1.1497
 3639TIP3    H235113   3.534   6.076  20.972 -0.3448 -0.6783  0.8131
 3640TIP3   OH235114   2.049   1.819  17.985 -0.4289  0.3552 -0.3749
 3640TIP3    H135115   1.986   1.814  18.057  0.0488 -1.0288 -0.0149
 3640TIP3    H235116   2.024   1.749  17.926  1.4265 -1.0028  0.3596
 3641TIP3   OH235117   6.448   3.427  18.797 -0.1874  0.2053  0.0118
 3641TIP3    H135118   6.540   3.405  18.782 -0.8445 -1.6442 -1.6299
 3641TIP3    H235119   6.444   3.522  18.785  2.0667  0.9232  3.5968
 3642TIP3   OH235120   1.229   3.521  20.767  0.6294 -0.4137 -0.4128
 3642TIP3    H135121   1.236   3.479  20.852  2.1725  1.6465  0.5930
 3642TIP3    H235122   1.313   3.566  20.756 -0.5830  1.7375 -1.6768
 3643TIP3   OH235123   4.562   6.191  20.714  0.7415  0.4500 -0.2289
 3643TIP3    H135124   4.485   6.218  20.765  1.5846 -0.3666  1.5770
 3643TIP3    H235125   4.530   6.121  20.657  0.1125  0.1994  0.4125
 3644TIP3   OH235126   1.191   6.467  19.010 -0.6008 -0.2983 -0.3314
 3644TIP3    H135127   1.196   6.421  19.094 -1.4233  0.1677 -0.0166
 3644TIP3    H235128   1.249   6.417  18.952 -2.0709 -2.2113 -0.2385
 3645TIP3   OH235129   2.547   2.467  18.284  0.0493  0.5138 -0.1826
 3645TIP3    H135130   2.635   2.430  18.285  1.1294  2.8928 -0.4956
 3645TIP3    H235131   2.550   2.540  18.345 -2.4605 -0.7781  1.6781
 3646TIP3   OH235132   2.377   4.686  18.385 -0.0397  0.1629 -0.7993
 3646TIP3    H135133   2.304   4.660  18.329  0.1808 -0.9565 -0.5900
 3646TIP3    H235134   2.399   4.775  18.356  0.7873 -0.7639 -3.2609
 3647TIP3   OH235135   5.224   5.749  19.010 -0.0052  0.1778  0.0837
 3647TIP3    H135136   5.309   5.770  18.971  0.3466  1.4838  1.4814
 3647TIP3    H235137   5.162   5.807  18.965 -0.1187 -0.4667 -0.6241
 3648TIP3   OH235138   5.710   5.501  19.479 -0.1659 -0.0064 -0.1896
 3648TIP3    H135139   5.633   5.541  19.521 -0.7347 -1.2843  0.0404
 3648TIP3    H235140   5.678   5.471  19.394  0.0674 -0.5827 -0.0756
 3649TIP3   OH235141   2.174   0.443  18.640  0.1169  0.1763  0.8075
 3649TIP3    H135142   2.150   0.531  18.670  0.4454  0.6842 -0.3720
 3649TIP3    H235143   2.250   0.457  18.584  0.2232 -0.8747  0.6824
 3650TIP3   OH235144   5.917   6.022  18.953  0.5096  0.1163 -0.4610
 3650TIP3    H135145   5.948   6.080  18.883  1.4285 -0.8640 -0.9047
 3650TIP3    H235146   5.823   6.037  18.957  0.8183  2.2721  0.0399
 3651TIP3   OH235147   2.387   2.907  18.656  0.0106 -0.2533 -0.2074
 3651TIP3    H135148   2.394   2.838  18.590 -1.0363 -1.9057  1.3086
 3651TIP3    H235149   2.439   2.979  18.621 -0.5319 -1.0241 -2.8221
 3652TIP3   OH235150   5.098   1.280  21.145  0.9581 -0.6322 -0.0145
 3652TIP3    H135151   5.051   1.214  21.196 -1.4895 -0.2042 -1.5517
 3652TIP3    H235152   5.122   1.347  21.209  4.6653 -3.3891  1.8573
 3653TIP3   OH235153   3.267   4.398  20.692 -0.5343 -0.0251  0.0355
 3653TIP3    H135154   3.320   4.333  20.738  0.4888 -0.1211 -1.2008
 3653TIP3    H235155   3.263   4.472  20.753  1.4320  0.1503  0.0453
 3654TIP3   OH235156   2.062   3.268  17.960 -0.5099  0.7904 -0.3808
 3654TIP3    H135157   2.092   3.293  17.872 -1.1119 -0.5536 -0.9817
 3654TIP3    H235158   1.987   3.326  17.977 -1.1249  0.2652 -1.2495
 3655TIP3   OH235159   2.362   3.478  20.915  0.2216 -0.3877  0.2214
 3655TIP3    H135160   2.437   3.537  20.904 -0.5990  0.8865  1.1205
 3655TIP3    H235161   2.399   3.400  20.956  0.8437  0.8728  2.1961
 3656TIP3   OH235162   5.291   3.912  19.825  0.2591  0.1518  0.0013
 3656TIP3    H135163   5.324   3.837  19.875  0.9785  0.2115 -0.3728
 3656TIP3    H235164   5.351   3.919  19.751  0.9687  1.8970  0.7079
 3657TIP3   OH235165   0.783   0.209  21.289  0.3706  0.1550  0.0362
 3657TIP3    H135166   0.800   0.183  21.199  0.1842  0.0373  0.0344
 3657TIP3    H235167   0.774   0.305  21.286  2.7297  0.4409  0.3105
 3658TIP3   OH235168   3.360   0.040  19.358  0.1551 -0.0556  0.1608
 3658TIP3    H135169   3.341  -0.017  19.284  0.9640  1.2582 -1.1188
 3658TIP3    H235170   3.339  -0.013  19.435  1.7715 -2.4025 -0.9051
 3659TIP3   OH235171   2.071   4.893  18.123 -0.6251 -0.1488 -0.1722
 3659TIP3    H135172   2.040   4.942  18.047  2.0211 -0.0566 -1.2871
 3659TIP3    H235173   2.165   4.909  18.125 -0.6703  0.4902  3.6128
 3660TIP3   OH235174   0.370   5.465  20.613  0.1582  0.3574  0.1507
 3660TIP3    H135175   0.395   5.487  20.703  2.8529  0.2150 -0.4840
 3660TIP3    H235176   0.304   5.530  20.590 -0.8164  0.2375  2.2749
 3661TIP3   OH235177   0.945   3.882  17.866  0.8129 -0.0934 -0.4609
 3661TIP3    H135178   0.967   3.842  17.782 -0.1302 -1.2905 -0.1554
 3661TIP3    H235179   0.940   3.976  17.847  2.1603 -0.1738 -1.3835
 3662TIP3   OH235180   2.963   1.590  19.327 -0.3194  0.1027  0.1639
 3662TIP3    H135181   2.957   1.631  19.241 -0.5020  0.0793  0.1647
 3662TIP3    H235182   2.906   1.514  19.322 -1.3006  0.7699  0.6748
 3663TIP3   OH235183   6.024   2.789  20.605  0.2591 -0.3686 -0.4321
 3663TIP3    H135184   5.994   2.868  20.560  0.5827  0.6270  1.0274
 3663TIP3    H235185   5.947   2.759  20.654  1.0794  1.3496  2.1393
 3664TIP3   OH235186   1.407   6.389  18.864  0.5259 -0.0051 -0.6376
 3664TIP3    H135187   1.442   6.325  18.925  2.3838  1.2712 -0.2541
 3664TIP3    H235188   1.460   6.378  18.785  0.3402  0.5247 -0.8410
 3665TIP3   OH235189   0.295   4.024  21.169  0.1773  0.3855 -0.0776
 3665TIP3    H135190   0.386   3.997  21.161  0.1151 -0.1859  0.9711
 3665TIP3    H235191   0.253   3.952  21.217 -0.2470  1.8070  1.7761
 3666TIP3   OH235192   1.326   4.586  17.735 -0.0703  0.1832  0.7434
 3666TIP3    H135193   1.404   4.530  17.730  0.9370  1.3252  2.5886
 3666TIP3    H235194   1.268   4.542  17.797  0.2631  0.6106  1.3745
 3667TIP3   OH235195   6.283   5.357  20.393 -0.1605 -0.8372 -0.2326
 3667TIP3    H135196   6.256   5.389  20.479  0.6812 -0.3970 -0.1221
 3667TIP3    H235197   6.315   5.435  20.348 -0.8173 -1.0176 -1.0417
 3668TIP3   OH235198   2.650   0.112  18.851 -0.4369  0.1941 -0.1458
 3668TIP3    H135199   2.697   0.122  18.934 -0.8287  2.3369 -0.1341
 3668TIP3    H235200   2.561   0.090  18.877 -0.7396  1.5893  0.0648
 3669TIP3   OH235201   3.229   5.852  20.363 -0.2361 -0.4394  0.9696
 3669TIP3    H135202   3.141   5.851  20.400 -0.4438  0.1934  0.5061
 3669TIP3    H235203   3.221   5.798  20.284 -0.1626 -0.5414  1.0336
 3670TIP3   OH235204   5.433   1.641  19.630 -0.2084  0.2789  0.1786
 3670TIP3    H135205   5.504   1.685  19.678 -0.2338  1.6664 -1.0017
 3670TIP3    H235206   5.371   1.710  19.611 -2.5765 -1.1061  2.2641
 3671TIP3   OH235207   1.806   1.628  18.809  0.5058 -0.4124 -0.3161
 3671TIP3    H135208   1.723   1.599  18.846 -0.6236  0.1788 -2.2510
 3671TIP3    H235209   1.813   1.720  18.834 -0.2053 -0.0418 -1.4110
 3672TIP3   OH235210   3.569   5.180  19.665  0.1320  0.1751  0.0447
 3672TIP3    H135211   3.559   5.145  19.576  0.3809 -0.4379  0.2549
 3672TIP3    H235212   3.662   5.205  19.670  0.2806 -0.4231  0.3557
 3673TIP3   OH235213   0.017   6.095  18.322 -0.3073 -0.0146 -0.0785
 3673TIP3    H135214  -0.051   6.035  18.353 -0.5780 -0.2537 -1.0668
 3673TIP3    H235215  -0.004   6.107  18.229  1.6428 -0.9780 -0.7032
 3674TIP3   OH235216   2.149   3.090  19.438 -0.4177 -0.6303  0.3237
 3674TIP3    H135217   2.124   2.998  19.430 -0.0281 -0.6361 -0.9353
 3674TIP3    H235218   2.240   3.088  19.468 -0.3942 -0.6508  0.2510
 3675TIP3   OH235219   1.272   3.073  19.123  0.4450  0.2526  0.0608
 3675TIP3    H135220   1.345   3.033  19.077  0.1548 -0.2948  0.0767
 3675TIP3    H235221   1.196   3.059  19.067 -0.2107 -1.7480  1.3489
 3676TIP3   OH235222   6.019   3.700  20.804  0.2465 -0.0577 -0.6356
 3676TIP3    H135223   6.038   3.792  20.819  1.1571 -0.3363 -0.0107
 3676TIP3    H235224   6.087   3.671  20.743 -0.2115 -0.2524 -1.0636
 3677TIP3   OH235225   6.127   6.434  18.774 -0.0227  0.0534  0.3563
 3677TIP3    H135226   6.144   6.468  18.686 -1.9411 -1.7358 -0.8077
 3677TIP3    H235227   6.034   6.452  18.788 -0.5559 -2.5515  0.5960
 3678TIP3   OH235228   2.729   3.021  18.708  0.1517 -0.0999  0.1001
 3678TIP3    H135229   2.813   3.007  18.665 -0.7680 -1.5704 -1.3275
 3678TIP3    H235230   2.670   3.046  18.637 -1.2078 -1.7371  0.5782
 3679TIP3   OH235231   0.373   0.168  20.026  0.5105 -0.1524  0.3032
 3679TIP3    H135232   0.458   0.133  20.002  1.3468  2.5085 -1.0099
 3679TIP3    H235233   0.393   0.243  20.082 -1.1001 -0.8574  1.9169
 3680TIP3   OH235234   2.691   4.546  18.909  0.8918 -0.0689  0.4889
 3680TIP3    H135235   2.764   4.522  18.966  1.4183  0.0451 -0.1255
 3680TIP3    H235236   2.665   4.464  18.868  0.2616 -0.2179  1.1722
 3681TIP3   OH235237   6.152   4.243  19.141 -1.4579  0.0010  0.3125
 3681TIP3    H135238   6.086   4.208  19.201 -0.8206 -0.2006  0.9127
 3681TIP3    H235239   6.225   4.267  19.198 -1.3953  1.1442 -0.2400
 3682TIP3   OH235240   2.348   1.404  20.312 -0.0781 -0.1730  0.5598
 3682TIP3    H135241   2.415   1.463  20.346  1.1597 -2.0824  1.5825
 3682TIP3    H235242   2.351   1.418  20.217  0.8877  0.6759  0.6949
 3683TIP3   OH235243   3.714   1.971  17.913  0.5588 -0.4824  0.3435
 3683TIP3    H135244   3.663   1.924  17.979 -1.0208  0.7153  0.0475
 3683TIP3    H235245   3.805   1.950  17.933  0.1420 -0.1989  2.8952
 3684TIP3   OH235246   3.926   2.762  18.692  0.0181 -0.3463  0.2118
 3684TIP3    H135247   3.906   2.856  18.685  0.3523 -0.2369  0.7010
 3684TIP3    H235248   3.920   2.730  18.602 -1.1847 -0.0869  0.1826
 3685TIP3   OH235249   4.802   6.204  17.952 -0.0655  0.3197  0.1335
 3685TIP3    H135250   4.735   6.186  18.018 -0.5996  1.9349  0.0614
 3685TIP3    H235251   4.764   6.273  17.897  0.9195 -0.0446 -1.0391
 3686TIP3   OH235252   0.843   2.314  19.897 -0.0824  0.1129  0.0426
 3686TIP3    H135253   0.842   2.373  19.973 -0.1663 -1.2224  1.1389
 3686TIP3    H235254   0.780   2.246  19.921  0.3680 -0.6680 -0.9615
 3687TIP3   OH235255   2.147   0.883  18.504  0.2281 -0.3216  0.5392
 3687TIP3    H135256   2.158   0.978  18.502  0.3503 -0.3284  0.9175
 3687TIP3    H235257   2.055   0.869  18.480  0.1646 -0.0987  0.6553
 3688TIP3   OH235258   4.276   1.331  20.907  0.0938  0.5538  0.4434
 3688TIP3    H135259   4.291   1.419  20.871 -1.0254  1.2402  1.5833
 3688TIP3    H235260   4.359   1.309  20.951  0.8043  0.4949 -0.8623
 3689TIP3   OH235261   2.631   0.109  17.659  0.0490 -0.8278  0.0626
 3689TIP3    H135262   2.603   0.195  17.630 -0.9412 -1.1966 -0.1093
 3689TIP3    H235263   2.551   0.066  17.690  0.0501 -2.5070 -1.9894
 3690TIP3   OH235264   3.829   4.120  18.076  0.6889  0.0516  0.4221
 3690TIP3    H135265   3.757   4.157  18.026  0.2229 -0.8670  0.4069
 3690TIP3    H235266   3.799   4.122  18.167  0.3720 -0.9465  0.3417
 3691TIP3   OH235267   3.677   4.817  20.651 -0.4774  0.2256 -0.4353
 3691TIP3    H135268   3.733   4.886  20.615 -0.2216  0.9357  1.2307
 3691TIP3    H235269   3.727   4.781  20.724 -0.8941 -1.3013 -0.8562
 3692TIP3   OH235270   6.023   1.218  21.180  0.0511 -0.4712  0.2272
 3692TIP3    H135271   6.086   1.262  21.239 -0.5923 -0.6365  1.0567
 3692TIP3    H235272   6.073   1.145  21.143  0.6281 -0.0496  0.1490
 3693TIP3   OH235273   5.998   4.609  20.930  0.6468 -0.3425  0.3786
 3693TIP3    H135274   6.024   4.686  20.981 -1.8362 -0.0068  1.3080
 3693TIP3    H235275   6.025   4.535  20.984  3.0581 -0.2051 -0.5236
 3694TIP3   OH235276   4.731   5.770  18.297  0.3145 -0.1143 -0.4567
 3694TIP3    H135277   4.707   5.718  18.373  1.7972  0.9312  0.7764
 3694TIP3    H235278   4.761   5.706  18.232  0.1616 -0.9229  0.2516
 3695TIP3   OH235279   4.232   2.583  19.377  0.4094 -0.9065  0.0141
 3695TIP3    H135280   4.263   2.627  19.456 -0.0594  1.5711 -1.0956
 3695TIP3    H235281   4.207   2.495  19.407  1.2107 -0.3977  2.3902
 3696TIP3   OH235282   3.873   6.141  19.784 -0.2950  0.4670  0.3308
 3696TIP3    H135283   3.781   6.166  19.797 -0.6508  0.7760 -2.2520
 3696TIP3    H235284   3.923   6.215  19.819 -0.9596  0.0696  2.2467
 3697TIP3   OH235285   2.318   4.733  20.016  0.5078  0.0985  0.0239
 3697TIP3    H135286   2.340   4.655  20.068  0.0243  0.2080  0.4072
 3697TIP3    H235287   2.379   4.800  20.046 -0.2863  0.3867  1.0389
 3698TIP3   OH235288   3.540   4.309  19.458  0.7140  0.0573  0.2970
 3698TIP3    H135289   3.629   4.298  19.426  1.0138 -0.6631  1.3361
 3698TIP3    H235290   3.488   4.326  19.379  1.2840 -2.4142 -0.7003
 3699TIP3   OH235291   2.298   0.296  21.367  0.4856  0.3110 -0.1567
 3699TIP3    H135292   2.327   0.296  21.458  1.6672  1.6385 -0.4953
 3699TIP3    H235293   2.203   0.285  21.372  0.3751  1.5780  1.3108
 3700TIP3   OH235294   2.211   4.038  19.275  0.3096  0.2359 -0.2544
 3700TIP3    H135295   2.280   4.098  19.304  1.2809 -0.6344 -0.7153
 3700TIP3    H235296   2.132   4.070  19.318  1.1760  0.6816  1.0716
 3701TIP3   OH235297   1.951   5.342  21.106  0.2947  0.1908 -0.0544
 3701TIP3    H135298   1.967   5.436  21.106  0.9884  0.0767 -0.6179
 3701TIP3    H235299   2.034   5.303  21.132  0.3709 -0.3163 -1.0269
 3702TIP3   OH235300   1.979   4.451  18.126  0.5477  0.1521 -0.1297
 3702TIP3    H135301   1.967   4.358  18.142  2.1244  0.0967  0.9966
 3702TIP3    H235302   1.893   4.482  18.099 -0.3980 -1.3243  1.0062
 3703TIP3   OH235303   2.100   2.191  20.070  0.1419  0.0042  0.5479
 3703TIP3    H135304   2.011   2.219  20.093 -0.1531 -0.7966  0.4028
 3703TIP3    H235305   2.127   2.136  20.143 -0.0847 -1.0287 -0.1346
 3704TIP3   OH235306   0.073   3.657  20.033  0.5633 -0.4385  0.5572
 3704TIP3    H135307   0.036   3.693  20.114  0.4066 -1.9611  1.1876
 3704TIP3    H235308   0.165   3.641  20.053  0.5472 -0.7282  0.4051
 3705TIP3   OH235309   2.442   0.144  20.778 -0.4181 -0.0199 -0.1490
 3705TIP3    H135310   2.421   0.096  20.698 -0.0188  0.1828 -0.3796
 3705TIP3    H235311   2.466   0.076  20.841  0.5250 -0.1122 -0.5893
 3706TIP3   OH235312   5.794   0.773  18.048  0.1762  0.1870  0.1563
 3706TIP3    H135313   5.737   0.775  18.125  1.8872  0.5814  1.4847
 3706TIP3    H235314   5.847   0.694  18.060  0.4438  0.2399 -0.6313
 3707TIP3   OH235315   5.399   1.900  20.645  0.0459 -0.3292  0.5780
 3707TIP3    H135316   5.449   1.838  20.592  2.2524 -0.3316  2.4801
 3707TIP3    H235317   5.457   1.976  20.653 -1.0321  0.4335  1.4205
 3708TIP3   OH235318   5.763   3.850  19.580  0.0933  0.3878  0.2255
 3708TIP3    H135319   5.693   3.799  19.621 -0.5509  1.5790  0.6675
 3708TIP3    H235320   5.762   3.822  19.488 -0.6069  0.0028  0.3427
 3709TIP3   OH235321   2.538   3.108  18.511 -0.3765  0.0400 -0.0077
 3709TIP3    H135322   2.484   3.186  18.518 -1.1611 -0.4813 -0.1818
 3709TIP3    H235323   2.627   3.142  18.498 -0.1942  0.9600  2.8649
 3710TIP3   OH235324   2.421   5.315  18.369 -0.0279  0.1335  0.0026
 3710TIP3    H135325   2.493   5.358  18.323 -0.2551 -0.7335 -1.2030
 3710TIP3    H235326   2.419   5.357  18.455  3.1032 -1.1008  0.7851
 3711TIP3   OH235327   3.833   2.393  20.943 -0.3489  0.0959 -0.1588
 3711TIP3    H135328   3.792   2.452  21.006  0.3996  2.5398 -1.8040
 3711TIP3    H235329   3.776   2.397  20.866  1.0334  0.7355 -1.1957
 3712TIP3   OH235330   3.371   4.031  17.999  0.4385  0.2927  0.2217
 3712TIP3    H135331   3.282   4.054  17.974  0.4060 -0.0727 -0.0167
 3712TIP3    H235332   3.401   3.973  17.928  1.2295  1.2227 -0.2275
 3713TIP3   OH235333   0.666   2.114  19.889  0.4538 -0.2436 -0.2222
 3713TIP3    H135334   0.602   2.086  19.955  0.2669 -0.8972 -0.6649
 3713TIP3    H235335   0.665   2.044  19.824 -0.0813  0.8343 -1.4227
 3714TIP3   OH235336   2.644   0.272  21.155 -0.1156  0.1083  0.4887
 3714TIP3    H135337   2.698   0.193  21.161 -0.6969 -0.5098 -1.4628
 3714TIP3    H235338   2.561   0.247  21.198 -0.8227 -0.9030 -1.3506
 3715TIP3   OH235339   4.173   1.661  20.973 -0.9272 -0.3358 -0.1655
 3715TIP3    H135340   4.113   1.702  20.910 -0.8015  0.9866  0.5277
 3715TIP3    H235341   4.115   1.626  21.041 -0.9933 -0.4714 -0.2912
 3716TIP3   OH235342   5.034   5.846  19.931  0.2114 -0.6186  0.8581
 3716TIP3    H135343   4.998   5.868  20.017  0.7080 -1.9640  1.4370
 3716TIP3    H235344   5.121   5.884  19.931 -0.3501  0.7391  0.3083
 3717TIP3   OH235345   1.757   6.396  20.976 -0.7200  0.5185  0.0433
 3717TIP3    H135346   1.717   6.344  20.907 -0.5201  1.2703 -0.6607
 3717TIP3    H235347   1.849   6.368  20.977 -0.8109  0.2218  0.2865
 3718TIP3   OH235348   0.346   6.103  19.823  0.2761  0.2829 -0.2370
 3718TIP3    H135349   0.283   6.164  19.785 -2.6122 -1.7727  0.8679
 3718TIP3    H235350   0.333   6.111  19.917  0.5841 -1.2180 -0.0352
 3719TIP3   OH235351   1.249   5.081  19.052 -0.3513 -0.0562  0.3126
 3719TIP3    H135352   1.253   4.993  19.089 -1.0639  0.0468  0.6465
 3719TIP3    H235353   1.184   5.127  19.106  1.2874  1.2241  1.3020
 3720TIP3   OH235354   1.267   3.043  20.195 -0.4274 -0.4743 -0.1091
 3720TIP3    H135355   1.245   3.128  20.235 -2.5197 -0.9820 -0.0840
 3720TIP3    H235356   1.221   2.979  20.249  0.7215 -1.6127 -0.4321
 3721TIP3   OH235357   6.046   3.571  17.587  0.0031 -0.4405  0.1476
 3721TIP3    H135358   6.048   3.561  17.491  0.9494 -0.1339  0.1285
 3721TIP3    H235359   6.011   3.658  17.601  0.1262 -0.3793  0.0733
 3722TIP3   OH235360   1.921   4.262  19.961  0.0878 -0.0154 -0.5100
 3722TIP3    H135361   1.898   4.231  20.048  1.5845  1.0070  0.2969
 3722TIP3    H235362   1.837   4.287  19.921 -0.5136  0.7632  1.1527
 3723TIP3   OH235363   0.313   1.631  19.078  0.1854 -0.4607 -0.3050
 3723TIP3    H135364   0.298   1.725  19.076 -0.1376 -0.5178 -0.4952
 3723TIP3    H235365   0.406   1.622  19.103  0.2337 -0.0953 -0.3573
 3724TIP3   OH235366   0.815   0.865  19.497  0.5319 -0.7227  0.4504
 3724TIP3    H135367   0.892   0.905  19.456  0.3465 -0.7023  0.1190
 3724TIP3    H235368   0.768   0.938  19.537  0.3337 -0.6444  0.0756
 3725TIP3   OH235369   0.620   1.260  18.841  0.5108 -0.2687 -0.1399
 3725TIP3    H135370   0.535   1.280  18.801  0.3750 -0.2305  0.1627
 3725TIP3    H235371   0.650   1.181  18.795 -0.2136 -0.9379  0.5077
 3726TIP3   OH235372   5.117   2.571  19.523  0.0107 -0.1565  0.0778
 3726TIP3    H135373   5.061   2.616  19.460 -1.0603  0.2550  1.2781
 3726TIP3    H235374   5.177   2.639  19.554  0.0284 -0.1644  0.0609
 3727TIP3   OH235375   4.932   2.020  18.018  0.0297  0.8437 -0.0363
 3727TIP3    H135376   4.864   2.047  17.957 -0.4631 -1.4459 -0.5822
 3727TIP3    H235377   4.897   1.942  18.061  1.9726  0.0706  0.2705
 3728TIP3   OH235378   4.285   4.420  20.032  0.2432 -0.3636  0.0234
 3728TIP3    H135379   4.338   4.433  20.110  0.5645 -1.2485 -0.0326
 3728TIP3    H235380   4.307   4.331  20.002  0.5453  0.1551 -1.3854
 3729TIP3   OH235381   3.100   5.528  18.981 -0.5529  0.0814 -0.4731
 3729TIP3    H135382   3.155   5.603  18.959 -1.2895  1.0213  0.7126
 3729TIP3    H235383   3.158   5.452  18.974 -0.2646  0.4806 -3.5923
 3730TIP3   OH235384   4.745   2.827  19.877 -0.4165 -0.0229  0.0188
 3730TIP3    H135385   4.737   2.766  19.950 -0.4346 -0.5849 -0.4486
 3730TIP3    H235386   4.714   2.778  19.801 -0.8785  0.7228 -0.2879
 3731TIP3   OH235387   3.862   2.470  20.087  1.1403 -0.3418 -0.8149
 3731TIP3    H135388   3.812   2.439  20.011 -0.6593 -1.6776  0.8321
 3731TIP3    H235389   3.804   2.533  20.129  1.3837 -0.8928  0.3782
 3732TIP3   OH235390   6.192   0.812  18.216 -0.0951  0.0521 -0.2583
 3732TIP3    H135391   6.161   0.761  18.291 -2.2628 -0.0895 -1.1512
 3732TIP3    H235392   6.213   0.745  18.150 -0.8637  0.2159 -0.6873
 3733TIP3   OH235393   6.298   4.782  18.623 -0.1536  0.4377  0.0968
 3733TIP3    H135394   6.256   4.820  18.700  1.0917  0.7281  0.6651
 3733TIP3    H235395   6.371   4.732  18.659  0.5929  0.7747 -0.9138
 3734TIP3   OH235396   3.620   3.089  20.063  0.0941 -0.2172  0.2512
 3734TIP3    H135397   3.557   3.145  20.109 -0.9888 -1.8364  0.8415
 3734TIP3    H235398   3.674   3.052  20.132  0.2637 -0.5353 -0.0513
 3735TIP3   OH235399   1.037   5.513  19.791  0.4391  0.7936  0.3717
 3735TIP3    H135400   1.019   5.567  19.867 -0.8199  1.3465 -0.2759
 3735TIP3    H235401   0.950   5.492  19.756  0.8190 -2.0209  0.8288
 3736TIP3   OH235402   3.388   0.890  20.701 -0.1466 -0.2938 -0.0116
 3736TIP3    H135403   3.303   0.928  20.676  0.0194 -0.0227 -0.1746
 3736TIP3    H235404   3.375   0.860  20.791 -0.0860  0.7602  0.3575
 3737TIP3   OH235405   5.142   0.397  20.687  0.0819  0.1938  0.3056
 3737TIP3    H135406   5.078   0.431  20.624 -0.2471 -0.6964  0.1397
 3737TIP3    H235407   5.089   0.348  20.750  0.5515 -0.1098  0.4700
 3738TIP3   OH235408   6.088   4.057  19.949 -0.2329  0.2817 -0.0410
 3738TIP3    H135409   6.164   4.027  19.899 -1.2909 -0.8081 -1.0671
 3738TIP3    H235410   6.013   4.030  19.897 -1.4125 -0.7300  2.0287
 3739TIP3   OH235411   6.479   1.837  18.449 -0.4746  0.1901  0.1692
 3739TIP3    H135412   6.385   1.844  18.467 -0.6387  1.1895 -0.9475
 3739TIP3    H235413   6.515   1.795  18.527 -1.7757  0.2446  0.8305
 3740TIP3   OH235414   6.244   0.586  19.936  0.0499  0.1721  0.7431
 3740TIP3    H135415   6.252   0.670  19.891 -0.3335 -1.0562 -1.7570
 3740TIP3    H235416   6.168   0.596  19.992 -0.3022  1.3322  0.0873
 3741TIP3   OH235417   6.503   4.095  20.570  0.3755 -0.1936  0.3349
 3741TIP3    H135418   6.598   4.082  20.570  0.0267 -3.8368 -1.5926
 3741TIP3    H235419   6.476   4.073  20.659  1.1691 -1.2533  0.3338
 3742TIP3   OH235420   4.310   4.919  18.438  0.3962  0.1493  0.2985
 3742TIP3    H135421   4.397   4.897  18.404  0.1555  1.4748 -1.3238
 3742TIP3    H235422   4.273   4.977  18.372 -2.3779 -1.6367  0.1125
 3743TIP3   OH235423   5.156   2.498  17.056 -0.1353 -0.5276  0.2452
 3743TIP3    H135424   5.184   2.586  17.082 -0.3742 -1.0242  2.3734
 3743TIP3    H235425   5.085   2.514  16.994  0.5015  0.7552 -0.2120
 3744TIP3   OH235426   4.043   1.267  19.897 -0.1463 -0.1311 -0.3952
 3744TIP3    H135427   4.059   1.180  19.934 -0.2826  0.4879  1.2160
 3744TIP3    H235428   4.087   1.265  19.812  2.1304 -0.9432  0.7165
 3745TIP3   OH235429   4.555   1.289  20.993 -0.4124 -0.2237 -0.4504
 3745TIP3    H135430   4.559   1.372  21.041 -2.2471 -0.3832  0.0784
 3745TIP3    H235431   4.616   1.300  20.920  1.3374  0.5891  1.0617
 3746TIP3   OH235432   4.114   0.737  18.402  0.5097  0.3408 -0.3398
 3746TIP3    H135433   4.026   0.705  18.382  1.3262 -2.1587 -0.2231
 3746TIP3    H235434   4.151   0.760  18.317  0.3358 -0.2758 -0.5882
 3747TIP3   OH235435   0.856   0.459  20.644  0.4179 -0.2005  0.1558
 3747TIP3    H135436   0.833   0.417  20.727 -1.8582 -0.4744 -0.5519
 3747TIP3    H235437   0.946   0.430  20.627  0.0521 -2.2168  1.2829
 3748TIP3   OH235438   4.776   1.601  20.250  0.1940 -0.0464 -0.4392
 3748TIP3    H135439   4.751   1.688  20.283 -0.0460 -0.8089  1.4917
 3748TIP3    H235440   4.820   1.619  20.167 -1.0587  1.8202 -0.7656
 3749TIP3   OH235441   5.859   1.624  18.837 -0.0653  0.4479 -0.3724
 3749TIP3    H135442   5.945   1.633  18.878 -0.2519 -1.8163  0.6470
 3749TIP3    H235443   5.801   1.600  18.908 -1.1665  0.1060 -1.3592
 3750TIP3   OH235444   4.650   4.366  19.410  0.0125  0.3681  0.2504
 3750TIP3    H135445   4.636   4.461  19.405  1.6421  0.6388 -0.0116
 3750TIP3    H235446   4.704   4.354  19.489  0.7471 -0.1967 -0.3237
 3751TIP3   OH235447   2.610   1.440  19.913  0.5040 -0.2218  0.1394
 3751TIP3    H135448   2.672   1.508  19.886  0.2695 -0.0608 -0.0024
 3751TIP3    H235449   2.584   1.396  19.832 -1.5177  1.3923 -0.1871
 3752TIP3   OH235450   0.289   0.520  17.534  0.3733 -0.0551  0.4921
 3752TIP3    H135451   0.286   0.615  17.522  2.0364 -0.0882 -0.3853
 3752TIP3    H235452   0.235   0.504  17.612 -2.5491  1.2563 -1.1080
 3753TIP3   OH235453   4.104   6.237  20.819 -0.8051 -0.5030 -0.1139
 3753TIP3    H135454   4.034   6.247  20.754  1.1389  0.6310 -2.1716
 3753TIP3    H235455   4.069   6.277  20.899 -3.1160 -1.5501 -0.5370
 3754TIP3   OH235456   4.399   4.875  19.602  0.2781 -0.3371 -0.8680
 3754TIP3    H135457   4.389   4.864  19.507 -3.5472 -1.0053 -0.5607
 3754TIP3    H235458   4.387   4.787  19.638 -1.2720  0.2986  0.3054
 3755TIP3   OH235459   6.196   3.874  19.501 -0.5132 -0.3659  0.3466
 3755TIP3    H135460   6.134   3.874  19.427  1.3979  0.6400 -1.3434
 3755TIP3    H235461   6.217   3.781  19.513 -1.3079 -0.5999  0.0455
 3756TIP3   OH235462   2.375   1.078  20.549 -0.2531  0.0973  0.3760
 3756TIP3    H135463   2.301   1.139  20.547 -0.3916  0.3239  4.0752
 3756TIP3    H235464   2.349   1.012  20.614  3.1445  0.8692  2.7552
 3757TIP3   OH235465   6.319   0.018  18.816 -0.0507  0.4268  0.1522
 3757TIP3    H135466   6.234  -0.024  18.805 -0.2742  1.0910 -0.7680
 3757TIP3    H235467   6.382  -0.053  18.821 -0.7400 -0.1251  1.8146
 3758TIP3   OH235468   1.260   1.079  21.140 -0.1569  0.5148  0.3016
 3758TIP3    H135469   1.206   1.083  21.061  0.7248  2.4516 -0.2617
 3758TIP3    H235470   1.200   1.052  21.209 -1.5527  1.3742 -0.5324
 3759TIP3   OH235471   1.213   3.942  20.041  0.1570  0.0323  0.1486
 3759TIP3    H135472   1.280   3.887  20.082  0.4271  0.7517  0.7003
 3759TIP3    H235473   1.206   4.018  20.099 -1.1410 -0.0289  0.0960
 3760TIP3   OH235474   1.407   3.719  19.832  0.5313 -0.2086  0.1326
 3760TIP3    H135475   1.384   3.675  19.751  0.7418  0.6612 -0.4157
 3760TIP3    H235476   1.450   3.652  19.885 -1.3692 -1.3165  0.3477
 3761TIP3   OH235477   1.598   1.766  20.953 -0.0707 -0.1262  0.0876
 3761TIP3    H135478   1.656   1.812  20.891 -0.0651 -0.8532 -0.4606
 3761TIP3    H235479   1.512   1.768  20.911 -0.5229  1.1780  1.0205
 3762TIP3   OH235480   6.419   0.322  20.694  0.4690  0.3450 -0.1145
 3762TIP3    H135481   6.344   0.362  20.739  0.5240  0.4024 -0.0742
 3762TIP3    H235482   6.382   0.285  20.614  0.1249 -0.9014  0.5854
 3763TIP3   OH235483   3.263   1.837  19.282 -0.5116 -0.2894 -0.4260
 3763TIP3    H135484   3.242   1.873  19.368 -0.0715  0.2249 -0.5262
 3763TIP3    H235485   3.294   1.748  19.299 -0.7595 -0.3117 -0.0891
 3764TIP3   OH235486   5.046   5.899  18.186 -0.1235 -0.4205 -0.7652
 3764TIP3    H135487   5.053   5.952  18.266 -0.6245 -1.0945 -0.2694
 3764TIP3    H235488   5.025   5.811  18.217  0.0373 -0.7694 -1.6246
 3765TIP3   OH235489   4.320   0.878  18.153 -0.3440 -0.0194 -0.3477
 3765TIP3    H135490   4.316   0.798  18.099 -1.7258 -0.6125  0.5731
 3765TIP3    H235491   4.254   0.936  18.114 -0.1786  0.2000 -0.3001
 3766TIP3   OH235492   1.813   1.348  20.125 -0.5032  0.5981  0.4313
 3766TIP3    H135493   1.880   1.417  20.117  0.1988 -0.2992 -2.7154
 3766TIP3    H235494   1.743   1.376  20.067 -0.2022 -1.2740 -0.9156
 3767TIP3   OH235495   5.023   0.623  18.553  0.4032 -0.1617  0.5432
 3767TIP3    H135496   5.003   0.665  18.637 -1.5997  1.9461 -0.8942
 3767TIP3    H235497   4.943   0.633  18.502  1.9037 -0.4896 -1.9969
 3768TIP3   OH235498   1.968   0.412  20.553 -0.2973  0.0268 -0.2300
 3768TIP3    H135499   2.052   0.368  20.570  1.6188  4.1101  2.4404
 3768TIP3    H235500   1.954   0.402  20.459  2.5876 -1.7634 -0.5938
 3769TIP3   OH235501   0.881   5.946  19.930 -0.2577 -0.2033  0.5992
 3769TIP3    H135502   0.833   5.972  19.852  0.4091 -2.3317 -0.5931
 3769TIP3    H235503   0.853   6.008  19.998 -1.8649  0.8554 -0.9698
 3770TIP3   OH235504   1.925   1.414  21.333  0.1121 -0.2501 -0.5600
 3770TIP3    H135505   1.881   1.338  21.371 -1.4773  0.1107 -1.5625
 3770TIP3    H235506   1.990   1.440  21.398 -2.7603  0.6466  2.2394
 3771TIP3   OH235507   2.910   5.748  20.261 -0.3009 -0.2432  0.3085
 3771TIP3    H135508   2.977   5.770  20.326  0.2694  0.2765 -0.4379
 3771TIP3    H235509   2.951   5.679  20.208 -0.5709 -0.3178  0.1985
 3772TIP3   OH235510   3.358   4.208  18.305  0.1484  0.1796 -0.5054
 3772TIP3    H135511   3.322   4.260  18.376 -0.5428  1.2709 -1.6360
 3772TIP3    H235512   3.383   4.125  18.347  0.8447  1.2135  1.2271
 3773TIP3   OH235513   4.653   0.015  19.634 -0.3259  0.3140  0.0032
 3773TIP3    H135514   4.657  -0.055  19.568  0.7904  1.3418 -1.0722
 3773TIP3    H235515   4.665  -0.030  19.717 -1.2318 -0.9586 -0.5276
 3774TIP3   OH235516   5.895   5.394  21.324 -0.0005 -0.7091 -0.2924
 3774TIP3    H135517   5.861   5.393  21.414  0.0835 -0.2067 -0.2503
 3774TIP3    H235518   5.961   5.325  21.322  0.2982 -0.4375  0.1542
 3775TIP3   OH235519   5.049   2.153  20.014 -0.2937  0.2393  0.1671
 3775TIP3    H135520   5.075   2.103  20.092  0.3207 -0.2714 -0.3625
 3775TIP3    H235521   5.075   2.243  20.034  1.9472 -0.2397 -0.3466
 3776TIP3   OH235522   0.033   6.208  18.579  0.0508  0.4768  0.2673
 3776TIP3    H135523  -0.004   6.137  18.632  1.2064 -0.2873  0.1119
 3776TIP3    H235524   0.057   6.166  18.496 -1.1092  1.5112 -0.6321
 3777TIP3   OH235525   4.305   1.207  21.314 -0.4517  0.0778 -0.1256
 3777TIP3    H135526   4.380   1.154  21.287 -0.2554  0.0133  0.5186
 3777TIP3    H235527   4.242   1.142  21.347  0.1536  0.2815  1.5271
 3778TIP3   OH235528   2.451   6.541  21.446 -0.4604  0.2233 -0.1654
 3778TIP3    H135529   2.371   6.489  21.447 -3.4047  4.1593 -1.9019
 3778TIP3    H235530   2.448   6.592  21.527  0.3439  0.3734 -0.2194
 3779TIP3   OH235531   2.968   1.005  18.982 -0.1714 -0.2572  0.3344
 3779TIP3    H135532   2.953   0.913  18.958  0.9195 -0.1772 -0.7411
 3779TIP3    H235533   2.885   1.049  18.961 -1.1259 -1.1478  1.9419
 3780TIP3   OH235534   0.338   6.108  18.246  0.0708  0.3314  0.1132
 3780TIP3    H135535   0.345   6.120  18.151 -0.3508  2.0046  0.2718
 3780TIP3    H235536   0.244   6.103  18.263  0.1039  1.0682  0.5478
 3781TIP3   OH235537   4.170   2.164  20.138 -0.5639 -0.1532 -0.2130
 3781TIP3    H135538   4.091   2.114  20.160  0.0379 -1.2317 -0.4043
 3781TIP3    H235539   4.240   2.121  20.187 -0.2063  1.3089  0.6261
 3782TIP3   OH235540   2.184   3.339  18.206 -0.2964  0.3239  0.2497
 3782TIP3    H135541   2.132   3.311  18.130  0.0812  2.6434 -0.9369
 3782TIP3    H235542   2.134   3.411  18.245 -0.6012 -0.9616  2.4214
 3783TIP3   OH235543   3.426   5.825  21.156 -0.1603  0.2092  0.4088
 3783TIP3    H135544   3.400   5.745  21.110  1.9753 -0.3828  0.0988
 3783TIP3    H235545   3.350   5.883  21.149 -1.0849 -1.0906 -1.0085
 3784TIP3   OH235546   6.368   0.909  20.842 -0.1774  0.2326 -0.1462
 3784TIP3    H135547   6.297   0.857  20.879  0.0723 -0.8021 -1.0833
 3784TIP3    H235548   6.357   0.995  20.882 -1.8354  0.0448 -0.1159
 3785TIP3   OH235549   1.573   2.128  21.249  0.6102  0.2415  0.0675
 3785TIP3    H135550   1.581   2.222  21.264  1.7311  0.0398  0.8193
 3785TIP3    H235551   1.606   2.087  21.329  1.1943 -0.7969 -0.6698
 3786TIP3   OH235552   5.752   4.414  21.058  0.3556  0.8247  0.4647
 3786TIP3    H135553   5.847   4.414  21.067  0.4161  0.8511 -0.1295
 3786TIP3    H235554   5.727   4.506  21.069  0.5635  1.0705 -0.8729
 3787TIP3   OH235555   1.117   0.467  19.251 -0.5946  0.0727  0.4286
 3787TIP3    H135556   1.064   0.431  19.322 -0.9561 -0.3576 -0.0534
 3787TIP3    H235557   1.197   0.498  19.294 -0.6913 -0.4396  0.9808
 3788TIP3   OH235558   1.963   0.035  20.943 -0.2466 -0.1324  0.3463
 3788TIP3    H135559   1.946   0.064  21.032 -0.3138 -0.9692  0.6124
 3788TIP3    H235560   2.046  -0.011  20.947  0.4004  0.9178 -0.2853
 3789TIP3   OH235561   0.970   0.355  19.472 -0.0131  0.0247 -0.1070
 3789TIP3    H135562   0.957   0.416  19.544 -2.0139 -0.5412  0.0597
 3789TIP3    H235563   0.885   0.313  19.460  0.1669  0.3234 -3.0143
 3790TIP3   OH235564   0.165   1.550  20.668 -0.2168  0.4401 -0.5574
 3790TIP3    H135565   0.096   1.514  20.613  0.3957 -0.0297 -1.0361
 3790TIP3    H235566   0.154   1.506  20.753  1.0061 -1.5750 -1.3548
 3791TIP3   OH235567   2.154   5.143  19.380  0.0724 -0.3290  0.1712
 3791TIP3    H135568   2.181   5.051  19.388 -1.1123 -0.5642  2.1672
 3791TIP3    H235569   2.234   5.189  19.354  0.4469 -2.0268 -2.0608
 3792TIP3   OH235570   1.492   3.152  20.908 -0.3501 -0.5161 -0.2008
 3792TIP3    H135571   1.565   3.168  20.967 -0.2931 -0.0672 -0.3895
 3792TIP3    H235572   1.521   3.186  20.823 -1.2370  0.8397 -0.0029
 3793TIP3   OH235573   5.328   4.870  18.559 -0.2370  0.0182 -0.0091
 3793TIP3    H135574   5.353   4.927  18.485 -1.7562  0.5252 -0.1736
 3793TIP3    H235575   5.385   4.898  18.631  1.3669 -0.5724 -0.9909
 3794TIP3   OH235576   1.523   4.558  20.984  0.1965  0.3626  0.5428
 3794TIP3    H135577   1.613   4.573  21.014  0.2867  0.5323  0.1990
 3794TIP3    H235578   1.492   4.484  21.037  0.5602  0.2645  0.6243
 3795TIP3   OH235579   3.106   4.240  21.374 -0.0479 -0.3137 -0.6814
 3795TIP3    H135580   3.089   4.213  21.465 -0.5248  1.7558 -0.1017
 3795TIP3    H235581   3.032   4.205  21.324 -1.2597  0.8528  0.2350
 3796TIP3   OH235582   3.213   2.565  19.630 -0.2893 -0.4068 -0.0979
 3796TIP3    H135583   3.210   2.469  19.625  0.7490 -0.5122  0.8586
 3796TIP3    H235584   3.186   2.594  19.543  0.3250 -1.5983 -0.7163
 3797TIP3   OH235585   0.705   2.761  20.275 -0.7065 -0.9505 -0.1143
 3797TIP3    H135586   0.734   2.675  20.304  3.3505  0.1355 -0.3851
 3797TIP3    H235587   0.708   2.757  20.179  1.2418 -0.0881 -0.1305
 3798TIP3   OH235588   0.211   0.390  20.907 -0.4821 -0.1445  0.0380
 3798TIP3    H135589   0.144   0.321  20.899 -1.5537  0.8571  0.0413
 3798TIP3    H235590   0.280   0.350  20.959 -0.6036 -1.5583 -0.8345
 3799TIP3   OH235591   0.567   2.634  21.678 -0.1043 -0.1443  0.8414
 3799TIP3    H135592   0.572   2.730  21.672  0.7112 -0.2011  0.6073
 3799TIP3    H235593   0.495   2.611  21.619  0.9377  0.1823 -0.6303
 3800TIP3   OH235594   1.919   5.323  20.082  0.2665  0.0921  0.3484
 3800TIP3    H135595   1.968   5.363  20.011  1.4319 -0.6821  0.6977
 3800TIP3    H235596   1.867   5.254  20.040  1.3222 -0.6932  0.2870
 3801TIP3   OH235597   1.783   6.201  20.383 -0.1753 -0.2644 -0.2891
 3801TIP3    H135598   1.808   6.251  20.305  0.3750 -0.6112 -0.3384
 3801TIP3    H235599   1.734   6.126  20.348  2.3074 -1.8822 -0.5638
 3802TIP3   OH235600   2.677   1.925  20.131 -0.3607  0.7990 -0.6867
 3802TIP3    H135601   2.649   1.845  20.177 -3.4457  2.2751  0.3064
 3802TIP3    H235602   2.643   1.914  20.042  0.3232  0.4805 -0.9095
 3803TIP3   OH235603   6.160   6.405  21.174  0.1045 -0.0893 -0.2586
 3803TIP3    H135604   6.219   6.351  21.122 -0.3949  1.5300 -2.6477
 3803TIP3    H235605   6.206   6.489  21.184 -1.1682  0.7264 -0.9677
 3804TIP3   OH235606   1.901   6.188  20.652 -0.4455 -0.4887  0.0779
 3804TIP3    H135607   1.924   6.102  20.619  0.1384  0.1914 -1.4086
 3804TIP3    H235608   1.900   6.244  20.574  1.3488  1.2961  1.2290
 3805TIP3   OH235609   6.607   5.441  18.108 -0.6448 -0.3299 -0.3404
 3805TIP3    H135610   6.512   5.443  18.115 -0.5657  2.2216  1.2721
 3805TIP3    H235611   6.629   5.515  18.052  0.4310  0.8183  1.4826
 3806TIP3   OH235612   3.451   1.849  18.933 -0.5539 -0.2099 -0.1681
 3806TIP3    H135613   3.528   1.801  18.963 -2.2315 -2.8016  0.3592
 3806TIP3    H235614   3.472   1.941  18.949  2.5930 -0.7323 -0.5642
 3807TIP3   OH235615   5.634   5.008  19.645  0.4597 -0.1552 -0.8543
 3807TIP3    H135616   5.662   4.933  19.592  0.1550 -1.5676  0.8783
 3807TIP3    H235617   5.715   5.057  19.661  1.1983 -1.6668  0.2776
 3808TIP3   OH235618   1.127   2.567  18.517  0.4295 -0.1146 -0.0552
 3808TIP3    H135619   1.189   2.589  18.447 -0.5626  1.8256 -0.4129
 3808TIP3    H235620   1.181   2.531  18.587  2.5210  4.0219  0.7681
 3809TIP3   OH235621   5.353   4.700  19.115  0.1281  0.0171  0.1196
 3809TIP3    H135622   5.389   4.786  19.095 -0.2200 -0.0067 -0.6591
 3809TIP3    H235623   5.427   4.641  19.110 -0.0016 -0.0534 -1.6053
 3810TIP3   OH235624   3.264   3.077  17.972 -0.2856 -0.9066 -0.3738
 3810TIP3    H135625   3.341   3.130  17.993 -1.0816  0.2515 -0.3251
 3810TIP3    H235626   3.282   3.044  17.884 -0.2896  0.3932 -0.8725
 3811TIP3   OH235627   6.198   1.381  21.311 -0.3152 -0.0391  0.0956
 3811TIP3    H135628   6.157   1.446  21.368 -0.2519 -0.0061  0.1047
 3811TIP3    H235629   6.247   1.324  21.371 -0.9417 -0.5179  0.1583
 3812TIP3   OH235630   0.463   4.417  20.820  0.3970  0.2307  0.4551
 3812TIP3    H135631   0.440   4.507  20.799 -3.4662 -0.6135  0.2767
 3812TIP3    H235632   0.473   4.416  20.915 -3.2935  0.3726  1.0166
 3813TIP3   OH235633   4.875   4.119  21.341  0.3360  0.3061 -0.1909
 3813TIP3    H135634   4.858   4.212  21.357  2.1616  0.8860 -1.3292
 3813TIP3    H235635   4.798   4.089  21.292  0.2985  1.5585 -0.9578
 3814TIP3   OH235636   5.140   4.369  17.637  0.0897  0.3387  0.3473
 3814TIP3    H135637   5.088   4.442  17.671 -1.0647  0.3590 -1.3447
 3814TIP3    H235638   5.079   4.294  17.639  0.6786 -0.1470  0.3420
 3815TIP3   OH235639   3.116   2.643  18.113  0.4070 -0.6135 -0.3200
 3815TIP3    H135640   3.209   2.621  18.105  0.3716 -0.3918 -1.5630
 3815TIP3    H235641   3.087   2.596  18.191  1.7387 -0.0235  0.5630
 3816TIP3   OH235642   1.083   3.076  20.748 -0.1732 -0.3568 -0.0469
 3816TIP3    H135643   1.117   3.124  20.824 -2.1073  0.5356  0.3111
 3816TIP3    H235644   1.116   3.126  20.673 -0.9139  0.7054  0.2986
 3817TIP3   OH235645   6.472   2.222  19.659 -0.1447 -0.3657  0.2373
 3817TIP3    H135646   6.475   2.261  19.746  0.6788  1.0275 -0.3906
 3817TIP3    H235647   6.379   2.223  19.635 -0.2278  0.4459  0.5743
 3818TIP3   OH235648   0.119   4.897  20.491 -0.3441  0.4603 -0.2275
 3818TIP3    H135649   0.094   4.834  20.424 -1.1766  2.1126 -1.5616
 3818TIP3    H235650   0.120   4.847  20.572 -0.6068 -1.3247 -1.2665
 3819TIP3   OH235651   3.937   0.605  18.763 -0.1058 -0.0222 -0.1692
 3819TIP3    H135652   3.990   0.525  18.763 -0.8701 -0.5800  2.0981
 3819TIP3    H235653   3.854   0.579  18.802 -0.0255  2.0737  1.5814
 3820TIP3   OH235654   2.675   2.053  19.775 -0.3100  0.0817 -0.3396
 3820TIP3    H135655   2.590   2.012  19.791 -0.2762  0.8222  2.1848
 3820TIP3    H235656   2.656   2.128  19.719 -1.8874  1.9501  2.4873
 3821TIP3   OH235657   5.687   4.088  20.114  0.2696  0.0048 -0.1261
 3821TIP3    H135658   5.637   4.091  20.196 -1.0559 -0.3104 -0.9060
 3821TIP3    H235659   5.657   4.163  20.064 -1.5541 -1.7247 -1.7702
 3822TIP3   OH235660   3.177   2.214  18.638  0.0229  0.3398  0.3414
 3822TIP3    H135661   3.216   2.299  18.618 -0.0160  0.3550  0.3284
 3822TIP3    H235662   3.206   2.195  18.728  0.9735 -0.1708 -0.0598
 3823TIP3   OH235663   0.244   0.745  21.419  0.3995  0.5374 -0.3140
 3823TIP3    H135664   0.326   0.793  21.426  1.8700 -1.8990  0.7942
 3823TIP3    H235665   0.231   0.708  21.507 -1.2093 -0.1542 -0.8140
 3824TIP3   OH235666   3.427   6.557  19.640 -0.0910  0.3924 -0.1656
 3824TIP3    H135667   3.500   6.607  19.677 -0.2043  2.6492 -2.6567
 3824TIP3    H235668   3.469   6.489  19.588  0.1486  0.0437  0.4726
 3825TIP3   OH235669   4.981   1.897  19.917  0.0965 -0.6606 -0.7431
 3825TIP3    H135670   4.986   1.987  19.886  0.5113 -0.8316 -1.1797
 3825TIP3    H235671   5.067   1.880  19.956 -0.4638 -0.3955  0.6865
 3826TIP3   OH235672   4.732   5.594  20.432 -0.0743 -0.0666 -0.1638
 3826TIP3    H135673   4.747   5.539  20.509 -0.5342 -0.1500 -0.1292
 3826TIP3    H235674   4.656   5.554  20.389 -0.4840  0.6054 -0.0758
 3827TIP3   OH235675   6.416   2.316  18.408  0.4862  0.3316  0.3889
 3827TIP3    H135676   6.479   2.244  18.402 -1.8810 -1.9970  1.5210
 3827TIP3    H235677   6.342   2.287  18.355 -0.8693  1.5476  1.5387
 3828TIP3   OH235678   1.025   5.983  20.516  0.1564 -0.7851 -0.0135
 3828TIP3    H135679   1.028   5.889  20.498  0.3342 -0.6891 -0.4934
 3828TIP3    H235680   0.936   6.009  20.491  0.1091 -0.8248  0.1117
 3829TIP3   OH235681   5.843   5.745  20.134  0.2113 -0.5598  0.7070
 3829TIP3    H135682   5.897   5.697  20.196  1.9585  0.6707  0.2128
 3829TIP3    H235683   5.891   5.741  20.051 -0.5000  0.4632  0.2185
 3830TIP3   OH235684   3.089   2.811  17.101 -0.1003 -0.5916  0.0765
 3830TIP3    H135685   3.136   2.893  17.116 -1.9709  0.5393  0.0688
 3830TIP3    H235686   3.153   2.743  17.120  1.0238  0.8417  1.7706
 3831TIP3   OH235687   5.010   1.502  20.020  0.2557 -0.2607  0.2299
 3831TIP3    H135688   5.041   1.543  19.939 -0.1252  0.0713  0.2511
 3831TIP3    H235689   5.069   1.535  20.087  1.5829 -1.7646 -0.1306
 3832TIP3   OH235690   2.345   1.591  19.552  0.2440  0.1564 -0.3438
 3832TIP3    H135691   2.435   1.618  19.538  1.6486 -3.1810  1.0174
 3832TIP3    H235692   2.315   1.644  19.625  1.7294  0.2470  0.2418
 3833TIP3   OH235693   2.408   2.762  18.418  0.4108  0.5375 -0.5847
 3833TIP3    H135694   2.324   2.729  18.386 -0.0195  0.2978  0.7329
 3833TIP3    H235695   2.441   2.817  18.346 -0.6413  0.2634 -1.3050
 3834TIP3   OH235696   0.726   6.075  19.382  0.0091  0.4043  0.4843
 3834TIP3    H135697   0.768   6.073  19.296  0.1622 -1.3139  0.5551
 3834TIP3    H235698   0.658   6.141  19.374 -0.0901  0.1631 -1.0147
 3835TIP3   OH235699   0.217   1.962  19.620  0.6100  0.0248 -0.5486
 3835TIP3    H135700   0.283   1.901  19.585  0.3540 -1.4775  1.3928
 3835TIP3    H235701   0.182   1.917  19.697 -0.3548  2.2219  0.3673
 3836TIP3   OH235702   3.787   0.011  19.401 -0.0519  0.0408 -0.1749
 3836TIP3    H135703   3.710   0.069  19.401  1.0779  1.6130  0.5587
 3836TIP3    H235704   3.793  -0.020  19.311 -1.3125  0.2092 -0.3370
 3837TIP3   OH235705   5.597   5.939  18.677  0.2325 -0.0836  0.3072
 3837TIP3    H135706   5.602   5.915  18.585  1.0005 -0.7327  0.5144
 3837TIP3    H235707   5.660   6.010  18.687  1.7210 -1.4128  0.7543
 3838TIP3   OH235708   5.342   5.609  18.151 -0.1130  0.1585  0.1497
 3838TIP3    H135709   5.407   5.658  18.102 -1.1690  2.8042  1.1718
 3838TIP3    H235710   5.386   5.584  18.232  0.5825 -1.0904 -0.5876
 3839TIP3   OH235711   3.793   1.629  20.976  0.0175  0.3233  0.3197
 3839TIP3    H135712   3.800   1.687  20.900 -1.8632  0.5149  0.2387
 3839TIP3    H235713   3.882   1.598  20.991  0.9663  2.6190 -0.1149
 3840TIP3   OH235714   0.460   0.903  18.083  0.6523  0.2844  0.9854
 3840TIP3    H135715   0.366   0.884  18.079  0.6722  0.1556  1.1262
 3840TIP3    H235716   0.468   0.992  18.048  0.4015  0.5509  1.5994
 3841TIP3   OH235717   3.972   3.560  19.909 -0.2379  0.2106 -0.7232
 3841TIP3    H135718   4.015   3.624  19.854 -1.9449  0.8092 -1.4391
 3841TIP3    H235719   3.927   3.502  19.847  0.4741 -1.1084 -0.0537
 3842TIP3   OH235720   2.246   2.851  20.938  0.0963  0.1621 -0.3069
 3842TIP3    H135721   2.237   2.875  20.846 -1.5935 -1.5212 -0.6215
 3842TIP3    H235722   2.311   2.780  20.939 -1.5453 -1.4099 -0.5470
 3843TIP3   OH235723   2.680   6.469  21.279 -0.1867 -0.8347 -0.0508
 3843TIP3    H135724   2.612   6.482  21.345 -0.2060 -1.0342 -0.0302
 3843TIP3    H235725   2.762   6.490  21.323 -0.2120 -0.8391 -0.0006
 3844TIP3   OH235726   1.563   6.578  19.653  0.2300 -0.7713 -0.3122
 3844TIP3    H135727   1.565   6.526  19.573 -1.6940 -1.4769  0.0215
 3844TIP3    H235728   1.601   6.662  19.629  0.7202 -1.3564 -1.6624
 3845TIP3   OH235729   1.924   2.361  19.905  0.3634 -0.5293 -0.6161
 3845TIP3    H135730   1.977   2.406  19.971  1.5972 -2.1809 -0.3980
 3845TIP3    H235731   1.872   2.430  19.864  1.2674  0.8775  0.5109
 3846TIP3   OH235732   5.148   6.065  20.259  0.7153  0.0145  0.3742
 3846TIP3    H135733   5.213   5.995  20.258  1.1757  0.4313 -1.5527
 3846TIP3    H235734   5.176   6.126  20.191 -0.4720  1.3503  1.0217
 3847TIP3   OH235735   2.300   1.857  19.934  0.1151  0.0509  0.1599
 3847TIP3    H135736   2.389   1.822  19.925  0.9467  2.0404  0.1045
 3847TIP3    H235737   2.243   1.787  19.902  1.8656  0.0219 -3.4098
 3848TIP3   OH235738   5.828   1.106  20.189 -0.1190  0.1727 -0.1410
 3848TIP3    H135739   5.920   1.078  20.190 -0.1310  0.1298  0.7689
 3848TIP3    H235740   5.831   1.195  20.152  0.4152  0.5460  0.7648
 3849TIP3   OH235741   1.452   2.080  17.649  0.2636  0.3070 -0.0685
 3849TIP3    H135742   1.369   2.126  17.633 -0.2410 -0.5249  0.0749
 3849TIP3    H235743   1.472   2.038  17.566  0.2282  0.0245  0.0640
 3850TIP3   OH235744   1.282   0.867  18.539 -0.1425  0.0364 -0.0367
 3850TIP3    H135745   1.252   0.957  18.529  0.1373  0.5453  2.7905
 3850TIP3    H235746   1.377   0.873  18.544 -0.0649 -0.5363 -0.6635
 3851TIP3   OH235747   5.102   2.587  17.577 -0.3394 -0.9998  0.0880
 3851TIP3    H135748   5.151   2.505  17.573 -0.4326 -1.0337 -0.4505
 3851TIP3    H235749   5.055   2.591  17.493  0.1310 -0.1028 -0.1470
 3852TIP3   OH235750   4.867   0.815  18.822  0.3213 -0.1345 -0.1416
 3852TIP3    H135751   4.916   0.782  18.897  2.4235  0.6321 -1.0894
 3852TIP3    H235752   4.922   0.885  18.786 -1.6338  0.9808 -1.1403
 3853TIP3   OH235753   1.436   3.311  19.160 -0.3687  0.3369  0.2607
 3853TIP3    H135754   1.376   3.236  19.150  0.6976 -0.4863 -0.1650
 3853TIP3    H235755   1.393   3.381  19.111 -0.8469 -0.3213 -0.2996
 3854TIP3   OH235756   6.572   5.119  18.799  0.2367  0.0757  0.6195
 3854TIP3    H135757   6.543   5.130  18.889  1.4830  0.8366  0.9512
 3854TIP3    H235758   6.617   5.201  18.777 -1.0116  0.3711 -1.0825
 3855TIP3   OH235759   0.422   1.904  21.171  0.2029 -0.4091 -0.5503
 3855TIP3    H135760   0.337   1.942  21.147 -0.2826 -0.4701  0.9142
 3855TIP3    H235761   0.414   1.812  21.148 -1.1721 -0.9978  1.8875
 3856TIP3   OH235762   1.421   3.476  18.451  0.0053 -0.4571  0.8224
 3856TIP3    H135763   1.359   3.477  18.378  0.2630  1.1552  0.5811
 3856TIP3    H235764   1.507   3.468  18.409  0.0534 -1.6363  1.0984
 3857TIP3   OH235765   4.013   3.531  18.441  0.3749  0.0747 -0.4983
 3857TIP3    H135766   3.971   3.542  18.356  0.7821  0.5672 -0.6373
 3857TIP3    H235767   3.994   3.611  18.488 -2.8387 -1.5156  1.2310
 3858TIP3   OH235768   3.725   0.248  18.398 -0.2397 -0.2368  0.2789
 3858TIP3    H135769   3.764   0.193  18.330  2.0271  0.4856  0.9254
 3858TIP3    H235770   3.784   0.241  18.472 -1.2350  1.1159  1.2496
 3859TIP3   OH235771   2.608   0.070  18.459 -0.4870  0.3114 -0.1670
 3859TIP3    H135772   2.577  -0.018  18.440 -0.0739  0.1279  0.0047
 3859TIP3    H235773   2.643   0.101  18.375  0.1064  0.0070 -0.0364
 3860TIP3   OH235774   5.819   3.273  20.672  0.0139  0.1958  0.3761
 3860TIP3    H135775   5.911   3.249  20.675  0.6836  2.6230  0.9742
 3860TIP3    H235776   5.801   3.291  20.580  0.3550  0.4867  0.3678
 3861TIP3   OH235777   3.349   4.895  18.980 -0.2543  0.5986 -0.1096
 3861TIP3    H135778   3.421   4.955  18.960 -0.1227  0.0842 -1.3136
 3861TIP3    H235779   3.275   4.952  19.000  0.6310  1.1364  1.8063
 3862TIP3   OH235780   0.893   4.029  17.545  0.3392 -0.6995  0.4120
 3862TIP3    H135781   0.960   4.027  17.476  0.7978 -1.3508  0.8615
 3862TIP3    H235782   0.932   4.084  17.614 -0.1680  0.0527  0.1212
 3863TIP3   OH235783   1.411   0.943  20.745 -0.3353 -0.1093 -0.1035
 3863TIP3    H135784   1.488   0.904  20.786 -1.3774 -0.2296  1.8520
 3863TIP3    H235785   1.425   1.037  20.751  0.2065 -0.1279 -0.8995
 3864TIP3   OH235786   4.226   5.222  17.531 -0.3661 -0.1721  0.0710
 3864TIP3    H135787   4.217   5.303  17.481 -1.0579 -0.0422  0.3944
 3864TIP3    H235788   4.310   5.230  17.576  0.8628 -0.8035 -1.9796
 3865TIP3   OH235789   3.072   3.331  19.227  0.3166 -0.2060  0.0135
 3865TIP3    H135790   3.092   3.423  19.240  0.4897 -0.3861  1.1650
 3865TIP3    H235791   3.007   3.329  19.158 -0.2142  0.8281  0.4734
 3866TIP3   OH235792   2.246   5.258  17.966  0.3201 -0.4236  0.2387
 3866TIP3    H135793   2.213   5.329  17.911 -1.7595 -0.0506  1.8277
 3866TIP3    H235794   2.235   5.290  18.055 -1.0855 -2.8529  1.0324
 3867TIP3   OH235795   1.638   0.929  17.833 -0.3077 -0.2126  0.1150
 3867TIP3    H135796   1.627   0.985  17.756 -1.2416 -0.8372 -0.2223
 3867TIP3    H235797   1.558   0.877  17.836  0.4016 -1.2954  0.6195
 3868TIP3   OH235798   3.280   3.276  18.860 -0.4871  0.3479  0.2298
 3868TIP3    H135799   3.256   3.369  18.867 -0.9606  0.1532  1.1861
 3868TIP3    H235800   3.257   3.253  18.770 -3.2490  0.3506  0.8699
 3869TIP3   OH235801   1.957   1.169  18.709 -0.2061  0.1761  0.6092
 3869TIP3    H135802   1.944   1.242  18.769 -2.2939  0.2094  0.2013
 3869TIP3    H235803   1.950   1.090  18.764 -0.9005  0.2332  0.6093
 3870TIP3   OH235804   2.776   2.908  20.885  0.2632  0.7125 -0.3001
 3870TIP3    H135805   2.840   2.923  20.954 -0.3305  0.6708  0.2808
 3870TIP3    H235806   2.744   2.995  20.863  1.4115  0.8536 -1.4859
 3871TIP3   OH235807   6.508   2.050  21.107 -0.3846 -0.0474 -0.6004
 3871TIP3    H135808   6.441   2.095  21.159  0.2358 -0.5292  0.6712
 3871TIP3    H235809   6.460   2.009  21.036 -1.5714 -0.9642  0.6730
 3872TIP3   OH235810   3.588   4.189  17.957  0.1511  0.0294 -0.0789
 3872TIP3    H135811   3.509   4.134  17.963  1.5065 -1.9983  0.2814
 3872TIP3    H235812   3.610   4.189  17.864  0.1172  0.0342 -0.0865
 3873TIP3   OH235813   4.542   3.574  18.632  0.3263 -0.2063 -0.0332
 3873TIP3    H135814   4.536   3.668  18.616  0.5481 -0.3498 -1.0902
 3873TIP3    H235815   4.492   3.534  18.560 -0.3995 -0.8775  0.8251
 3874TIP3   OH235816   2.248   0.466  20.472 -0.2640 -0.0767 -0.4353
 3874TIP3    H135817   2.272   0.557  20.456  2.7986 -0.2694  2.0426
 3874TIP3    H235818   2.268   0.421  20.390  1.0311  1.0537 -0.7746
 3875TIP3   OH235819   1.685   5.895  21.015 -0.0069 -0.1405  0.1677
 3875TIP3    H135820   1.653   5.985  21.018  2.6829  0.9510 -0.5094
 3875TIP3    H235821   1.654   5.861  20.930  0.7901  0.9528 -0.5883
 3876TIP3   OH235822   3.006   6.151  19.413  0.3257 -0.4167 -0.4445
 3876TIP3    H135823   3.031   6.147  19.321  0.8019  0.3268 -0.3625
 3876TIP3    H235824   3.060   6.085  19.456 -1.1966 -2.0522 -0.9498
 3877TIP3   OH235825   5.236   5.132  20.851 -0.2266  0.3964  0.3035
 3877TIP3    H135826   5.144   5.105  20.846  0.1292 -0.9169  0.6781
 3877TIP3    H235827   5.239   5.214  20.801 -1.6012  0.4640  0.2913
 3878TIP3   OH235828   4.560   1.055  19.602  0.0645  0.7941 -0.0341
 3878TIP3    H135829   4.500   1.055  19.528  1.2533 -1.7578 -1.1294
 3878TIP3    H235830   4.641   1.092  19.567  0.4744  0.0466  0.0932
 3879TIP3   OH235831   4.442   6.390  19.715 -0.5167  0.2309  0.7739
 3879TIP3    H135832   4.422   6.450  19.642  1.8792  0.0943 -0.0977
 3879TIP3    H235833   4.362   6.340  19.727 -1.1934  0.6536 -1.4131
 3880TIP3   OH235834   3.274   2.132  19.304 -0.0398  0.2266  0.2394
 3880TIP3    H135835   3.242   2.088  19.225  0.8197 -0.2441  0.1419
 3880TIP3    H235836   3.268   2.066  19.372 -0.5791  0.5677  0.5267
 3881TIP3   OH235837   0.598   3.270  20.955  0.2688  0.5955 -0.2583
 3881TIP3    H135838   0.513   3.265  21.000 -0.0430  0.5738 -0.8363
 3881TIP3    H235839   0.576   3.265  20.862  0.8676  1.0842 -0.4321
 3882TIP3   OH235840   3.439   1.186  19.775 -0.1785 -0.3235  0.3656
 3882TIP3    H135841   3.417   1.273  19.742 -0.6175 -0.7797 -0.6164
 3882TIP3    H235842   3.450   1.197  19.869 -0.7747  0.6861  0.3302
 3883TIP3   OH235843   6.167   0.647  18.999  0.2546 -0.1454 -0.1313
 3883TIP3    H135844   6.238   0.634  18.935  1.0479 -0.2147  0.7417
 3883TIP3    H235845   6.212   0.655  19.083 -0.8642 -1.5202  0.6359
 3884TIP3   OH235846   0.131   5.354  18.763 -0.2318 -0.2816  0.0062
 3884TIP3    H135847   0.163   5.358  18.854  1.7449  3.1171 -0.6717
 3884TIP3    H235848   0.184   5.285  18.723  0.5862 -0.1713  0.8561
 3885TIP3   OH235849   4.775   5.491  19.208  0.0675 -0.3914 -0.0246
 3885TIP3    H135850   4.737   5.409  19.240  0.3498 -0.4989  0.0491
 3885TIP3    H235851   4.749   5.496  19.116  0.1060 -0.6017 -0.0473
 3886TIP3   OH235852   2.127   0.336  20.773  0.8214  0.2014  0.1959
 3886TIP3    H135853   2.087   0.394  20.838  1.5222 -1.6062  2.3496
 3886TIP3    H235854   2.214   0.372  20.759  0.4490  0.9595 -0.2915
 3887TIP3   OH235855   0.113   1.301  21.138  0.4114 -0.1874  0.7606
 3887TIP3    H135856   0.203   1.284  21.109  0.1507 -1.2684  0.5422
 3887TIP3    H235857   0.068   1.217  21.127 -0.4258  0.1337  1.6114
 3888TIP3   OH235858   3.162   5.979  17.711 -0.2132 -0.6552  0.0167
 3888TIP3    H135859   3.211   6.057  17.736 -0.7618 -0.6366  1.0761
 3888TIP3    H235860   3.222   5.930  17.654  0.1719  0.4634 -0.5703
 3889TIP3   OH235861   6.069   3.041  20.448  0.2480  0.4814  0.2260
 3889TIP3    H135862   6.016   3.044  20.368 -0.0091  2.4273  0.4215
 3889TIP3    H235863   6.159   3.035  20.417  0.0993  0.3592 -0.1906
 3890TIP3   OH235864   1.396   2.832  20.385 -0.1800 -0.8105 -0.0791
 3890TIP3    H135865   1.473   2.867  20.340 -0.2902 -0.5475 -0.0648
 3890TIP3    H235866   1.388   2.885  20.465 -1.7443  0.7598 -1.2005
 3891TIP3   OH235867   0.848   5.825  20.681 -0.2928  0.0969  0.0583
 3891TIP3    H135868   0.834   5.915  20.654 -1.3606 -0.2154 -0.5024
 3891TIP3    H235869   0.867   5.778  20.600  0.1665 -0.2028  0.3339
 3892TIP3   OH235870   3.909   5.680  19.047  0.8029 -0.6387  0.0209
 3892TIP3    H135871   3.840   5.745  19.043  0.9912 -0.5162 -2.1877
 3892TIP3    H235872   3.984   5.722  19.005  0.7300 -2.4471 -2.0816
 3893TIP3   OH235873   2.340   0.719  20.503 -0.8612 -0.0168 -0.3542
 3893TIP3    H135874   2.373   0.785  20.442 -1.9290  1.3818  0.5282
 3893TIP3    H235875   2.378   0.743  20.588 -2.6743  0.5937  0.3327
 3894TIP3   OH235876   0.066   1.202  18.364 -0.3253  0.4738  0.1858
 3894TIP3    H135877   0.154   1.239  18.365  0.0546 -0.4197  0.7901
 3894TIP3    H235878   0.008   1.276  18.381  0.4493  0.7251  1.9555
 3895TIP3   OH235879   2.597   4.503  20.427  0.4192 -0.4651  0.0236
 3895TIP3    H135880   2.616   4.446  20.352  0.6405  0.0966 -0.3543
 3895TIP3    H235881   2.677   4.502  20.479 -0.5287 -2.8680  1.6383
 3896TIP3   OH235882   1.832   0.475  21.100  0.2047  0.1465  0.7806
 3896TIP3    H135883   1.815   0.555  21.149  0.8190  0.4666  0.4693
 3896TIP3    H235884   1.745   0.447  21.070  0.0020  0.7764  0.7601
 3897TIP3   OH235885   4.244   5.215  20.318  0.1266  0.0395  0.3260
 3897TIP3    H135886   4.334   5.207  20.286 -0.4853 -1.0889 -1.2538
 3897TIP3    H235887   4.249   5.277  20.390  2.4265 -1.1314  1.2724
 3898TIP3   OH235888   1.655   5.118  18.545  0.2910  0.1461  0.6433
 3898TIP3    H135889   1.714   5.087  18.614  2.0803  0.6656 -0.5739
 3898TIP3    H235890   1.664   5.214  18.547 -0.3157  0.2169  0.2649
 3899TIP3   OH235891   0.181   1.428  19.893 -0.3543  0.8455  0.0277
 3899TIP3    H135892   0.145   1.358  19.838  0.7880  0.1304  0.1614
 3899TIP3    H235893   0.243   1.474  19.836  0.4835  0.4001  0.5643
 3900TIP3   OH235894   3.057   1.836  19.792  0.2141  0.1191  0.0775
 3900TIP3    H135895   2.999   1.896  19.839 -1.1061  0.4328 -1.8610
 3900TIP3    H235896   3.010   1.814  19.712  0.7495 -3.3285  0.5633
 3901TIP3   OH235897   0.150   1.994  21.064  0.1483  0.5501 -0.7106
 3901TIP3    H135898   0.089   2.051  21.111  1.7441  1.1000  0.8436
 3901TIP3    H235899   0.141   2.019  20.972 -1.8459  0.6663 -0.5203
 3902TIP3   OH235900   5.847   2.536  21.078  0.1568 -0.5038 -0.6230
 3902TIP3    H135901   5.784   2.549  21.149 -0.5754 -2.6980 -0.7968
 3902TIP3    H235902   5.861   2.441  21.075 -0.1694 -0.5650 -3.6517
 3903TIP3   OH235903   0.660   1.104  17.825  0.6752  0.3208 -0.4541
 3903TIP3    H135904   0.679   1.192  17.791  0.6344  0.3002 -0.5314
 3903TIP3    H235905   0.603   1.118  17.900 -0.6936  0.2781 -1.4423
 3904TIP3   OH235906   4.910   1.507  19.216  0.2989  0.0729 -0.3195
 3904TIP3    H135907   4.975   1.551  19.161 -0.4865  0.1839 -1.1885
 3904TIP3    H235908   4.959   1.476  19.292  1.7967 -1.6416 -1.8895
 3905TIP3   OH235909   4.761   1.960  18.592  0.0823  0.2922 -0.2249
 3905TIP3    H135910   4.731   2.014  18.666 -0.5676 -0.0481 -0.2388
 3905TIP3    H235911   4.857   1.962  18.599  0.0851  1.6162 -0.3420
 3906TIP3   OH235912   6.294   4.303  20.664 -0.3887 -0.4328 -0.0379
 3906TIP3    H135913   6.303   4.392  20.699 -0.2343 -0.2253 -0.5954
 3906TIP3    H235914   6.380   4.281  20.630 -0.1267 -1.2431  1.1090
 3907TIP3   OH235915   1.508   2.923  18.486 -0.0199 -0.5179 -0.3153
 3907TIP3    H135916   1.480   2.905  18.396  0.5607 -1.6728 -0.2732
 3907TIP3    H235917   1.426   2.940  18.533 -0.8026 -4.2246 -0.0942
 3908TIP3   OH235918   5.323   1.347  18.138 -0.6790 -0.0642 -0.4491
 3908TIP3    H135919   5.240   1.301  18.151 -1.3957  1.1033 -0.7023
 3908TIP3    H235920   5.354   1.317  18.053  0.1185 -1.9028  0.4414
 3909TIP3   OH235921   2.193   5.935  18.872  0.3506  0.2459 -0.6750
 3909TIP3    H135922   2.235   5.883  18.803  0.3909 -0.2885 -0.2525
 3909TIP3    H235923   2.170   5.871  18.939 -0.1299  0.6973 -0.4064
 3910TIP3   OH235924   1.385   1.509  20.006  0.5769  0.3327 -0.2462
 3910TIP3    H135925   1.476   1.535  20.019  0.8214  0.0799 -1.3490
 3910TIP3    H235926   1.373   1.434  20.063  0.7437  0.9896  0.6837
 3911TIP3   OH235927   0.675   0.410  20.415 -0.4833  0.4901  0.6367
 3911TIP3    H135928   0.645   0.345  20.479  1.9484 -2.8250 -1.2625
 3911TIP3    H235929   0.751   0.450  20.455  0.5525 -0.9976  0.2434
 3912TIP3   OH235930   0.799   2.149  21.357 -0.2554  0.5170 -0.0570
 3912TIP3    H135931   0.886   2.117  21.333 -0.0295 -1.9279  3.2098
 3912TIP3    H235932   0.741   2.112  21.291  0.7920 -1.5792  0.0956
 3913TIP3   OH235933   1.630   5.304  18.236  0.7380  0.2964 -0.3286
 3913TIP3    H135934   1.557   5.253  18.201  0.3756  0.3883  0.2870
 3913TIP3    H235935   1.707   5.268  18.192  0.6123 -1.4906  0.8037
 3914TIP3   OH235936   3.993   3.773  17.587  0.2682  0.4646  0.1030
 3914TIP3    H135937   4.038   3.858  17.581  0.4726  0.4492  1.1021
 3914TIP3    H235938   3.904   3.796  17.615  0.3599  0.3562  0.4990
 3915TIP3   OH235939   0.010   4.577  18.919  0.3606 -0.7778 -0.0186
 3915TIP3    H135940   0.009   4.671  18.902  0.0803 -1.2507 -3.3885
 3915TIP3    H235941  -0.057   4.542  18.861  2.0355 -3.2569 -0.6333
 3916TIP3   OH235942   1.014   1.533  17.824 -0.4826 -0.0471  0.1859
 3916TIP3    H135943   1.088   1.592  17.838 -0.6738  0.6426 -1.4708
 3916TIP3    H235944   1.047   1.469  17.760 -0.9851 -0.3652  0.2463
 3917TIP3   OH235945   2.028   5.285  19.176 -0.0803 -0.8076  0.0520
 3917TIP3    H135946   1.945   5.326  19.198  0.9039  0.9964  0.6042
 3917TIP3    H235947   2.048   5.229  19.251 -0.5154 -0.8095  0.1715
 3918TIP3   OH235948   4.391   3.221  19.078 -0.8323 -0.0910  0.6079
 3918TIP3    H135949   4.373   3.140  19.030 -0.0957 -0.7851  1.4906
 3918TIP3    H235950   4.468   3.202  19.131 -1.1033  0.9502  1.4115
 3919TIP3   OH235951   3.072   4.877  21.156 -0.2527  0.6620  0.4826
 3919TIP3    H135952   3.136   4.902  21.222 -0.4935  1.2347  0.5009
 3919TIP3    H235953   3.046   4.788  21.180  0.1776  0.6106  0.7538
 3920TIP3   OH235954   0.944   1.362  20.372 -0.0004 -0.4821  0.8527
 3920TIP3    H135955   0.891   1.316  20.306 -0.9094 -0.1585  1.3294
 3920TIP3    H235956   0.896   1.445  20.386  0.8057 -0.0501  1.0827
 3921TIP3   OH235957   4.682   2.809  20.338  0.3316 -0.2994  0.4829
 3921TIP3    H135958   4.749   2.810  20.407 -0.3664 -0.6218  1.1715
 3921TIP3    H235959   4.600   2.796  20.384 -0.4522  1.9699 -0.1597
 3922TIP3   OH235960   1.919   4.754  19.376 -0.5783 -0.2552  0.2867
 3922TIP3    H135961   2.001   4.795  19.347 -0.4588 -0.7947 -0.1498
 3922TIP3    H235962   1.851   4.807  19.335 -0.4544  0.1659  0.6089
 3923TIP3   OH235963   5.728   5.384  19.928  0.1265  0.2853  0.2579
 3923TIP3    H135964   5.702   5.439  20.001 -2.3494 -0.3796 -0.0278
 3923TIP3    H235965   5.753   5.301  19.968  0.3929  0.4513  0.4388
 3924TIP3   OH235966   1.439   2.496  21.729  0.5208 -0.1874 -0.4965
 3924TIP3    H135967   1.360   2.479  21.780  0.1201  1.7495 -0.3997
 3924TIP3    H235968   1.408   2.521  21.642  0.9757  1.0061 -0.3385
 3925TIP3   OH235969   2.159   1.147  18.538 -0.0426 -0.3080  0.2811
 3925TIP3    H135970   2.079   1.133  18.588 -0.6153  0.2438 -0.4474
 3925TIP3    H235971   2.133   1.208  18.468  0.8055 -0.7852 -0.4700
 3926TIP3   OH235972   4.653   2.461  17.556  0.2812  0.2990  0.5848
 3926TIP3    H135973   4.657   2.491  17.465 -0.6519  1.7601  0.9845
 3926TIP3    H235974   4.740   2.481  17.592  0.8133 -0.7265 -0.0920
 3927TIP3   OH235975   4.834   3.683  19.951  0.7314 -0.2350  0.4423
 3927TIP3    H135976   4.846   3.771  19.987 -2.3380  0.4922 -0.0566
 3927TIP3    H235977   4.886   3.683  19.870  1.5146  0.7640  0.9204
 3928TIP3   OH235978   2.126   6.427  18.291  0.5047  0.2787 -0.1009
 3928TIP3    H135979   2.192   6.448  18.224  0.3863 -1.6174 -0.8685
 3928TIP3    H235980   2.173   6.371  18.353 -0.2832 -0.8301 -0.4860
 3929TIP3   OH235981   1.809   1.228  20.870 -0.2415 -0.3336  0.1378
 3929TIP3    H135982   1.787   1.158  20.808 -1.3899  1.3293 -1.4238
 3929TIP3    H235983   1.752   1.300  20.846 -0.4713  0.5501  2.9270
 3930TIP3   OH235984   3.833   1.588  19.235 -0.0270  0.1077  0.4175
 3930TIP3    H135985   3.873   1.549  19.157 -1.5009 -0.5192 -0.0436
 3930TIP3    H235986   3.768   1.524  19.264 -1.3854  1.5139  0.5786
 3931TIP3   OH235987   6.238   3.140  19.182 -0.7995  0.0355 -0.3901
 3931TIP3    H135988   6.194   3.058  19.203 -2.7004  1.0292 -0.3397
 3931TIP3    H235989   6.215   3.198  19.254  0.6777  0.5945 -0.3296
 3932TIP3   OH235990   4.286   6.065  17.428 -0.3175  0.6166  0.7865
 3932TIP3    H135991   4.216   6.001  17.440 -1.1058  1.5613  1.4331
 3932TIP3    H235992   4.359   6.031  17.479  0.5478 -1.5437 -1.6989
 3933TIP3   OH235993   0.121   2.655  19.398  0.4323  0.0556  0.1106
 3933TIP3    H135994   0.058   2.690  19.460  0.3294  0.0434  0.0132
 3933TIP3    H235995   0.198   2.633  19.451  2.2371  4.3315 -0.3163
 3934TIP3   OH235996   3.828   1.475  20.199  0.0976  0.5184  0.2496
 3934TIP3    H135997   3.915   1.482  20.160  1.1452 -1.6751  2.0194
 3934TIP3    H235998   3.810   1.381  20.201 -2.1310  0.9007  0.3705
 3935TIP3   OH235999   0.869   2.999  20.305  0.3848 -0.6377 -0.3736
 3935TIP3    H136000   0.807   3.068  20.282  1.0449 -0.5210 -1.8870
 3935TIP3    H236001   0.820   2.917  20.293 -0.0528 -0.4914  0.3397
 3936TIP3   OH236002   4.652   3.572  19.154 -0.1048  0.5418 -0.0517
 3936TIP3    H136003   4.635   3.557  19.061  1.9213  1.0463 -0.5459
 3936TIP3    H236004   4.738   3.534  19.169 -1.4370 -1.8594  2.2747
 3937TIP3   OH236005   5.932   4.339  19.526  0.3325 -0.4168 -0.1310
 3937TIP3    H136006   6.016   4.293  19.524 -0.3021 -1.8071  1.8633
 3937TIP3    H236007   5.868   4.271  19.544 -0.7949  1.0670  1.8798
 3938TIP3   OH236008   6.110   1.901  17.951  0.2040 -0.6779  0.7310
 3938TIP3    H136009   6.116   1.812  17.986  3.6865 -0.8266  0.1377
 3938TIP3    H236010   6.044   1.895  17.882 -1.7107 -2.0423  2.5682
 3939TIP3   OH236011   3.132   1.260  18.558 -0.2765  0.4358  0.2679
 3939TIP3    H136012   3.198   1.329  18.551  0.6302 -0.3141  1.1753
 3939TIP3    H236013   3.052   1.300  18.525 -0.3393  2.6847  2.8792
 3940TIP3   OH236014   1.737   5.206  21.065  0.3530 -0.1682 -0.2843
 3940TIP3    H136015   1.819   5.242  21.100  0.3272  0.9774 -1.3341
 3940TIP3    H236016   1.698   5.278  21.016 -0.1837 -1.3491 -1.6784
 3941TIP3   OH236017   0.167   1.795  19.867 -0.3320 -0.5467  0.8510
 3941TIP3    H136018   0.102   1.860  19.896 -0.6579 -1.2478  1.7545
 3941TIP3    H236019   0.210   1.767  19.948  1.4917  0.2918  0.2139
 3942TIP3   OH236020   2.453   2.242  18.162 -0.2672  0.2158 -0.3734
 3942TIP3    H136021   2.491   2.321  18.200 -0.3714  0.7052 -1.2655
 3942TIP3    H236022   2.387   2.274  18.100 -0.5055 -0.5753 -0.5396
 3943TIP3   OH236023   5.195   3.287  20.999  1.3271 -0.0454 -0.0274
 3943TIP3    H136024   5.247   3.235  20.938  0.5664  1.7754 -2.4265
 3943TIP3    H236025   5.170   3.365  20.948 -3.0219 -0.3946  1.1812
 3944TIP3   OH236026   4.404   3.037  20.232 -0.4329  0.5534  0.0900
 3944TIP3    H136027   4.431   3.114  20.283  1.1482  0.4159 -0.4712
 3944TIP3    H236028   4.362   3.073  20.155  1.2774  0.9397 -0.7107
 3945TIP3   OH236029   6.190   4.601  18.902 -0.6420  0.2503 -0.2218
 3945TIP3    H136030   6.118   4.552  18.942  1.3305 -1.3284  1.6265
 3945TIP3    H236031   6.245   4.627  18.976  1.4818  0.0867 -1.6523
 3946TIP3   OH236032   3.743   1.818  18.724  0.4086  0.1692  0.1153
 3946TIP3    H136033   3.695   1.793  18.803  0.2936 -0.8336 -0.2470
 3946TIP3    H236034   3.835   1.815  18.750  0.3569  0.1807  0.3008
 3947TIP3   OH236035   3.998   1.991  18.027  0.1003  0.1135  0.0805
 3947TIP3    H136036   4.011   1.984  18.122  1.9240 -2.9695 -0.2500
 3947TIP3    H236037   4.070   1.941  17.989 -1.5598 -0.2858 -2.8871
 3948TIP3   OH236038   0.195   2.648  21.112  0.7523  0.0218  0.2407
 3948TIP3    H136039   0.190   2.573  21.171 -1.0904 -0.1258 -0.0370
 3948TIP3    H236040   0.117   2.640  21.057  0.5543  2.0738  0.1375
 3949TIP3   OH236041   4.094   5.169  18.426  0.1866 -0.2634 -0.5123
 3949TIP3    H136042   4.087   5.265  18.419 -0.3494 -0.2079  0.5544
 3949TIP3    H236043   4.170   5.147  18.372 -1.0859  0.4886 -2.7439
 3950TIP3   OH236044   5.491   2.477  18.776  0.2504  0.2188  0.3250
 3950TIP3    H136045   5.421   2.466  18.841 -0.4350  0.8660 -0.2751
 3950TIP3    H236046   5.451   2.448  18.693  0.5704  0.9269 -0.0853
 3951TIP3   OH236047   0.548   0.878  20.056 -1.1137  0.0828  0.0733
 3951TIP3    H136048   0.580   0.896  20.144  0.8388  1.2328 -0.7968
 3951TIP3    H236049   0.583   0.792  20.035 -0.6120  0.2843  0.0455
 3952TIP3   OH236050   1.277   6.508  19.322  0.7914  0.0094  0.6903
 3952TIP3    H136051   1.289   6.602  19.307 -1.4397 -0.0481 -2.3201
 3952TIP3    H236052   1.222   6.503  19.399  0.2763  1.2429  0.4249
 3953TIP3   OH236053   5.086   2.748  18.585  0.3873  0.3884  0.0846
 3953TIP3    H136054   4.992   2.767  18.591 -0.3387 -2.7426  0.5060
 3953TIP3    H236055   5.127   2.811  18.644 -1.6482  0.8135  1.1398
 3954TIP3   OH236056   3.086   4.086  20.895  0.3374 -0.3162 -0.3587
 3954TIP3    H136057   3.068   4.088  20.989 -0.0790 -1.8614 -0.3785
 3954TIP3    H236058   3.178   4.111  20.888  0.3135  0.0242  0.4341
 3955TIP3   OH236059   3.720   2.068  17.013 -0.3647  0.2773 -0.4723
 3955TIP3    H136060   3.801   2.045  17.059 -0.6695  0.8273  0.3689
 3955TIP3    H236061   3.690   1.986  16.974 -0.0732 -0.1948  0.2812
 3956TIP3   OH236062   1.769   4.768  20.633  0.6201  0.1935 -0.9543
 3956TIP3    H136063   1.803   4.773  20.722  0.7875 -0.4329 -0.9798
 3956TIP3    H236064   1.755   4.859  20.608 -1.6546  0.3294  0.5370
 3957TIP3   OH236065   0.804   0.761  21.208  0.6894 -0.2856 -0.0225
 3957TIP3    H136066   0.736   0.789  21.146  1.2595 -0.8812 -0.9539
 3957TIP3    H236067   0.761   0.763  21.293 -0.8587 -1.6754 -0.7040
 3958TIP3   OH236068   5.736   4.172  18.218  0.1026  0.2323 -0.2472
 3958TIP3    H136069   5.642   4.190  18.222  0.2899  1.0785  1.1413
 3958TIP3    H236070   5.743   4.085  18.179 -1.2836  0.0343 -0.0828
 3959TIP3   OH236071   2.080   0.124  21.504 -0.3006 -0.1277  0.0539
 3959TIP3    H136072   1.991   0.142  21.535 -0.0055 -0.1110  0.9246
 3959TIP3    H236073   2.077   0.034  21.473 -0.3466 -0.5106  1.1393
 3960TIP3   OH236074   4.713   6.411  19.447  0.3063 -0.1899  0.4670
 3960TIP3    H136075   4.683   6.350  19.515  1.1448 -2.5804 -1.1739
 3960TIP3    H236076   4.808   6.397  19.442  0.3560  0.4287 -0.7245
 3961TIP3   OH236077   3.156   4.770  20.173 -0.1239  0.1380  0.2842
 3961TIP3    H136078   3.167   4.825  20.250 -1.4401 -0.0614  0.6383
 3961TIP3    H236079   3.233   4.713  20.173 -0.8060 -0.8806  2.3127
 3962TIP3   OH236080   3.454   0.807  18.150  0.2801 -0.2970  0.4566
 3962TIP3    H136081   3.404   0.726  18.140  0.4183 -0.2218 -1.0873
 3962TIP3    H236082   3.469   0.838  18.060  0.8053  1.0907  0.9833
 3963TIP3   OH236083   3.768   4.218  19.326  0.2484  0.5024  0.2606
 3963TIP3    H136084   3.740   4.203  19.235  0.9681 -4.5281  0.5734
 3963TIP3    H236085   3.862   4.204  19.324  0.5805  2.2753  1.5643
 3964TIP3   OH236086   1.346   0.514  20.942  0.4853  0.3886 -0.3767
 3964TIP3    H136087   1.376   0.581  21.003 -0.0562 -0.9344  1.4381
 3964TIP3    H236088   1.256   0.537  20.922  1.1317  1.7004 -2.0129
 3965TIP3   OH236089   3.403   5.040  19.432  0.1665  0.2882 -0.2036
 3965TIP3    H136090   3.357   4.987  19.498 -0.1184  0.4619 -0.2618
 3965TIP3    H236091   3.428   4.977  19.364  1.2799 -0.0652  0.4940
 3966TIP3   OH236092   5.592   1.373  18.456 -0.0365  0.0282  0.9723
 3966TIP3    H136093   5.521   1.374  18.520  0.7963  1.9775  1.9492
 3966TIP3    H236094   5.637   1.457  18.469  2.2503 -0.9976  0.1932
 3967TIP3   OH236095   3.036   4.360  21.052  0.3634  0.0239  0.0248
 3967TIP3    H136096   2.987   4.282  21.075  0.9217 -0.2678  0.2585
 3967TIP3    H236097   3.127   4.330  21.044  0.2827  0.2214 -2.0646
 3968TIP3   OH236098   1.317   3.087  19.828  0.0777  0.1208 -0.0453
 3968TIP3    H136099   1.319   3.178  19.800 -0.2815 -0.1085 -0.8543
 3968TIP3    H236100   1.235   3.078  19.876  0.7650  0.5517  1.2539
 3969TIP3   OH236101   0.882   4.632  19.623  0.0630 -0.4086  0.2616
 3969TIP3    H136102   0.935   4.555  19.643 -0.2131 -0.7563 -0.3314
 3969TIP3    H236103   0.827   4.605  19.550  1.1403  0.8785 -1.0781
 3970TIP3   OH236104   1.111   6.431  21.500 -0.4884  0.9268 -0.4243
 3970TIP3    H136105   1.133   6.511  21.548  0.4019  0.3235  0.2044
 3970TIP3    H236106   1.158   6.439  21.417 -1.6512  1.7508 -1.0444
 3971TIP3   OH236107   2.046   3.585  19.298 -0.8386 -0.5124 -0.3519
 3971TIP3    H136108   2.104   3.510  19.315 -0.0339 -0.0796 -1.1019
 3971TIP3    H236109   1.958   3.550  19.312 -0.4140 -1.0938  1.1786
 3972TIP3   OH236110   3.288   3.909  18.217  0.2858 -0.1979 -0.7399
 3972TIP3    H136111   3.343   3.968  18.165  0.3418 -0.2635 -0.7560
 3972TIP3    H236112   3.278   3.831  18.162 -1.3351  0.5227 -1.5179
 3973TIP3   OH236113   3.002   0.575  20.140  0.6331  0.1266 -0.6026
 3973TIP3    H136114   3.069   0.643  20.134 -0.2470  1.2449  1.1949
 3973TIP3    H236115   2.947   0.589  20.063  0.9521  0.9271 -0.6949
 3974TIP3   OH236116   2.005   4.219  19.119 -0.6624 -0.4933  0.6469
 3974TIP3    H136117   2.048   4.230  19.204 -0.3954  0.0783  0.4381
 3974TIP3    H236118   1.912   4.212  19.141 -0.5197 -1.2276  1.0577
 3975TIP3   OH236119   6.591   6.235  20.427  0.2641 -0.5189 -0.9332
 3975TIP3    H136120   6.499   6.258  20.430  0.0053 -1.5880 -0.1262
 3975TIP3    H236121   6.615   6.246  20.335 -1.1302 -1.8708 -1.5133
 3976TIP3   OH236122   3.779   5.106  19.053  0.3799 -0.1213 -0.1155
 3976TIP3    H136123   3.827   5.176  19.097  0.5695 -1.4694  1.9588
 3976TIP3    H236124   3.846   5.040  19.034  0.0839 -0.0874 -1.3838
 3977TIP3   OH236125   6.136   0.093  20.492 -0.5099  0.0667 -0.2711
 3977TIP3    H136126   6.180   0.120  20.412 -1.4133  0.9117 -0.5184
 3977TIP3    H236127   6.157   0.163  20.555  0.8374 -0.9844  0.4882
 3978TIP3   OH236128   2.803   4.182  18.503  0.2565  0.2761 -0.9898
 3978TIP3    H136129   2.897   4.195  18.512  0.1934  0.1693 -0.1076
 3978TIP3    H236130   2.764   4.243  18.566 -0.2558  0.2227 -1.2503
 3979TIP3   OH236131   0.646   2.360  18.878 -0.1305 -0.1909  0.1787
 3979TIP3    H136132   0.635   2.325  18.966 -0.4723 -0.0049  0.2148
 3979TIP3    H236133   0.658   2.454  18.891  3.8292 -0.5464  0.3096
 3980TIP3   OH236134   1.042   5.474  18.524  0.3247 -0.0519 -0.5760
 3980TIP3    H136135   1.052   5.567  18.504  0.2627 -0.4492 -2.7664
 3980TIP3    H236136   1.063   5.430  18.441 -1.6111 -1.8673 -0.1927
 3981TIP3   OH236137   2.832   4.423  20.151 -0.0501 -0.1389 -0.2610
 3981TIP3    H136138   2.909   4.472  20.122 -0.7774  0.5150 -1.1338
 3981TIP3    H236139   2.835   4.342  20.100  1.3715 -1.2531  1.4673
 3982TIP3   OH236140   3.682   6.327  19.542  0.2939 -0.3398  0.0089
 3982TIP3    H136141   3.655   6.306  19.452  0.2850 -1.4060  0.2501
 3982TIP3    H236142   3.758   6.384  19.531  1.0733 -1.4572 -0.7075
 3983TIP3   OH236143   4.220   5.257  19.561  0.3313  0.4034 -0.2320
 3983TIP3    H136144   4.196   5.168  19.585  1.0261 -0.0143 -1.0446
 3983TIP3    H236145   4.213   5.259  19.465  0.1579  1.2727 -0.2139
 3984TIP3   OH236146   0.463   6.453  20.781 -0.1007  0.2421  0.4352
 3984TIP3    H136147   0.505   6.462  20.695 -0.0580 -1.5183  0.2216
 3984TIP3    H236148   0.418   6.536  20.795  0.1200  0.6672 -1.1621
 3985TIP3   OH236149   5.030   0.611  19.021  0.3113 -0.3000 -0.0541
 3985TIP3    H136150   5.014   0.625  19.114 -0.4746 -2.8430  0.2425
 3985TIP3    H236151   5.120   0.578  19.017 -0.2736 -2.0007  0.0537
 3986TIP3   OH236152   2.509   4.971  19.998  0.0015 -0.2791 -0.3330
 3986TIP3    H136153   2.526   5.027  19.922 -0.4941  0.9406  0.4216
 3986TIP3    H236154   2.596   4.949  20.032  0.1951  0.9721  0.0105
 3987TIP3   OH236155   5.173   4.173  18.564  0.5192  0.2206 -0.6460
 3987TIP3    H136156   5.180   4.233  18.490 -0.2710  2.6100  1.0739
 3987TIP3    H236157   5.252   4.191  18.616  0.9036 -1.1750 -0.7193
 3988TIP3   OH236158   2.683   2.701  21.463  0.4338  0.2607 -0.1557
 3988TIP3    H136159   2.692   2.705  21.367 -0.9384 -1.9458 -0.4611
 3988TIP3    H236160   2.715   2.613  21.486  1.9168  1.2011  1.6047
 3989TIP3   OH236161   2.169   2.447  18.949 -0.7164  0.2065 -0.3356
 3989TIP3    H136162   2.248   2.399  18.975 -0.7662 -0.6159 -1.6523
 3989TIP3    H236163   2.200   2.536  18.931 -0.5616  0.6473  1.7390
 3990TIP3   OH236164   5.722   3.456  18.810 -0.5263 -0.2881 -0.6186
 3990TIP3    H136165   5.810   3.420  18.807 -0.7461 -0.8482 -0.5446
 3990TIP3    H236166   5.706   3.488  18.721  0.4463  1.5558 -0.1597
 3991TIP3   OH236167   1.688   4.615  19.658 -0.2884 -0.3169  0.2580
 3991TIP3    H136168   1.735   4.699  19.656 -0.7419 -0.0094  1.5439
 3991TIP3    H236169   1.628   4.623  19.732 -0.9015 -1.4894 -0.0896
 3992TIP3   OH236170   6.293   4.659  20.171  0.5143  0.5588 -0.5975
 3992TIP3    H136171   6.285   4.582  20.227 -0.1213  0.9239 -0.1772
 3992TIP3    H236172   6.343   4.721  20.224 -0.4801  1.0723 -0.2432
 3993TIP3   OH236173   5.478   3.184  21.370 -0.2920 -0.1974  0.3997
 3993TIP3    H136174   5.495   3.175  21.276  0.1275  0.3759  0.4118
 3993TIP3    H236175   5.525   3.111  21.410 -1.9384 -1.5213  0.0382
 3994TIP3   OH236176   2.093   1.240  20.075  0.2122  0.4998  0.2837
 3994TIP3    H136177   2.080   1.149  20.103 -0.9860  0.6220  0.1804
 3994TIP3    H236178   2.007   1.280  20.084  0.9670  1.9588  1.4815
 3995TIP3   OH236179   2.792   0.075  21.115 -0.4919  0.0504  0.5250
 3995TIP3    H136180   2.749  -0.007  21.139 -0.5081  0.3107  1.4567
 3995TIP3    H236181   2.875   0.048  21.075 -0.5945 -0.4249  0.6224
 3996TIP3   OH236182   6.010   3.915  21.309 -0.0006  0.7160 -0.4372
 3996TIP3    H136183   5.919   3.931  21.284  0.2388  0.3464 -1.6198
 3996TIP3    H236184   6.005   3.845  21.375 -0.7610  2.7919  1.8451
 3997TIP3   OH236185   5.324   4.315  21.109  0.3835  0.4345 -0.1579
 3997TIP3    H136186   5.354   4.283  21.024  0.4311  1.4763 -0.5476
 3997TIP3    H236187   5.369   4.399  21.120 -1.3577  1.3944 -0.1468
 3998TIP3   OH236188   6.075   2.824  19.804  0.6918  0.3823  0.4863
 3998TIP3    H136189   6.037   2.771  19.734  1.0952  0.2110  0.3971
 3998TIP3    H236190   6.170   2.819  19.790  0.7132  1.9588 -0.1532
 3999TIP3   OH236191   2.791   1.322  20.645 -0.2567 -0.2709  0.1490
 3999TIP3    H136192   2.854   1.250  20.651 -1.5213 -1.3487  1.4727
 3999TIP3    H236193   2.844   1.401  20.636  1.1851 -1.4100 -2.3238
 4000TIP3   OH236194   5.096   1.641  20.238  0.1547  0.2165 -0.5201
 4000TIP3    H136195   5.060   1.564  20.282  2.1033  0.5412  1.7953
 4000TIP3    H236196   5.045   1.714  20.272 -0.1642  0.2125 -0.9695
 4001TIP3   OH236197   1.483   0.466  21.348  0.0125 -0.0129 -0.2382
 4001TIP3    H136198   1.550   0.488  21.282  0.0364  1.6218  0.2940
 4001TIP3    H236199   1.450   0.381  21.320  1.9736 -0.6517 -0.7903
 4002TIP3   OH236200   6.066   5.190  20.359 -0.0476  0.3714  0.1096
 4002TIP3    H136201   6.005   5.257  20.392  0.0403  1.0446 -1.0643
 4002TIP3    H236202   6.153   5.226  20.377  0.0099  1.0752 -1.4448
 4003TIP3   OH236203   0.691   4.200  20.235  0.2146 -1.2560  0.1086
 4003TIP3    H136204   0.655   4.269  20.291  0.0786  0.6398 -2.1391
 4003TIP3    H236205   0.615   4.149  20.207  0.2146 -1.8260  1.0882
 4004TIP3   OH236206   3.694   6.593  20.072 -0.4263 -0.0295  0.4567
 4004TIP3    H136207   3.767   6.547  20.113 -0.6128  0.1127  0.9499
 4004TIP3    H236208   3.616   6.559  20.115 -0.5230  1.2464  1.3228
 4005TIP3   OH236209   1.161   4.959  18.281  0.2228 -0.2138 -0.3258
 4005TIP3    H136210   1.195   5.011  18.208  0.3877 -1.4373 -1.1447
 4005TIP3    H236211   1.078   5.001  18.303  0.3704  0.4253 -0.9430
 4006TIP3   OH236212   2.536   1.555  20.497 -0.1516  0.0640 -0.2398
 4006TIP3    H136213   2.524   1.467  20.533  0.3803  0.9435  2.3360
 4006TIP3    H236214   2.470   1.608  20.542  0.6577  1.2725 -0.4340
 4007TIP3   OH236215   1.610   3.409  21.368 -0.1288  0.6465 -0.1720
 4007TIP3    H136216   1.626   3.464  21.291 -0.4742 -0.6343 -1.2032
 4007TIP3    H236217   1.691   3.361  21.381 -0.9365 -1.2310 -1.5445
 4008TIP3   OH236218   1.367   6.123  19.789  0.5749 -0.0503 -0.2344
 4008TIP3    H136219   1.288   6.088  19.749  0.0746  0.9477 -0.1726
 4008TIP3    H236220   1.418   6.158  19.716  0.1018  0.9177 -0.1297
 4009TIP3   OH236221   0.891   4.299  18.149  0.0764 -0.3393  0.4780
 4009TIP3    H136222   0.957   4.299  18.081  0.1459 -0.1456  0.5430
 4009TIP3    H236223   0.837   4.376  18.129 -0.5897 -0.9261 -0.0176
 4010TIP3   OH236224   3.937   4.091  19.648 -0.6737  0.1122  0.1995
 4010TIP3    H136225   3.984   4.123  19.725 -0.8140 -1.1311  0.8374
 4010TIP3    H236226   3.977   4.135  19.574 -0.0437  0.7853  0.9330
 4011TIP3   OH236227   0.685   1.512  20.947 -0.2100 -0.0186  0.1716
 4011TIP3    H136228   0.744   1.444  20.916 -1.4231 -1.5716  1.0903
 4011TIP3    H236229   0.735   1.594  20.940  0.7784 -0.7568 -2.3734
 4012TIP3   OH236230   6.173   3.398  18.511  0.1230 -0.5175 -0.2367
 4012TIP3    H136231   6.169   3.363  18.422  0.0385  0.5766 -0.6764
 4012TIP3    H236232   6.208   3.487  18.500 -0.2700 -0.2257  0.7791
 4013TIP3   OH236233   1.398   2.528  20.010  0.1082 -0.1284 -0.5272
 4013TIP3    H136234   1.305   2.542  19.988  0.4061  0.7527 -1.3134
 4013TIP3    H236235   1.401   2.439  20.046 -1.0622 -0.1160 -0.3446
 4014TIP3   OH236236   2.809   2.653  18.932  1.1849 -0.7221 -0.4447
 4014TIP3    H136237   2.893   2.653  18.886  1.3550 -0.1002 -0.1460
 4014TIP3    H236238   2.744   2.672  18.864  1.6454  2.5316 -0.1304
 4015TIP3   OH236239   3.904   3.985  17.851  0.5628  0.1664 -0.6611
 4015TIP3    H136240   3.954   4.063  17.830 -0.9386  1.7023  1.0774
 4015TIP3    H236241   3.868   4.003  17.938 -1.7004 -1.4759 -1.1760
 4016TIP3   OH236242   0.235   0.794  20.394  0.0255 -0.1728  0.1026
 4016TIP3    H136243   0.146   0.758  20.387 -0.1009  0.0090  0.7020
 4016TIP3    H236244   0.292   0.719  20.375 -0.2494 -0.1678 -0.8144
 4017TIP3   OH236245   2.171   6.488  21.336 -0.3960  0.0221 -0.0358
 4017TIP3    H136246   2.182   6.442  21.253  1.2331 -1.0721  0.7549
 4017TIP3    H236247   2.209   6.430  21.402 -2.3821  0.4765  1.6421
 4018TIP3   OH236248   5.336   0.177  21.136  0.0385  0.3045  0.2702
 4018TIP3    H136249   5.379   0.106  21.184  0.7131  0.3289 -0.2790
 4018TIP3    H236250   5.242   0.161  21.149  0.1395 -1.3154 -0.7105
 4019TIP3   OH236251   4.618   1.167  17.915 -0.0265  0.7958 -0.4966
 4019TIP3    H136252   4.607   1.260  17.935  1.0238  0.9791 -0.7042
 4019TIP3    H236253   4.679   1.165  17.841  0.5024 -0.0793 -0.0581
 4020TIP3   OH236254   3.886   5.698  21.132 -0.3250  0.0657  0.2180
 4020TIP3    H136255   3.857   5.607  21.121  1.4689 -0.7114  1.3662
 4020TIP3    H236256   3.914   5.702  21.224  0.2226  1.6089 -0.0000
 4021TIP3   OH236257   4.046   1.467  19.409  0.2525 -0.3028 -0.4598
 4021TIP3    H136258   4.047   1.459  19.314 -1.4343 -0.1831 -0.5305
 4021TIP3    H236259   4.046   1.561  19.425 -1.0191 -0.2828 -0.4326
 4022TIP3   OH236260   0.495   5.722  20.537  0.2017  0.1227 -0.2853
 4022TIP3    H136261   0.521   5.769  20.616  1.0040  0.9430 -1.0090
 4022TIP3    H236262   0.431   5.780  20.495  1.5505  0.8837 -1.4292
 4023TIP3   OH236263   4.754   3.089  18.840  0.0744 -0.4018 -0.3803
 4023TIP3    H136264   4.793   3.024  18.898 -0.5166 -1.8356 -1.5328
 4023TIP3    H236265   4.792   3.072  18.755 -1.3062 -0.3083 -1.0465
 4024TIP3   OH236266   4.878   3.626  18.738 -0.1594  0.5457  0.2356
 4024TIP3    H136267   4.860   3.609  18.830  1.9107 -0.4331  0.5178
 4024TIP3    H236268   4.845   3.548  18.693  1.2614 -0.2515  0.5055
 4025TIP3   OH236269   4.348   4.698  19.969  0.1552  0.1708  0.1570
 4025TIP3    H136270   4.282   4.735  20.027  0.9908  2.6475 -0.3704
 4025TIP3    H236271   4.331   4.604  19.970  0.1102  0.0303  4.3874
 4026TIP3   OH236272   4.324   0.670  17.933  0.0817 -0.0154 -0.3688
 4026TIP3    H136273   4.413   0.673  17.898  0.3518 -0.2116  0.2887
 4026TIP3    H236274   4.271   0.637  17.861  0.5309  0.1536 -0.7822
 4027TIP3   OH236275   1.557   4.288  20.209 -0.5999  0.0919  0.0370
 4027TIP3    H136276   1.467   4.284  20.241 -1.0373 -0.3987 -1.2190
 4027TIP3    H236277   1.576   4.382  20.203 -0.4787  0.2117  1.7207
 4028TIP3   OH236278   1.225   3.748  21.192 -0.4586 -0.4097  0.1002
 4028TIP3    H136279   1.236   3.655  21.209  0.2640 -0.7369 -1.8646
 4028TIP3    H236280   1.312   3.786  21.203 -0.5404 -0.1561 -0.0958
 4029TIP3   OH236281   0.229   6.426  18.654 -0.4802  0.1433  0.4705
 4029TIP3    H136282   0.167   6.356  18.633 -0.6615  0.5084 -0.2386
 4029TIP3    H236283   0.301   6.414  18.593 -0.2692  0.2606  0.6942
 4030TIP3   OH236284   5.061   3.319  19.433  0.6375  0.2598 -0.0874
 4030TIP3    H136285   4.992   3.315  19.368 -0.0783  1.8009  0.5221
 4030TIP3    H236286   5.142   3.311  19.383  0.0763  0.4222 -1.0413
 4031TIP3   OH236287   6.150   2.395  19.536  0.1600 -0.7179  0.5302
 4031TIP3    H136288   6.058   2.386  19.560 -0.3928  2.2451 -0.0986
 4031TIP3    H236289   6.163   2.329  19.467 -1.7168 -0.7016  0.1006
 4032TIP3   OH236290   4.389   1.436  21.184 -0.0637  0.8157 -0.2655
 4032TIP3    H136291   4.309   1.445  21.132 -0.3892 -0.3810  0.0064
 4032TIP3    H236292   4.369   1.368  21.248  0.5853  1.7537  0.9710
 4033TIP3   OH236293   0.324   3.798  20.135 -0.1062 -0.3026 -0.2099
 4033TIP3    H136294   0.376   3.736  20.084  1.6674 -0.7434  2.0035
 4033TIP3    H236295   0.372   3.809  20.217 -2.0747  1.4953  0.8086
 4034TIP3   OH236296   2.058   6.170  18.780 -0.2718  0.1895 -0.1451
 4034TIP3    H136297   2.091   6.177  18.690  0.2637  1.0790  0.1078
 4034TIP3    H236298   2.101   6.092  18.815  0.7835  0.7519 -0.1542
 4035TIP3   OH236299   0.492   5.196  20.660  0.3715 -0.5964 -0.1623
 4035TIP3    H136300   0.482   5.275  20.607  0.4337  1.2838  2.4164
 4035TIP3    H236301   0.586   5.190  20.676  0.3070 -0.8742  0.1130
 4036TIP3   OH236302   1.293   5.567  19.059 -0.0486 -0.4444 -0.4891
 4036TIP3    H136303   1.248   5.511  18.995 -0.7484 -0.0614 -0.3423
 4036TIP3    H236304   1.347   5.625  19.005 -1.4178  0.5766 -0.8405
 4037TIP3   OH236305   4.560   2.252  19.378  0.0680 -0.3353  0.7568
 4037TIP3    H136306   4.511   2.258  19.460  1.1482 -2.1794  1.5986
 4037TIP3    H236307   4.502   2.204  19.318  0.2754 -1.2793  1.2982
 4038TIP3   OH236308   1.605   2.152  20.608  0.2288 -0.0820 -0.3775
 4038TIP3    H136309   1.520   2.195  20.616 -1.0926 -2.5778 -0.0871
 4038TIP3    H236310   1.669   2.224  20.612 -1.8160  1.8204 -0.1425
 4039TIP3   OH236311   0.801   4.694  20.206  0.1158  0.2048 -0.1124
 4039TIP3    H136312   0.773   4.785  20.207  0.3774  0.3243 -1.4083
 4039TIP3    H236313   0.764   4.655  20.285  2.1744  2.0561  1.9093
 4040TIP3   OH236314   3.929   4.113  21.561  0.5041  0.8402  0.8834
 4040TIP3    H136315   3.897   4.026  21.536  1.5745  0.7870 -0.4180
 4040TIP3    H236316   3.850   4.166  21.569 -0.1102 -0.0423  0.8987
 4041TIP3   OH236317   6.052   2.260  20.681 -0.0042 -0.6134  0.6652
 4041TIP3    H136318   6.022   2.332  20.624 -1.7699 -1.1775  0.8020
 4041TIP3    H236319   6.023   2.181  20.635  0.2497 -1.1541  1.4262
 4042TIP3   OH236320   0.708   6.501  21.545  0.0933  0.2358  0.1563
 4042TIP3    H136321   0.652   6.544  21.480  1.3032  1.8967  0.1300
 4042TIP3    H236322   0.759   6.438  21.494  1.0337  1.5274 -0.5881
 4043TIP3   OH236323   5.172   0.993  19.365 -0.1838 -0.2320 -0.6240
 4043TIP3    H136324   5.171   0.940  19.286 -1.0901 -1.1726 -0.0056
 4043TIP3    H236325   5.150   1.081  19.336  0.1059 -0.4405 -1.4971
 4044TIP3   OH236326   2.811   0.543  18.479  0.5190  0.0347 -1.1188
 4044TIP3    H136327   2.771   0.598  18.412 -1.1945  0.8481  0.4912
 4044TIP3    H236328   2.876   0.599  18.522 -1.2973  0.9396  0.5884
 4045TIP3   OH236329   2.290   0.016  18.118 -0.3542 -0.1518 -0.1431
 4045TIP3    H136330   2.332   0.069  18.185 -1.0749  1.0855 -0.6456
 4045TIP3    H236331   2.196   0.035  18.127 -1.0120 -3.3741  1.4260
 4046TIP3   OH236332   0.413   4.964  20.513  0.0679 -0.0242 -0.1668
 4046TIP3    H136333   0.434   5.036  20.573 -1.5872  0.9851 -0.7438
 4046TIP3    H236334   0.319   4.972  20.498  0.0399 -1.6759 -1.0995
 4047TIP3   OH236335   3.552   4.899  20.404  0.1649 -0.5181  0.4078
 4047TIP3    H136336   3.607   4.922  20.329 -0.3744 -0.7612 -0.0748
 4047TIP3    H236337   3.602   4.833  20.451  0.4410 -0.4819  0.1686
 4048TIP3   OH236338   2.157   4.241  21.224  0.2153 -0.7385 -0.7867
 4048TIP3    H136339   2.160   4.146  21.211  1.7322 -0.6372 -1.3837
 4048TIP3    H236340   2.239   4.273  21.185  0.0322  0.7415 -0.0182
 4049TIP3   OH236341   0.031   4.089  18.351  0.3131 -0.0846  0.1402
 4049TIP3    H136342   0.088   4.012  18.349  0.9744  0.3543  1.2020
 4049TIP3    H236343   0.007   4.097  18.443 -0.6313  0.3556 -0.1360
 4050TIP3   OH236344   5.517   3.994  20.352 -0.2204  0.1150 -0.0976
 4050TIP3    H136345   5.549   3.916  20.397  2.4883  0.0390 -1.8990
 4050TIP3    H236346   5.429   3.971  20.322  0.5756 -2.3378 -0.7394
 4051TIP3   OH236347   0.780   3.231  21.317 -0.1637  0.2142  0.0481
 4051TIP3    H136348   0.830   3.176  21.378 -0.8210  0.6782  1.0175
 4051TIP3    H236349   0.689   3.215  21.339 -0.3882  0.8961 -0.3645
 4052TIP3   OH236350   2.905   3.407  20.759  0.4729  0.0230 -0.2652
 4052TIP3    H136351   2.913   3.390  20.666 -0.4402 -0.7260 -0.2207
 4052TIP3    H236352   2.828   3.464  20.767  1.8282  1.9418 -0.1456
 4053TIP3   OH236353   5.362   5.151  18.100  0.2161  0.0311 -0.2148
 4053TIP3    H136354   5.435   5.105  18.141 -0.7895 -0.0764  1.5585
 4053TIP3    H236355   5.399   5.190  18.021  2.0451 -0.4398  0.3692
 4054TIP3   OH236356   1.882   1.229  19.783 -0.0230 -0.0186 -0.3081
 4054TIP3    H136357   1.812   1.182  19.737 -0.2129 -0.0181 -0.0189
 4054TIP3    H236358   1.844   1.315  19.801  0.1940  0.1211 -0.5061
 4055TIP3   OH236359   1.126   2.376  20.851 -0.5841 -0.3645 -0.0561
 4055TIP3    H136360   1.049   2.429  20.831  0.1035  0.1409 -1.5543
 4055TIP3    H236361   1.191   2.403  20.786 -0.1046 -2.8781 -0.7243
 4056TIP3   OH236362   5.523   5.544  18.685 -0.1585  0.0899  0.0867
 4056TIP3    H136363   5.585   5.566  18.755 -1.2033 -0.2881  1.1857
 4056TIP3    H236364   5.440   5.531  18.731 -1.0213  0.4010 -1.3125
 4057TIP3   OH236365   1.532   5.255  20.048 -0.5202  0.7371 -0.6546
 4057TIP3    H136366   1.570   5.169  20.033  0.7533  1.1969 -0.2282
 4057TIP3    H236367   1.479   5.272  19.970 -1.3764 -0.7172 -0.4229
 4058TIP3   OH236368   3.873   4.831  21.035 -0.2368 -0.5191 -0.2492
 4058TIP3    H136369   3.869   4.740  21.005 -1.5163 -1.3830  2.2843
 4058TIP3    H236370   3.783   4.861  21.029 -0.2224 -0.1890  1.1033
 4059TIP3   OH236371   2.530   2.275  18.544 -0.1992  0.7748 -0.4911
 4059TIP3    H136372   2.493   2.363  18.542  0.0226  0.9434  1.2126
 4059TIP3    H236373   2.604   2.279  18.483  1.5533  2.6636  1.5761
 4060TIP3   OH236374   2.817   2.615  20.626  0.0052  0.1957 -0.0069
 4060TIP3    H136375   2.872   2.551  20.581 -1.3949 -1.7933  0.9277
 4060TIP3    H236376   2.728   2.589  20.605 -0.6295  1.7195  0.6365
 4061TIP3   OH236377   1.103   1.837  19.612 -0.5566  0.2698 -0.5430
 4061TIP3    H136378   1.129   1.761  19.560 -0.9950 -0.4812  0.3049
 4061TIP3    H236379   1.077   1.800  19.697 -1.0426  1.3407 -0.2126
 4062TIP3   OH236380   3.222   4.027  19.505 -0.4583 -0.2837  0.3279
 4062TIP3    H136381   3.304   3.996  19.465 -0.0577 -0.8216  1.5132
 4062TIP3    H236382   3.171   3.947  19.519 -0.5758 -0.1175  0.8966
 4063TIP3   OH236383   2.701   2.325  19.551 -0.8877 -0.2081  0.2831
 4063TIP3    H136384   2.731   2.415  19.539 -1.7493  0.0889  0.2844
 4063TIP3    H236385   2.657   2.303  19.469 -0.2731 -0.7953  0.1040
 4064TIP3   OH236386   0.812   3.731  18.570  0.1628 -0.4945 -0.1561
 4064TIP3    H136387   0.770   3.672  18.633  0.3753 -0.3644  0.1089
 4064TIP3    H236388   0.877   3.677  18.527  0.4926 -0.4085  0.2246
 4065TIP3   OH236389   0.905   1.834  20.512 -0.1006 -0.5945 -0.0186
 4065TIP3    H136390   0.843   1.894  20.553 -2.0487 -0.8535 -2.3907
 4065TIP3    H236391   0.952   1.889  20.449  1.5002 -0.6053  1.1125
 4066TIP3   OH236392   5.021   2.437  20.968 -0.0706  0.9785  0.4825
 4066TIP3    H136393   5.079   2.386  21.025 -0.6216 -1.3816 -0.8908
 4066TIP3    H236394   5.059   2.524  20.966  3.2896 -0.3303 -0.0412
 4067TIP3   OH236395   0.967   0.129  20.936 -0.1506 -0.1396  0.0601
 4067TIP3    H136396   0.893   0.180  20.904 -0.4365 -1.2166 -1.0728
 4067TIP3    H236397   0.928   0.055  20.982  0.2203 -0.4870 -0.1738
 4068TIP3   OH236398   0.935   1.650  20.978 -0.1010  0.0514 -0.2520
 4068TIP3    H136399   0.935   1.745  20.987  1.2367 -0.0370  0.9567
 4068TIP3    H236400   0.993   1.619  21.047 -1.6929 -1.7555  0.3612
 4069TIP3   OH236401   4.147   6.579  21.187 -0.6351  0.1384  0.1747
 4069TIP3    H136402   4.154   6.598  21.281  1.8515  2.1855 -0.2911
 4069TIP3    H236403   4.082   6.641  21.155 -2.1848 -1.1952  0.6257
 4070TIP3   OH236404   1.359   5.573  19.951  0.0565 -0.2441 -0.8223
 4070TIP3    H136405   1.399   5.645  19.902 -1.7468  0.5963 -1.1627
 4070TIP3    H236406   1.367   5.497  19.894  0.1437  0.1640 -1.3620
 4071TIP3   OH236407   2.378   5.416  18.617  0.3436  0.0406 -0.3184
 4071TIP3    H136408   2.340   5.494  18.576  0.6716 -0.5994 -1.9012
 4071TIP3    H236409   2.333   5.410  18.701 -1.5737  0.4968 -1.2399
 4072TIP3   OH236410   0.079   3.906  19.345  0.2397  0.0921  0.1639
 4072TIP3    H136411   0.094   3.813  19.361  2.1274  0.7139  2.5328
 4072TIP3    H236412   0.102   3.949  19.427 -0.1020  2.7089 -1.0089
 4073TIP3   OH236413   1.099   0.843  19.218  0.7052  0.2339  0.4575
 4073TIP3    H136414   1.156   0.851  19.142  0.5550 -0.9283  0.2081
 4073TIP3    H236415   1.147   0.788  19.280  1.2138  1.8810  1.6200
 4074TIP3   OH236416   1.222   2.777  18.748  0.0169 -0.4090  0.0073
 4074TIP3    H136417   1.225   2.846  18.682 -1.6069 -0.0772  0.2516
 4074TIP3    H236418   1.238   2.696  18.699  1.6519  0.0783 -0.3211
 4075TIP3   OH236419   6.262   3.649  18.505 -0.1040 -0.0302 -0.0698
 4075TIP3    H136420   6.248   3.667  18.598 -0.4936  0.6659 -0.2550
 4075TIP3    H236421   6.357   3.648  18.495 -0.0356 -1.4236  0.5754
 4076TIP3   OH236422   4.812   6.492  18.004 -0.5196  0.5315 -0.1339
 4076TIP3    H136423   4.757   6.500  18.082 -0.6835  0.1119 -0.2032
 4076TIP3    H236424   4.749   6.475  17.933 -0.3128  0.1754 -0.2348
 4077TIP3   OH236425   3.002   3.524  18.579 -0.6186 -0.1067 -0.6107
 4077TIP3    H136426   2.928   3.467  18.602 -0.3412 -1.0716 -2.0198
 4077TIP3    H236427   2.962   3.598  18.533 -1.0416  1.2207  1.6860
 4078TIP3   OH236428   1.611   4.879  20.876  0.0140  0.3806 -0.1066
 4078TIP3    H136429   1.637   4.839  20.958 -1.0301 -1.0973 -0.4537
 4078TIP3    H236430   1.555   4.814  20.834 -1.2713  1.9740 -0.9857
 4079TIP3   OH236431   3.810   0.768  20.754  0.1874  0.2982 -0.5010
 4079TIP3    H136432   3.758   0.840  20.719  1.8179  0.8766 -1.8622
 4079TIP3    H236433   3.813   0.704  20.683  2.1077  0.7239 -0.8770
 4080TIP3   OH236434   1.913   0.652  21.438  0.1251 -0.1793  0.0147
 4080TIP3    H136435   1.869   0.692  21.364  0.1209 -0.5890 -0.2089
 4080TIP3    H236436   1.889   0.706  21.513 -0.0171  0.1296 -0.2529
 4081TIP3   OH236437   5.892   5.308  20.538  0.3922  0.6543 -0.0017
 4081TIP3    H136438   5.802   5.323  20.508  0.1852  0.3690  0.4631
 4081TIP3    H236439   5.888   5.322  20.633  0.7430  0.2269  0.0817
 4082TIP3   OH236440   4.180   2.309  19.440  0.1516 -0.2764  0.7597
 4082TIP3    H136441   4.233   2.258  19.502  0.1411 -0.6644  0.4558
 4082TIP3    H236442   4.126   2.244  19.396 -2.1015  0.3033  2.4810
 4083TIP3   OH236443   5.009   2.644  20.096 -0.4431 -0.3361 -0.0385
 4083TIP3    H136444   5.020   2.721  20.151 -0.5694 -1.3958  1.5479
 4083TIP3    H236445   4.917   2.644  20.072 -0.5015 -0.1398  0.1855
 4084TIP3   OH236446   2.381   4.490  17.862  0.1707 -0.0795 -0.3877
 4084TIP3    H136447   2.335   4.548  17.923  1.0401 -0.8832  1.0960
 4084TIP3    H236448   2.321   4.481  17.788 -2.0381 -0.9424  1.3670
 4085TIP3   OH236449   6.039   2.015  18.221  0.0123 -0.2405  0.3013
 4085TIP3    H136450   6.071   1.960  18.149  1.2539 -1.2396  1.5468
 4085TIP3    H236451   5.952   2.042  18.194  0.0095 -1.4916 -1.0956
 4086TIP3   OH236452   5.158   3.357  20.329 -0.6064  0.0432  0.0238
 4086TIP3    H136453   5.152   3.278  20.383 -0.8471 -0.5275 -0.8100
 4086TIP3    H236454   5.068   3.387  20.320 -0.5446  0.2577  0.1046
 4087TIP3   OH236455   1.017   1.375  20.064  0.0193  0.3030  0.2782
 4087TIP3    H136456   1.033   1.469  20.065 -0.4274  0.3826  1.3844
 4087TIP3    H236457   0.922   1.368  20.074  0.0329 -0.2627  0.0114
 4088TIP3   OH236458   1.078   1.928  20.307  0.8936  0.3212  0.1266
 4088TIP3    H136459   1.135   1.896  20.376  0.4118 -2.0928 -0.4936
 4088TIP3    H236460   1.136   1.945  20.233  1.2838  1.9900  0.7727
 4089TIP3   OH236461   2.345   0.204  21.645  0.3207  0.1426  0.3595
 4089TIP3    H136462   2.260   0.178  21.611  0.4624  0.6074 -0.3820
 4089TIP3    H236463   2.325   0.263  21.717 -0.0240  1.6226 -0.8773
 4090TIP3   OH236464   2.196   4.865  21.247 -0.0973  0.3177 -0.1314
 4090TIP3    H136465   2.237   4.810  21.180  1.8545  1.8703 -0.3355
 4090TIP3    H236466   2.211   4.954  21.216  0.7517  1.0949  2.2725
 4091TIP3   OH236467   0.823   4.763  19.847  0.1149  0.7970  0.1446
 4091TIP3    H136468   0.857   4.717  19.770 -0.0291  1.0157 -0.0506
 4091TIP3    H236469   0.762   4.700  19.887  1.9782 -0.2684  1.4628
 4092TIP3   OH236470   6.518   2.272  20.789  0.1066  0.0134 -0.3886
 4092TIP3    H136471   6.436   2.271  20.838  0.5130 -0.0428  0.3009
 4092TIP3    H236472   6.522   2.360  20.750 -0.6415 -0.2395 -1.0616
 4093TIP3   OH236473   0.951   2.786  21.406  0.3625 -0.6215  0.1413
 4093TIP3    H136474   1.043   2.806  21.428  0.3312 -0.3345  0.0200
 4093TIP3    H236475   0.946   2.691  21.409 -0.0434 -0.6074  3.0921
 4094TIP3   OH236476   6.323   2.220  21.238 -0.2724 -0.2727 -0.4541
 4094TIP3    H136477   6.311   2.295  21.180  0.5723  1.5156  1.5178
 4094TIP3    H236478   6.235   2.196  21.265 -0.5608 -0.0151 -1.1480
 4095TIP3   OH236479   1.857   0.041  18.651 -0.0878  0.6459  0.0305
 4095TIP3    H136480   1.877  -0.010  18.572 -2.4204  0.8408 -0.7650
 4095TIP3    H236481   1.897   0.126  18.636  1.5332 -0.0651  0.1618
 4096TIP3   OH236482   4.136   5.806  18.936 -0.1198  0.3238 -0.3219
 4096TIP3    H136483   4.218   5.759  18.922  0.1070  1.4694 -3.7619
 4096TIP3    H236484   4.157   5.897  18.916 -1.7915  1.0099  0.8270
 4097TIP3   OH236485   3.648   0.066  19.748 -0.0674  0.3026  0.8122
 4097TIP3    H136486   3.729   0.071  19.798  0.2257  1.5233  0.2365
 4097TIP3    H236487   3.638   0.153  19.709 -0.3502 -0.5548 -1.1549
 4098TIP3   OH236488   1.299   3.406  21.005 -0.0862  0.0986  0.7568
 4098TIP3    H136489   1.321   3.314  20.992 -1.0281 -0.0105 -0.1544
 4098TIP3    H236490   1.364   3.437  21.068  1.9934 -0.4906 -0.9950
 4099TIP3   OH236491   4.477   2.123  18.146  0.2639 -0.3487 -0.0967
 4099TIP3    H136492   4.500   2.100  18.236  0.5161  1.4168  0.3222
 4099TIP3    H236493   4.549   2.176  18.115  0.7582 -1.9033 -1.8099
 4100TIP3   OH236494   4.587   5.906  20.871  0.2596 -0.3961 -0.3105
 4100TIP3    H136495   4.593   5.863  20.786  0.1520  0.3057 -0.6839
 4100TIP3    H236496   4.529   5.981  20.856 -0.5169 -0.7992  0.6083
 4101TIP3   OH236497   5.538   3.500  21.336 -0.2716 -0.4075  0.3174
 4101TIP3    H136498   5.460   3.487  21.391  0.1355  0.6601  1.1842
 4101TIP3    H236499   5.515   3.460  21.252 -1.2508 -1.2885  0.9708
 4102TIP3   OH236500   1.317   3.524  21.318 -0.0780  0.6035  0.2157
 4102TIP3    H136501   1.303   3.441  21.364 -1.2001  0.0607 -1.0331
 4102TIP3    H236502   1.407   3.520  21.288  0.1795  0.2724  1.0081
 4103TIP3   OH236503   3.317   3.860  19.844 -0.0607 -0.3368 -0.4296
 4103TIP3    H136504   3.240   3.917  19.850  0.6218  0.5756 -0.0034
 4103TIP3    H236505   3.281   3.772  19.833 -1.1896 -0.1027  1.0240
 4104TIP3   OH236506   6.474   3.651  18.191 -0.1478 -0.0042  0.2930
 4104TIP3    H136507   6.563   3.676  18.168  0.2087 -1.4893  0.0064
 4104TIP3    H236508   6.479   3.625  18.283 -0.2341 -0.3422  0.2030
 4105TIP3   OH236509   5.514   1.682  20.504 -0.2808 -0.3118 -0.2418
 4105TIP3    H136510   5.439   1.626  20.522 -0.0326 -0.6720 -0.3334
 4105TIP3    H236511   5.585   1.646  20.556 -0.1867  0.0740 -0.0962
 4106TIP3   OH236512   1.682   4.410  19.836 -0.2371 -0.2083 -0.0451
 4106TIP3    H136513   1.640   4.481  19.883  0.2985 -0.2832  0.5498
 4106TIP3    H236514   1.708   4.449  19.752  0.6211  0.4640  0.5266
 4107TIP3   OH236515   2.268   4.496  19.499  0.0136  0.4281  0.2505
 4107TIP3    H136516   2.322   4.542  19.436 -0.1266 -1.1859 -1.1293
 4107TIP3    H236517   2.195   4.556  19.518 -0.8011  0.3802 -2.3651
 4108TIP3   OH236518   6.294   1.563  21.130 -0.5854  0.3047 -0.7694
 4108TIP3    H136519   6.264   1.497  21.192 -0.7373 -0.7125 -1.8680
 4108TIP3    H236520   6.340   1.628  21.183 -1.0266 -0.3338  0.4278
 4109TIP3   OH236521   3.003   0.684  18.613 -0.1364  0.3471 -0.4749
 4109TIP3    H136522   3.041   0.740  18.546 -0.9676  1.1849 -0.2699
 4109TIP3    H236523   3.069   0.616  18.628  1.0435  1.4547 -0.4780
 4110TIP3   OH236524   2.359   3.153  19.087  0.8825 -0.4194 -0.5944
 4110TIP3    H136525   2.362   3.243  19.119  1.5532  0.0145 -1.8333
 4110TIP3    H236526   2.442   3.115  19.116  0.9234 -0.4131 -0.7018
 4111TIP3   OH236527   5.598   2.626  19.427  0.4429  0.1400 -0.1071
 4111TIP3    H136528   5.636   2.606  19.341  1.2982 -0.2108  0.3377
 4111TIP3    H236529   5.533   2.694  19.409  0.1325 -0.4001 -1.1219
 4112TIP3   OH236530   2.079   2.594  18.580  0.0514  0.1634 -0.2512
 4112TIP3    H136531   2.096   2.573  18.672 -1.5187 -2.0191 -0.3817
 4112TIP3    H236532   2.019   2.668  18.583  0.7660  0.7304  0.4426
 4113TIP3   OH236533   1.767   2.660  21.101 -0.5953  0.1534 -0.3523
 4113TIP3    H136534   1.704   2.653  21.173 -0.5856 -0.2797 -0.3863
 4113TIP3    H236535   1.827   2.729  21.128 -1.3637  0.9088 -0.5287
 4114TIP3   OH236536   2.205   2.032  18.896  0.4710  0.3413 -0.2170
 4114TIP3    H136537   2.215   2.120  18.933 -0.0191  1.4606 -2.5331
 4114TIP3    H236538   2.292   2.011  18.862  0.3719  0.3356 -0.4698
 4115TIP3   OH236539   5.288   6.100  19.015  1.2385 -0.4179  0.7641
 4115TIP3    H136540   5.226   6.032  18.988  0.9275 -0.5216  1.6889
 4115TIP3    H236541   5.329   6.129  18.934 -0.1395 -0.2341  0.1061
 4116TIP3   OH236542   0.708   0.911  19.822 -0.4478 -0.5100 -0.2365
 4116TIP3    H136543   0.645   0.935  19.890  0.4127  0.9083  0.0986
 4116TIP3    H236544   0.654   0.891  19.746 -1.3937  3.9491 -1.0421
 4117TIP3   OH236545   4.885   2.794  20.849  0.5872  0.3656  0.3230
 4117TIP3    H136546   4.958   2.733  20.856 -0.3677 -0.6220  2.7731
 4117TIP3    H236547   4.820   2.747  20.796  0.4076 -0.1943  1.0255
 4118TIP3   OH236548   0.092   5.942  21.008  0.1255 -0.3834 -0.2143
 4118TIP3    H136549   0.104   5.969  21.099  2.4086  2.3392 -1.1747
 4118TIP3    H236550   0.158   5.874  20.995 -0.1870 -0.7599  0.1182
 4119TIP3   OH236551   2.793   5.809  19.631 -0.0533 -0.1174 -0.7147
 4119TIP3    H136552   2.812   5.882  19.690 -0.2797 -0.1498 -0.5985
 4119TIP3    H236553   2.879   5.776  19.605  0.0722 -0.7672  0.4243
 4120TIP3   OH236554   2.516   5.683  21.214  0.4092 -0.3304  0.4320
 4120TIP3    H136555   2.538   5.662  21.124  2.0717  0.1347  0.6913
 4120TIP3    H236556   2.594   5.728  21.248 -0.9085  1.2887  1.5067
 4121TIP3   OH236557   6.251   3.101  18.323 -0.4984 -0.0936 -0.2370
 4121TIP3    H136558   6.346   3.097  18.328 -0.5846 -1.6078  1.0041
 4121TIP3    H236559   6.233   3.140  18.238  1.2231 -1.0747 -1.0999
 4122TIP3   OH236560   1.470   3.677  20.722 -0.3616  0.0542  0.2983
 4122TIP3    H136561   1.517   3.724  20.791  0.3703 -0.5679  0.2387
 4122TIP3    H236562   1.457   3.742  20.653 -1.4509  0.7894  1.1713
 4123TIP3   OH236563   0.305   2.421  20.261  0.0748 -0.2694  0.1855
 4123TIP3    H136564   0.389   2.375  20.261  0.2345 -0.0833  2.0616
 4123TIP3    H236565   0.280   2.424  20.354 -1.0217  1.4458 -0.1220
 4124TIP3   OH236566   0.629   4.280  19.937  0.1018  0.3546 -0.1203
 4124TIP3    H136567   0.646   4.365  19.978  1.9242 -0.2447  0.4458
 4124TIP3    H236568   0.566   4.237  19.995 -0.5556  1.1527 -0.2230
 4125TIP3   OH236569   4.746   1.708  19.395 -0.2618 -0.1617  0.4132
 4125TIP3    H136570   4.794   1.632  19.362  0.6906 -0.1432  1.6642
 4125TIP3    H236571   4.735   1.764  19.319 -1.1379 -1.6062 -0.5823
 4126TIP3   OH236572   6.501   0.506  18.531 -0.6527  0.4065 -0.1020
 4126TIP3    H136573   6.442   0.452  18.478  0.2337  0.5351 -1.2645
 4126TIP3    H236574   6.520   0.453  18.608  0.1645 -0.9655 -1.1935
 4127TIP3   OH236575   2.180   1.401  20.703 -0.0097  0.5077 -0.1443
 4127TIP3    H136576   2.162   1.445  20.620 -0.8043  2.2196  0.8641
 4127TIP3    H236577   2.243   1.459  20.747  0.0301 -0.1135  0.6345
 4128TIP3   OH236578   0.747   4.589  20.921 -0.0839 -0.4709 -0.0813
 4128TIP3    H136579   0.835   4.625  20.929 -0.1940 -0.4425  1.3065
 4128TIP3    H236580   0.759   4.503  20.883  0.4945 -0.2689 -0.3711
 4129TIP3   OH236581   6.334   2.749  18.753 -0.1235 -0.2695 -0.3570
 4129TIP3    H136582   6.323   2.706  18.837  0.8631  0.2007  0.0384
 4129TIP3    H236583   6.245   2.767  18.722 -0.5117 -1.3428  0.1005
 4130TIP3   OH236584   3.225   1.443  19.161 -0.7242 -0.3588 -0.0368
 4130TIP3    H136585   3.164   1.509  19.127 -0.4046  0.7869  1.5142
 4130TIP3    H236586   3.170   1.370  19.187 -1.3832  0.3797  0.6946
 4131TIP3   OH236587   1.142   3.327  18.834 -0.8568  0.4595  0.0213
 4131TIP3    H136588   1.232   3.345  18.807 -0.2208 -1.7072  0.4693
 4131TIP3    H236589   1.097   3.411  18.824  0.1117  0.7038 -4.3552
 4132TIP3   OH236590   0.328   5.133  20.869 -0.2003  0.0952 -0.4909
 4132TIP3    H136591   0.382   5.158  20.795  0.2713  0.3847 -0.0550
 4132TIP3    H236592   0.346   5.040  20.881  0.4080  0.2420 -0.1933
 4133TIP3   OH236593   1.211   1.534  18.812 -0.1934 -0.1740 -0.3508
 4133TIP3    H136594   1.159   1.558  18.888  0.6808  0.1960  0.1419
 4133TIP3    H236595   1.256   1.614  18.787  1.9393 -0.9790  0.6674
 4134TIP3   OH236596   5.518   2.268  19.384  0.1705  0.3450  0.1582
 4134TIP3    H136597   5.531   2.269  19.289 -2.2166  1.4102 -0.2445
 4134TIP3    H236598   5.469   2.187  19.401  2.2496 -0.8419  0.8237
 4135TIP3   OH236599   0.288   1.612  18.760  0.5567 -0.4601 -0.1532
 4135TIP3    H136600   0.292   1.624  18.855 -0.4883 -0.5011 -0.0903
 4135TIP3    H236601   0.378   1.596  18.734  0.6395 -2.5062  1.1134
 4136TIP3   OH236602   2.049   3.913  18.837 -0.5404  0.0075  0.0739
 4136TIP3    H136603   2.111   3.985  18.822  0.0249  0.0825  2.3936
 4136TIP3    H236604   1.963   3.956  18.839 -0.2019  0.7068  1.5308
 4137TIP3   OH236605   6.016   5.642  20.603 -0.2190 -0.3775 -0.3895
 4137TIP3    H136606   5.952   5.589  20.650  0.2566  0.3662  1.1865
 4137TIP3    H236607   5.998   5.732  20.632  1.5966 -0.1718  0.2456
 4138TIP3   OH236608   5.441   2.575  20.139  0.5830  0.2619  0.3652
 4138TIP3    H136609   5.528   2.609  20.121  0.5810  0.4613  0.7161
 4138TIP3    H236610   5.388   2.652  20.161  0.7854 -0.0170  1.9907
 4139TIP3   OH236611   3.908   4.764  19.798  0.8617 -0.2947 -0.3122
 4139TIP3    H136612   3.908   4.750  19.704 -3.7772 -1.3286 -0.4190
 4139TIP3    H236613   3.912   4.675  19.835  2.1446  0.0751  0.5206
 4140TIP3   OH236614   0.438   0.725  18.279 -0.8071 -0.1635  0.0673
 4140TIP3    H136615   0.480   0.780  18.213  0.5847 -0.7613  0.4352
 4140TIP3    H236616   0.491   0.646  18.283 -0.8698 -0.1493  1.8812
 4141TIP3   OH236617   0.336   2.183  20.672 -0.2460  0.2600 -0.1029
 4141TIP3    H136618   0.257   2.130  20.686  0.2932 -0.3760  0.5528
 4141TIP3    H236619   0.324   2.259  20.728 -0.5870  0.3759 -0.3293
 4142TIP3   OH236620   3.426   2.929  21.104 -0.2969  0.5844 -0.4491
 4142TIP3    H136621   3.441   3.007  21.158 -0.6129  1.0756 -1.0558
 4142TIP3    H236622   3.392   2.963  21.021  0.0576 -0.1647 -0.9183
 4143TIP3   OH236623   5.972   6.334  20.054 -0.0429 -0.2615  0.1946
 4143TIP3    H136624   5.918   6.385  20.114  0.7235 -0.6439  1.2585
 4143TIP3    H236625   5.922   6.254  20.038  0.4043 -0.8638  1.6175
 4144TIP3   OH236626   1.854   0.604  20.789  0.0275 -0.6916  0.3295
 4144TIP3    H136627   1.927   0.574  20.735 -0.6176 -2.8388  0.5626
 4144TIP3    H236628   1.895   0.635  20.870  0.7303 -1.1387  0.1502
 4145TIP3   OH236629   5.122   0.196  19.685  0.2691  0.1485 -0.5491
 4145TIP3    H136630   5.144   0.210  19.593  0.7060  0.6167 -0.3766
 4145TIP3    H236631   5.089   0.106  19.688  0.4905  0.0439 -1.1204
 4146TIP3   OH236632   0.121   4.870  19.516  0.0184 -0.2687  0.1562
 4146TIP3    H136633   0.159   4.956  19.531 -1.7360  0.5730  0.0851
 4146TIP3    H236634   0.108   4.835  19.604  3.4108 -1.8115  0.1966
 4147TIP3   OH236635   3.359   2.969  17.020 -0.1739 -0.6825  0.6324
 4147TIP3    H136636   3.388   2.879  17.001 -1.8643 -0.8571 -1.5297
 4147TIP3    H236637   3.427   3.024  16.982 -0.7478 -1.0842 -1.0635
 4148TIP3   OH236638   4.667   4.418  18.954  0.3979 -0.1465  0.0602
 4148TIP3    H136639   4.713   4.394  18.874  0.8318  1.8549 -0.3290
 4148TIP3    H236640   4.717   4.377  19.024  1.9676  0.8021 -0.4693
 4149TIP3   OH236641   5.007   4.728  19.509  0.6430 -0.4151  0.0275
 4149TIP3    H136642   5.043   4.649  19.550  1.8678 -0.2271 -0.6048
 4149TIP3    H236643   5.071   4.796  19.528 -0.2572  0.3641  0.3144
 4150TIP3   OH236644   3.085   6.307  18.758  0.3086 -0.3350 -0.4979
 4150TIP3    H136645   3.100   6.233  18.700  3.4055 -0.8369  0.7395
 4150TIP3    H236646   3.066   6.267  18.843  1.1292  0.2707 -0.0123
 4151TIP3   OH236647   4.943   5.070  20.776  0.1802  0.0901  0.1854
 4151TIP3    H136648   4.852   5.061  20.748  0.5451  0.3347 -1.1547
 4151TIP3    H236649   4.979   4.981  20.771  0.3115  0.1689 -0.4321
 4152TIP3   OH236650   2.931   0.395  21.060  0.2444  0.2807  0.1325
 4152TIP3    H136651   2.883   0.473  21.089  2.1656  1.0742  1.3648
 4152TIP3    H236652   2.945   0.344  21.139 -0.1627 -0.8906 -0.5229
 4153TIP3   OH236653   2.332   4.963  19.527  0.2588  0.6287 -0.2379
 4153TIP3    H136654   2.267   5.015  19.573 -0.2959 -0.1050 -0.1750
 4153TIP3    H236655   2.413   5.014  19.533 -0.4237  1.8226 -0.7936
 4154TIP3   OH236656   1.091   1.627  20.100  0.0169 -0.0194  0.0417
 4154TIP3    H136657   1.178   1.594  20.080  0.4422  2.1662 -2.2298
 4154TIP3    H236658   1.106   1.707  20.150 -0.8908 -1.5118  2.9175
 4155TIP3   OH236659   4.562   4.412  21.047 -0.0161  0.3793  0.1521
 4155TIP3    H136660   4.606   4.438  21.128 -0.6413  0.1725  0.5606
 4155TIP3    H236661   4.515   4.332  21.069  0.0801  0.1360 -0.5079
 4156TIP3   OH236662   2.708   6.463  18.093 -0.2950  0.2390 -0.2068
 4156TIP3    H136663   2.771   6.393  18.078 -1.1474 -1.0226  1.6641
 4156TIP3    H236664   2.761   6.539  18.115  0.6142 -0.4381 -0.0047
 4157TIP3   OH236665   5.351   0.364  18.185 -0.2999 -0.7404  0.2995
 4157TIP3    H136666   5.319   0.447  18.220  1.9915  0.5650 -0.4941
 4157TIP3    H236667   5.277   0.329  18.135 -0.9876  1.4119 -0.3064
 4158TIP3   OH236668   6.368   4.158  21.256 -0.0118  0.0079  0.4070
 4158TIP3    H136669   6.341   4.130  21.343 -0.4747  0.6203  0.4679
 4158TIP3    H236670   6.432   4.092  21.228  0.0458 -0.2613  1.1514
 4159TIP3   OH236671   1.075   5.552  21.079 -0.1802 -0.4983  0.3377
 4159TIP3    H136672   1.111   5.545  20.991  0.1265  0.3246  0.3844
 4159TIP3    H236673   1.132   5.498  21.133  0.6760  0.3569  0.3154
 4160TIP3   OH236674   6.542   0.171  21.348  0.1923 -0.0655 -0.2938
 4160TIP3    H136675   6.554   0.261  21.379 -0.5168 -0.2032  0.3917
 4160TIP3    H236676   6.566   0.116  21.423 -0.4670 -0.4272 -0.3442
 4161TIP3   OH236677   1.761   4.795  20.304  0.1033 -0.0975 -0.1996
 4161TIP3    H136678   1.840   4.849  20.305 -0.0440  0.1155  0.8868
 4161TIP3    H236679   1.715   4.818  20.384 -0.5832 -0.9350 -0.3396
 4162TIP3   OH236680   1.737   6.319  19.176 -0.2360  0.4000 -0.2461
 4162TIP3    H136681   1.765   6.233  19.143 -2.0819 -0.1343 -0.5501
 4162TIP3    H236682   1.706   6.366  19.098  0.4407  1.2284 -0.0274
 4163TIP3   OH236683   5.836   3.367  19.186  0.1196 -0.1397  0.1831
 4163TIP3    H136684   5.768   3.301  19.174  0.1475 -0.1298 -0.0400
 4163TIP3    H236685   5.867   3.354  19.275 -0.7054  0.3575  0.5488
 4164TIP3   OH236686   0.938   4.084  19.662  0.6234  0.7379  0.4752
 4164TIP3    H136687   0.972   4.158  19.612  0.6293  0.9189  0.7421
 4164TIP3    H236688   0.960   4.105  19.753  1.8847 -0.2579  0.4290
 4165TIP3   OH236689   2.658   2.357  19.827  0.5421 -0.4471  0.1912
 4165TIP3    H136690   2.565   2.372  19.810  0.9825  3.2441  0.3985
 4165TIP3    H236691   2.698   2.349  19.741  0.7312  3.9703 -0.3467
 4166TIP3   OH236692   4.389   6.495  21.088  0.1530 -0.4563  0.3896
 4166TIP3    H136693   4.424   6.578  21.054 -0.6346  0.3758  1.5382
 4166TIP3    H236694   4.317   6.521  21.145  0.2790 -1.9158  1.2567
 4167TIP3   OH236695   6.018   3.670  21.444  0.0249  0.5175 -0.0321
 4167TIP3    H136696   5.926   3.649  21.459 -0.7334  0.8599 -3.3741
 4167TIP3    H236697   6.041   3.618  21.367  2.1921  1.6125 -0.1751
 4168TIP3   OH236698   0.796   4.198  21.002 -0.0808 -0.2052 -0.6932
 4168TIP3    H136699   0.886   4.171  21.021  0.4174  1.3771 -0.6740
 4168TIP3    H236700   0.744   4.159  21.072  0.7845 -0.0806  0.0356
 4169TIP3   OH236701   3.211   1.150  18.950  0.3019  0.2977  0.3834
 4169TIP3    H136702   3.273   1.144  19.022  0.3254 -0.2511  0.3235
 4169TIP3    H236703   3.147   1.081  18.967  0.2073  0.2804 -0.0202
 4170TIP3   OH236704   2.400   6.490  19.169  0.0551 -0.0806 -0.2044
 4170TIP3    H136705   2.484   6.516  19.207 -0.3777  0.1446  0.6061
 4170TIP3    H236706   2.341   6.562  19.189 -0.4006 -0.3427 -0.5729
 4171TIP3   OH236707   4.369   0.522  21.111  0.8958 -0.8258 -0.0604
 4171TIP3    H136708   4.363   0.607  21.154  3.2839 -0.1462 -0.8814
 4171TIP3    H236709   4.283   0.507  21.073  0.0491  0.5971  1.2160
 4172TIP3   OH236710   2.546   6.126  18.333  0.3165 -0.3417 -0.1168
 4172TIP3    H136711   2.469   6.094  18.286  0.6355 -1.2145 -0.0694
 4172TIP3    H236712   2.606   6.155  18.265  0.0965 -0.0088 -0.1691
 4173TIP3   OH236713   6.619   2.463  21.206 -0.0480  0.0479 -0.2921
 4173TIP3    H136714   6.564   2.398  21.249  0.0198  1.4445  2.0862
 4173TIP3    H236715   6.561   2.536  21.187  0.1960 -0.0425 -1.5183
 4174TIP3   OH236716   4.885   1.898  18.970  0.4871 -0.1074 -0.1793
 4174TIP3    H136717   4.841   1.887  18.886 -0.7732 -0.1287  0.4644
 4174TIP3    H236718   4.959   1.955  18.951 -0.5411  0.9844 -1.0686
 4175TIP3   OH236719   0.836   2.059  20.286  0.3390 -0.1225 -0.3317
 4175TIP3    H136720   0.822   2.127  20.352  0.2780  0.9623 -1.4113
 4175TIP3    H236721   0.929   2.037  20.294  0.3511  0.0599  0.0653
 4176TIP3   OH236722   6.520   2.755  19.555 -0.1486  0.1172 -0.0432
 4176TIP3    H136723   6.462   2.828  19.576 -0.1860  0.7827 -2.1717
 4176TIP3    H236724   6.465   2.694  19.506  0.5428 -0.0285 -0.6559
 4177TIP3   OH236725   4.311   5.608  20.008 -0.3160  0.4663  0.4872
 4177TIP3    H136726   4.223   5.612  20.047  0.0311  1.4337  1.2071
 4177TIP3    H236727   4.320   5.517  19.980 -0.9807 -0.0184  1.7647
 4178TIP3   OH236728   5.353   1.208  20.617 -0.8340  0.2924 -0.2132
 4178TIP3    H136729   5.332   1.165  20.534  0.7095  0.2980 -0.6295
 4178TIP3    H236730   5.428   1.264  20.597  0.2340 -0.4939  1.3958
 4179TIP3   OH236731   5.701   3.169  20.879 -0.9060 -0.1242 -0.2995
 4179TIP3    H136732   5.750   3.235  20.929 -2.6781  2.1468 -1.3366
 4179TIP3    H236733   5.728   3.184  20.788 -0.0053 -2.1234 -0.4099
 4180TIP3   OH236734   3.096   3.727  20.854  0.1461 -0.3615 -0.0845
 4180TIP3    H136735   3.147   3.807  20.846  0.9414 -0.7638  0.8153
 4180TIP3    H236736   3.031   3.733  20.783  0.1855  1.0614 -0.0272
 4181TIP3   OH236737   4.671   3.880  19.548  0.2212  0.5859 -0.3936
 4181TIP3    H136738   4.745   3.857  19.491 -0.4434  0.1575 -1.1069
 4181TIP3    H236739   4.614   3.803  19.545  0.1169  0.5969  0.7832
 4182TIP3   OH236740   2.073   4.481  20.006 -0.1364 -0.0024  0.0490
 4182TIP3    H136741   2.156   4.439  19.985 -1.2576 -1.3685 -1.9385
 4182TIP3    H236742   2.008   4.411  20.002 -1.7458  1.4568 -0.9733
 4183TIP3   OH236743   5.855   4.171  18.466  0.2437 -0.3956  0.3379
 4183TIP3    H136744   5.813   4.200  18.385  1.1313 -0.0433 -0.0093
 4183TIP3    H236745   5.819   4.083  18.481 -1.6876  0.4288  0.8477
 4184TIP3   OH236746   5.306   3.952  20.853  0.1435 -0.0883  0.0502
 4184TIP3    H136747   5.283   4.041  20.878 -2.5471 -0.1024 -1.9029
 4184TIP3    H236748   5.263   3.896  20.918  0.8643 -0.0225  0.6000
 4185TIP3   OH236749   4.957   4.261  19.896  0.1209  0.0288  0.1538
 4185TIP3    H136750   5.004   4.179  19.906 -0.4020 -0.5168 -1.6043
 4185TIP3    H236751   4.974   4.308  19.978  2.4988 -0.7411  0.1669
 4186TIP3   OH236752   4.433   4.159  19.884 -0.0485  0.4595  0.5120
 4186TIP3    H136753   4.405   4.067  19.881 -1.5751  0.8712  1.1235
 4186TIP3    H236754   4.514   4.158  19.936 -0.8968 -0.3674  1.8658
 4187TIP3   OH236755   0.572   2.988  18.807  0.0230 -0.0215 -0.1522
 4187TIP3    H136756   0.538   2.907  18.845 -0.2135 -0.0876 -0.5007
 4187TIP3    H236757   0.627   2.959  18.734  0.0391  0.1275 -0.1984
 4188TIP3   OH236758   0.458   6.530  19.205  0.1928  0.4469 -0.0514
 4188TIP3    H136759   0.450   6.439  19.179 -1.2827  0.8587 -1.1360
 4188TIP3    H236760   0.498   6.573  19.130  1.8266  0.5495  0.8337
 4189TIP3   OH236761   2.081   5.884  19.945  0.5332  0.4545 -0.2209
 4189TIP3    H136762   2.016   5.828  19.902 -0.7464  2.6963 -1.3509
 4189TIP3    H236763   2.133   5.919  19.872  0.0891  2.1792  0.2552
 4190TIP3   OH236764   2.655   6.207  21.148 -0.3706 -0.0477 -0.4005
 4190TIP3    H136765   2.655   6.271  21.220  0.0552  0.0738 -0.5015
 4190TIP3    H236766   2.658   6.260  21.069 -0.8887 -0.1817 -0.5116
 4191TIP3   OH236767   2.982   5.353  20.933  0.2113 -0.3563 -0.1879
 4191TIP3    H136768   3.035   5.358  21.013 -0.7142 -1.3170  0.5068
 4191TIP3    H236769   3.042   5.318  20.867  1.7052  2.6805 -0.6236
 4192TIP3   OH236770   4.503   3.335  19.649  0.0473  0.2445 -0.4150
 4192TIP3    H136771   4.446   3.404  19.615 -1.2703 -0.2126  0.7530
 4192TIP3    H236772   4.592   3.365  19.630 -0.3510  3.2372  1.7405
 4193TIP3   OH236773   6.531   0.775  21.506 -0.4744 -0.3367 -0.1279
 4193TIP3    H136774   6.600   0.788  21.571 -1.1522  2.5557  0.1419
 4193TIP3    H236775   6.567   0.813  21.425 -1.1692 -0.2196 -0.3895
 4194TIP3   OH236776   1.696   0.374  18.839 -0.3729  0.3290  0.0853
 4194TIP3    H136777   1.752   0.418  18.902 -0.8398  1.2965 -0.1518
 4194TIP3    H236778   1.736   0.392  18.754 -1.7658  2.2547 -0.2287
 4195TIP3   OH236779   0.012   2.685  20.039 -0.1284  0.4951 -0.5415
 4195TIP3    H136780   0.015   2.687  19.943  0.7619 -2.6785 -0.6887
 4195TIP3    H236781   0.103   2.677  20.066 -0.4109  0.7800  0.5657
 4196TIP3   OH236782   4.405   5.415  18.867 -0.3467  0.3890  0.1398
 4196TIP3    H136783   4.383   5.349  18.933 -1.0594 -0.3758 -0.8395
 4196TIP3    H236784   4.384   5.374  18.783  2.8818  0.3705 -0.8135
 4197TIP3   OH236785   5.353   3.805  19.569 -0.0110 -0.1857 -0.1070
 4197TIP3    H136786   5.264   3.840  19.565  0.5708  1.2876 -1.4966
 4197TIP3    H236787   5.349   3.723  19.520 -0.7138 -0.4092  0.3167
 4198TIP3   OH236788   3.097   2.597  19.391  0.1716  0.5915 -0.4133
 4198TIP3    H136789   3.059   2.643  19.316 -0.8638 -1.4130 -1.1822
 4198TIP3    H236790   3.133   2.516  19.355  0.2656 -0.1054  1.1429
 4199TIP3   OH236791   2.753   6.176  19.196 -0.2230  0.2679  1.1615
 4199TIP3    H136792   2.755   6.255  19.141  0.7639  0.0960  0.9199
 4199TIP3    H236793   2.774   6.207  19.284  1.6890  0.1304  0.8139
 4200TIP3   OH236794   6.373   3.026  18.624  0.5315 -0.0155 -0.5226
 4200TIP3    H136795   6.393   2.933  18.636  1.8545  0.1510 -1.1850
 4200TIP3    H236796   6.346   3.057  18.710  1.5403 -0.6908  0.0603
 4201TIP3   OH236797   6.414   4.481  18.455 -0.4749  0.0639  0.1121
 4201TIP3    H136798   6.352   4.521  18.394  0.7410  0.2789 -1.0475
 4201TIP3    H236799   6.471   4.428  18.399  1.2250  0.9610  0.9236
 4202TIP3   OH236800   2.838   3.651  20.402  0.4782 -0.4620  0.2044
 4202TIP3    H136801   2.751   3.612  20.394  0.2653  0.2365 -1.3063
 4202TIP3    H236802   2.857   3.685  20.315  1.0201  2.0054  1.1882
 4203TIP3   OH236803   3.222   2.269  20.318  0.3271 -0.0853 -0.5792
 4203TIP3    H136804   3.260   2.202  20.376 -0.5352 -0.4546 -0.4298
 4203TIP3    H236805   3.137   2.233  20.292  0.3515  0.4449 -1.4272
 4204TIP3   OH236806   5.045   2.909  20.179  0.6683  0.1803  0.5308
 4204TIP3    H136807   5.135   2.936  20.196  2.2490 -2.6499 -2.3763
 4204TIP3    H236808   5.022   2.854  20.254  2.1707 -0.7431  0.3470
 4205TIP3   OH236809   1.665   2.324  20.004 -0.4889  0.2579 -0.5038
 4205TIP3    H136810   1.606   2.282  19.941  0.8622 -0.3620 -1.4088
 4205TIP3    H236811   1.753   2.305  19.971  0.3847 -1.4652  2.3569
 4206TIP3   OH236812   6.338   5.728  19.222 -0.0771  0.4853 -0.1963
 4206TIP3    H136813   6.414   5.676  19.196 -0.3616  1.6266 -3.9443
 4206TIP3    H236814   6.372   5.817  19.230 -0.6993  0.7259 -0.2191
 4207TIP3   OH236815   5.456   1.916  17.151  0.9192 -0.2558 -0.1731
 4207TIP3    H136816   5.487   1.848  17.210 -1.6214 -0.1924  1.4124
 4207TIP3    H236817   5.377   1.878  17.111  0.9257  0.8163 -1.2639
 4208TIP3   OH236818   5.958   1.088  19.825 -0.0520 -0.3031  0.8087
 4208TIP3    H136819   6.004   1.121  19.903 -2.7508  2.3581  1.4837
 4208TIP3    H236820   5.869   1.073  19.855 -0.4793 -2.2013 -1.1559
 4209TIP3   OH236821   2.913   3.771  19.292  0.4234  0.3345 -0.0801
 4209TIP3    H136822   2.985   3.723  19.252  1.0388  1.9289 -1.0063
 4209TIP3    H236823   2.836   3.716  19.278  1.0123 -0.1885 -1.4726
 4210TIP3   OH236824   3.231   1.574  19.800  0.0085  0.1642 -0.1168
 4210TIP3    H136825   3.196   1.660  19.822  2.0629  0.5224  2.2686
 4210TIP3    H236826   3.183   1.513  19.856 -0.4205 -0.0732 -0.7269
 4211TIP3   OH236827   2.390   0.969  21.166  0.3869 -0.0322 -0.4857
 4211TIP3    H136828   2.311   0.997  21.120 -0.8838 -2.0519  0.3428
 4211TIP3    H236829   2.396   0.875  21.150  1.3659 -0.3192  1.2923
 4212TIP3   OH236830   5.694   1.423  20.847 -0.0786  0.4438 -0.0043
 4212TIP3    H136831   5.766   1.427  20.909 -0.6460 -0.2428  0.7203
 4212TIP3    H236832   5.707   1.339  20.801  0.1039  0.7532 -0.5272
 4213TIP3   OH236833   5.497   6.125  20.029 -0.4001 -0.1463  0.0599
 4213TIP3    H136834   5.425   6.170  20.074  0.3740  1.3954 -0.1699
 4213TIP3    H236835   5.455   6.053  19.982 -1.7046  0.3569  0.4103
 4214TIP3   OH236836   6.186   5.206  18.875 -0.4817 -0.2131 -0.4103
 4214TIP3    H136837   6.108   5.259  18.861 -0.4289 -0.4343 -1.6028
 4214TIP3    H236838   6.259   5.267  18.864 -0.4080 -0.5482 -2.1084
 4215TIP3   OH236839   3.175   6.133  20.776  0.4022  0.5936  0.4487
 4215TIP3    H136840   3.198   6.085  20.697  1.3622 -0.0850  1.1183
 4215TIP3    H236841   3.194   6.224  20.755 -0.3899  0.5709 -0.4594
 4216TIP3   OH236842   4.005   5.841  20.441  0.2814  0.4661  0.1283
 4216TIP3    H136843   3.970   5.752  20.446  0.6825  0.1460 -1.9330
 4216TIP3    H236844   3.930   5.896  20.418  0.5867  0.1532 -1.7588
 4217TIP3   OH236845   1.740   3.979  18.400 -0.2450  0.4628  0.6626
 4217TIP3    H136846   1.767   4.059  18.445  3.5400 -0.2947  0.0565
 4217TIP3    H236847   1.706   4.010  18.316 -1.0005  1.5152  1.3242
 4218TIP3   OH236848   2.743   3.373  20.283 -1.0891 -0.1940 -0.3867
 4218TIP3    H136849   2.648   3.380  20.286 -1.2395 -1.7647  3.0310
 4218TIP3    H236850   2.761   3.280  20.289  0.6866  0.1207 -0.3087
 4219TIP3   OH236851   3.947   1.983  20.183  0.1885  0.5640 -0.1004
 4219TIP3    H136852   3.971   1.898  20.218  0.5538  1.0888  0.9713
 4219TIP3    H236853   3.872   2.011  20.237 -1.4232 -0.0519 -1.9150
 4220TIP3   OH236854   4.718   0.310  20.059  0.2689 -0.0159  0.0776
 4220TIP3    H136855   4.672   0.263  20.129 -1.6548  1.6382  0.0233
 4220TIP3    H236856   4.688   0.267  19.979  0.1481 -0.0108  0.1199
 4221TIP3   OH236857   6.187   3.429  21.261  1.1940 -0.4253 -0.3526
 4221TIP3    H136858   6.125   3.432  21.188  1.1310  0.4618 -0.2827
 4221TIP3    H236859   6.268   3.465  21.225  0.8251  1.1580  0.2984
 4222TIP3   OH236860   5.475   3.129  18.092  0.5499 -0.3478  0.7656
 4222TIP3    H136861   5.394   3.173  18.070  1.7347  2.8542  2.1981
 4222TIP3    H236862   5.516   3.109  18.008 -0.4285  0.5968  0.0438
 4223TIP3   OH236863   0.844   4.858  18.358 -0.3878 -0.5966 -0.5232
 4223TIP3    H136864   0.754   4.830  18.375 -0.4758 -0.5695 -0.9379
 4223TIP3    H236865   0.889   4.779  18.328  0.3915 -1.2486  2.0211
 4224TIP3   OH236866   5.131   2.054  18.970 -0.3488  0.1582  0.7322
 4224TIP3    H136867   5.190   2.089  18.904 -1.9964 -0.0800 -0.9861
 4224TIP3    H236868   5.175   1.976  19.004 -0.0040 -0.4895 -1.1037
 4225TIP3   OH236869   5.494   5.164  19.474  0.3067  0.3878 -0.0239
 4225TIP3    H136870   5.564   5.124  19.525  0.5063  1.0920  0.2695
 4225TIP3    H236871   5.444   5.215  19.538 -0.0909  0.4058 -0.3435
 4226TIP3   OH236872   4.817   0.932  20.269 -0.2876 -0.0364 -0.0283
 4226TIP3    H136873   4.755   0.996  20.303  0.7363  0.8209  0.2626
 4226TIP3    H236874   4.807   0.937  20.174 -0.9191 -0.1867  0.0242
 4227TIP3   OH236875   3.465   0.129  21.006 -0.2975 -0.4132 -0.5081
 4227TIP3    H136876   3.425   0.202  21.053  0.6931  0.1580 -0.5335
 4227TIP3    H236877   3.522   0.087  21.070  1.4642  0.6843 -1.2829
 4228TIP3   OH236878   1.557   0.178  20.826 -0.0915 -0.8869  0.6142
 4228TIP3    H136879   1.564   0.111  20.893 -1.1762 -2.3541 -0.6713
 4228TIP3    H236880   1.648   0.204  20.808  0.1921  0.0318  3.0504
 4229TIP3   OH236881   0.642   1.119  20.342 -0.0369 -0.0213  0.3922
 4229TIP3    H136882   0.589   1.198  20.350 -0.1776 -0.2665  2.5057
 4229TIP3    H236883   0.578   1.047  20.347  0.2889 -0.2837  0.9886
 4230TIP3   OH236884   0.723   3.867  18.139 -0.2675 -0.4377 -0.0701
 4230TIP3    H136885   0.668   3.819  18.200 -1.4669  1.5602  0.5119
 4230TIP3    H236886   0.784   3.915  18.194 -1.3593  1.3781 -0.3496
 4231TIP3   OH236887   2.395   3.456  18.065 -0.6033 -0.4724  0.4002
 4231TIP3    H136888   2.342   3.406  18.127 -1.6862 -0.1549 -0.2472
 4231TIP3    H236889   2.384   3.410  17.982  0.5367 -0.6752  0.3421
 4232TIP3   OH236890   2.342   0.682  18.480 -0.2955 -0.0397  0.5088
 4232TIP3    H136891   2.320   0.686  18.573 -1.5795  1.5049  0.1627
 4232TIP3    H236892   2.290   0.751  18.439  1.1400  0.1118 -1.1902
 4233TIP3   OH236893   4.194   4.047  20.859  0.1474 -0.4276  0.0852
 4233TIP3    H136894   4.231   3.966  20.823 -0.0289 -1.3709  1.9065
 4233TIP3    H236895   4.241   4.117  20.814  0.7657 -1.5517 -1.0670
 4234TIP3   OH236896   5.710   4.029  19.137  0.5304  0.0390 -0.1512
 4234TIP3    H136897   5.777   4.079  19.183  0.1086  0.8631 -0.4178
 4234TIP3    H236898   5.639   4.091  19.122 -1.3452 -1.3565  2.1902
 4235TIP3   OH236899   3.777   4.573  19.412  0.3991  0.2918 -0.3198
 4235TIP3    H136900   3.774   4.556  19.318 -0.4244  0.9360 -0.4256
 4235TIP3    H236901   3.685   4.574  19.439  0.6474 -2.0060  0.9097
 4236TIP3   OH236902   2.527   3.906  20.804  0.1960 -0.3149  0.0471
 4236TIP3    H136903   2.506   3.864  20.721  1.4977 -0.3429 -0.2942
 4236TIP3    H236904   2.576   3.985  20.780 -1.2650  0.8449  0.7236
 4237TIP3   OH236905   3.879   0.372  19.281 -0.3031  0.5821  0.4293
 4237TIP3    H136906   3.956   0.315  19.283 -0.0415  0.9386  0.7468
 4237TIP3    H236907   3.805   0.312  19.280 -0.0150  0.2202 -1.1312
 4238TIP3   OH236908   3.777   5.595  19.822 -0.4959  0.1512 -0.1275
 4238TIP3    H136909   3.737   5.661  19.879  1.8900 -0.6846  2.8006
 4238TIP3    H236910   3.849   5.641  19.780 -0.4299  0.0514 -0.1222
 4239TIP3   OH236911   3.788   3.590  17.904  0.1527 -0.3149  0.0484
 4239TIP3    H136912   3.776   3.659  17.839  0.3671  0.0413  0.3854
 4239TIP3    H236913   3.712   3.599  17.963 -0.9328 -1.6801 -1.0817
 4240TIP3   OH236914   2.960   2.236  19.214 -0.3672  0.1507  0.7262
 4240TIP3    H136915   2.898   2.294  19.170 -0.2598  0.2295  0.6771
 4240TIP3    H236916   2.925   2.148  19.201  0.1223  0.0855 -0.2802
 4241TIP3   OH236917   5.396   4.228  18.741  0.5345  0.1042  0.0824
 4241TIP3    H136918   5.378   4.299  18.802 -0.0664 -0.5062  0.6284
 4241TIP3    H236919   5.492   4.221  18.739  0.5659  0.3635  0.6714
 4242TIP3   OH236920   2.114   6.480  17.885  0.6934 -0.1417  0.2016
 4242TIP3    H136921   2.089   6.516  17.970 -1.7680  0.2294 -0.5980
 4242TIP3    H236922   2.108   6.555  17.826 -0.5352 -0.9785 -0.7849
 4243TIP3   OH236923   2.124   3.329  21.309 -0.0849 -0.7807  0.7968
 4243TIP3    H136924   2.165   3.415  21.304 -1.5238 -0.0489  1.0884
 4243TIP3    H236925   2.191   3.273  21.348  0.2983  0.6108  2.2317
 4244TIP3   OH236926   1.303   4.421  18.848 -0.0023  0.4421  0.0192
 4244TIP3    H136927   1.386   4.415  18.802 -1.6789 -3.2015 -3.1035
 4244TIP3    H236928   1.263   4.502  18.815  1.5788  1.3915  0.3462
 4245TIP3   OH236929   0.733   0.200  19.483  0.2045  0.4053 -0.7049
 4245TIP3    H136930   0.681   0.230  19.558 -0.2585 -0.4449 -0.6774
 4245TIP3    H236931   0.668   0.167  19.421  0.6751 -0.0729 -0.9391
 4246TIP3   OH236932   1.548   4.234  18.351  0.4986 -0.4111  0.3964
 4246TIP3    H136933   1.598   4.214  18.271  2.0418 -1.6043  1.5893
 4246TIP3    H236934   1.496   4.311  18.328  2.1251  0.2841 -1.2647
 4247TIP3   OH236935   3.727   3.536  19.304  0.1155  0.7620  0.1286
 4247TIP3    H136936   3.819   3.508  19.305 -0.0960 -0.0364  1.6211
 4247TIP3    H236937   3.720   3.596  19.230  1.9104  1.0840  0.1804
 4248TIP3   OH236938   3.726   1.185  18.504 -0.5603 -0.1692 -0.2872
 4248TIP3    H136939   3.804   1.230  18.470 -0.3566  0.7270  1.2579
 4248TIP3    H236940   3.729   1.098  18.463  3.3212 -1.5785  2.3226
 4249TIP3   OH236941   3.655   4.109  18.689 -0.3226 -0.5028 -0.4653
 4249TIP3    H136942   3.732   4.053  18.675  1.6920  2.4021 -2.0612
 4249TIP3    H236943   3.591   4.078  18.624  1.0879 -0.4287 -1.9601
 4250TIP3   OH236944   2.237   5.083  19.948 -0.5430 -0.0546  0.7708
 4250TIP3    H136945   2.236   5.176  19.972 -0.5513 -0.0447  0.7340
 4250TIP3    H236946   2.328   5.056  19.957 -0.2713  0.3208 -0.5965
 4251TIP3   OH236947   3.938   1.060  17.740 -0.2462 -0.1174  0.1507
 4251TIP3    H136948   3.900   1.108  17.665  0.7084  0.0369 -0.2471
 4251TIP3    H236949   3.871   0.996  17.763  0.0121 -1.1403 -1.7649
 4252TIP3   OH236950   0.163   1.040  19.188 -0.3598 -0.1300 -0.2930
 4252TIP3    H136951   0.173   1.016  19.096 -1.3659 -0.7575 -0.2602
 4252TIP3    H236952   0.183   1.133  19.191 -0.4581 -0.0697 -1.1739
 4253TIP3   OH236953   1.005   6.539  21.230 -0.1869 -0.3649  0.3654
 4253TIP3    H136954   0.931   6.577  21.183  0.4560 -0.5562 -0.8328
 4253TIP3    H236955   0.966   6.497  21.306 -1.0933  1.2089  0.8138
 4254TIP3   OH236956   0.136   0.862  21.665 -0.0788 -0.2240 -0.2598
 4254TIP3    H136957   0.177   0.943  21.634 -1.4681  0.1644 -1.1865
 4254TIP3    H236958   0.099   0.884  21.750  2.0100 -0.7348  0.8658
 4255TIP3   OH236959   2.658   1.734  18.711  0.7918 -0.0049 -0.2354
 4255TIP3    H136960   2.738   1.696  18.677 -0.1289 -1.3044 -1.0441
 4255TIP3    H236961   2.621   1.667  18.768 -0.9497 -0.4982 -1.8340
 4256TIP3   OH236962   6.264   2.700  19.060  0.4077 -0.1538  0.3604
 4256TIP3    H136963   6.311   2.671  19.138  0.1206  0.1428  0.6477
 4256TIP3    H236964   6.250   2.794  19.074  2.7785  0.5470 -1.2868
 4257TIP3   OH236965   0.929   4.953  19.080  0.6370  0.8005 -0.4228
 4257TIP3    H136966   0.985   4.876  19.079 -0.4149  0.0192 -1.1613
 4257TIP3    H236967   0.960   5.005  19.006  1.0981  0.9226 -0.1519
 4258TIP3   OH236968   6.203   5.058  18.184 -0.1983 -0.5772  0.1877
 4258TIP3    H136969   6.195   5.119  18.257 -0.2526  0.2496 -0.4915
 4258TIP3    H236970   6.228   4.975  18.224 -0.7717 -0.2771  1.1960
 4259TIP3   OH236971   2.499   1.001  20.331  0.3518 -0.4417  0.2329
 4259TIP3    H136972   2.584   1.043  20.322 -0.2001  0.8074  0.5620
 4259TIP3    H236973   2.456   1.048  20.402 -0.7489 -0.7962 -0.1643
 4260TIP3   OH236974   3.511   1.732  19.949  0.1009  0.4863 -0.3613
 4260TIP3    H136975   3.428   1.779  19.962  0.6983  1.7721 -0.9710
 4260TIP3    H236976   3.556   1.740  20.033 -0.2161  0.1398 -0.1560
 4261TIP3   OH236977   2.279   5.702  17.610  0.1707 -0.3603  0.0435
 4261TIP3    H136978   2.225   5.688  17.688  0.1954 -1.2079 -0.0731
 4261TIP3    H236979   2.262   5.792  17.584 -1.5528 -0.7517 -0.2844
 4262TIP3   OH236980   4.689   2.010  20.732 -0.6666  0.3772 -0.1629
 4262TIP3    H136981   4.668   2.101  20.750  0.6226  0.3006  2.1254
 4262TIP3    H236982   4.757   1.988  20.796 -0.7579 -2.1088 -0.8140
 4263TIP3   OH236983   3.530   5.054  20.635 -0.4975 -0.1108  0.0850
 4263TIP3    H136984   3.503   5.068  20.544  1.5245  1.5038 -0.3500
 4263TIP3    H236985   3.577   4.971  20.634 -0.2839  0.0109 -0.4066
 4264TIP3   OH236986   0.976   3.718  19.387 -0.3113 -0.0825 -0.4433
 4264TIP3    H136987   1.047   3.675  19.338  1.0236  2.3258 -0.7674
 4264TIP3    H236988   1.021   3.768  19.455 -1.6151  2.0686 -1.0821
 4265TIP3   OH236989   3.226   2.883  19.824  0.0835  0.6990  0.1108
 4265TIP3    H136990   3.183   2.942  19.887  0.9377  1.1032  0.3281
 4265TIP3    H236991   3.222   2.797  19.867 -0.3623  0.7574  0.1984
 4266TIP3   OH236992   0.427   1.069  19.857 -0.0997 -0.3428 -0.0597
 4266TIP3    H136993   0.440   1.014  19.779 -1.1561 -0.3687 -0.2364
 4266TIP3    H236994   0.482   1.029  19.924 -0.2971 -1.2023 -0.3952
 4267TIP3   OH236995   2.896   3.753  20.661 -0.2471 -0.7731 -0.0265
 4267TIP3    H136996   2.838   3.697  20.610 -0.3114  0.0575 -0.8675
 4267TIP3    H236997   2.844   3.830  20.682  0.8874  0.5489 -1.8362
 4268TIP3   OH236998   1.027   4.915  18.587 -0.0680 -0.1004  0.7661
 4268TIP3    H136999   0.973   4.970  18.531  0.3602 -0.4452  0.0001
 4268TIP3    H237000   1.114   4.955  18.584  0.0971 -0.4542  0.7059
 4269TIP3   OH237001   3.226   2.430  18.275 -0.3008  0.5204  0.4416
 4269TIP3    H137002   3.252   2.339  18.263 -1.3830  0.2734 -0.1287
 4269TIP3    H237003   3.283   2.480  18.217  0.3417  0.2162  0.8101
 4270TIP3   OH237004   1.668   0.025  21.050  0.2095  0.3175 -0.0498
 4270TIP3    H137005   1.716  -0.055  21.030 -0.7619 -0.2969  0.0093
 4270TIP3    H237006   1.675   0.034  21.145 -0.5290 -0.2545  0.0607
 4271TIP3   OH237007   1.870   0.995  19.336  0.2588  0.4558  0.0401
 4271TIP3    H137008   1.917   0.917  19.364 -0.7350 -0.7141 -1.4129
 4271TIP3    H237009   1.874   0.993  19.241 -0.9422  1.4479 -0.0617
 4272TIP3   OH237010   5.271   0.399  19.225 -0.1694  0.1469  0.7517
 4272TIP3    H137011   5.178   0.377  19.219 -0.3675  1.2275 -0.5033
 4272TIP3    H237012   5.281   0.434  19.314 -0.9528  0.0180  0.8993
 4273TIP3   OH237013   0.378   1.016  20.438 -0.3303 -0.3106  0.2097
 4273TIP3    H137014   0.319   1.088  20.415  0.3016 -0.5230 -2.2710
 4273TIP3    H237015   0.335   0.938  20.404  0.3446 -0.7561  0.3645
 4274TIP3   OH237016   5.745   2.632  18.313 -0.1126 -0.1597 -0.4549
 4274TIP3    H137017   5.794   2.659  18.234  0.8986 -0.2546  0.1169
 4274TIP3    H237018   5.801   2.659  18.386 -0.6736 -0.7752  0.2156
 4275TIP3   OH237019   5.682   0.534  18.900 -0.0563 -0.2520  0.3987
 4275TIP3    H137020   5.684   0.562  18.991  1.8470 -1.2385  0.7036
 4275TIP3    H237021   5.655   0.442  18.904 -1.9140  0.2002 -0.2462
 4276TIP3   OH237022   0.088   0.155  19.008  0.3099 -0.2228 -0.0593
 4276TIP3    H137023   0.041   0.233  19.035  1.0618 -0.6294  2.7125
 4276TIP3    H237024   0.063   0.142  18.917 -2.9558  0.9649  0.5401
 4277TIP3   OH237025   6.420   5.180  19.432 -0.1773 -0.1110  0.0557
 4277TIP3    H137026   6.362   5.138  19.495 -1.4848  0.6847 -0.5720
 4277TIP3    H237027   6.362   5.237  19.381  1.1044  0.4207 -0.8446
 4278TIP3   OH237028   6.600   1.304  18.031 -0.3382  0.0633  0.2436
 4278TIP3    H137029   6.533   1.244  17.997  0.1081  0.8606 -2.2218
 4278TIP3    H237030   6.677   1.249  18.044  0.0510  0.0234 -1.9507
 4279TIP3   OH237031   4.465   4.882  18.956 -0.0077  0.1697 -0.0976
 4279TIP3    H137032   4.410   4.841  19.023  1.3177  0.7563  1.4277
 4279TIP3    H237033   4.551   4.841  18.967  1.2442  2.8717  1.1614
 4280TIP3   OH237034   1.232   0.220  18.212 -0.3458  0.4062 -0.1690
 4280TIP3    H137035   1.307   0.192  18.160  0.3176 -1.2116  1.5673
 4280TIP3    H237036   1.159   0.166  18.180 -0.1298  0.0027  0.0149
 4281TIP3   OH237037   0.269   1.311  19.408  1.2719  0.5034  0.2524
 4281TIP3    H137038   0.271   1.330  19.314  0.0171 -1.5323 -0.2674
 4281TIP3    H237039   0.238   1.392  19.449  1.2759  1.2435 -1.1487
 4282TIP3   OH237040   1.622   3.752  18.534 -0.9541  0.1520  0.0522
 4282TIP3    H137041   1.536   3.756  18.493 -0.9329  2.6403  0.1164
 4282TIP3    H237042   1.671   3.823  18.494  0.9198 -0.8549  0.4282
 4283TIP3   OH237043   5.858   3.866  20.440  0.0154 -0.3822 -0.0940
 4283TIP3    H137044   5.904   3.889  20.359 -1.8977  0.2076 -1.0654
 4283TIP3    H237045   5.877   3.940  20.499  0.2765 -0.1276 -0.4884
 4284TIP3   OH237046   5.307   3.302  19.294  0.1887 -0.3049 -0.3432
 4284TIP3    H137047   5.341   3.335  19.211 -0.0082 -0.0747 -0.3319
 4284TIP3    H237048   5.320   3.207  19.289  0.1111 -0.2988 -0.6665
 4285TIP3   OH237049   4.544   4.158  18.191 -0.3357 -0.4646  0.0275
 4285TIP3    H137050   4.567   4.082  18.246  0.3712 -0.0348  0.3491
 4285TIP3    H237051   4.583   4.138  18.106  0.4439 -0.1642  0.3044
 4286TIP3   OH237052   5.281   0.304  19.865  0.3078 -0.2495 -0.1791
 4286TIP3    H137053   5.225   0.329  19.939 -1.7374  0.5807 -1.9074
 4286TIP3    H237054   5.225   0.249  19.811  1.8325 -1.0062 -1.0287
 4287TIP3   OH237055   2.486   5.698  18.328  0.1477  0.1005  0.2800
 4287TIP3    H137056   2.503   5.608  18.301 -1.0838  0.2186 -0.9909
 4287TIP3    H237057   2.391   5.709  18.317  0.4484  1.9352 -0.8390
 4288TIP3   OH237058   6.608   6.082  18.938  0.6767 -0.1121 -0.2974
 4288TIP3    H137059   6.525   6.116  18.905 -0.4342 -0.1137  2.2821
 4288TIP3    H237060   6.659   6.160  18.960 -1.0625  0.1386  3.6562
 4289TIP3   OH237061   5.819   0.223  19.067  0.4082 -0.2284 -0.0649
 4289TIP3    H137062   5.745   0.209  19.008 -0.7501  1.3904  0.9556
 4289TIP3    H237063   5.873   0.288  19.022  0.2324 -0.0112  0.0373
 4290TIP3   OH237064   3.000   3.129  20.031 -0.1162 -0.0550  0.2723
 4290TIP3    H137065   2.965   3.056  20.081  1.2099 -1.3304 -0.5821
 4290TIP3    H237066   2.994   3.101  19.940  3.2075 -0.5054  0.0495
 4291TIP3   OH237067   1.556   1.839  21.603 -0.1219 -0.0244  0.1954
 4291TIP3    H137068   1.608   1.887  21.538  1.0079 -2.1136 -0.5223
 4291TIP3    H237069   1.622   1.800  21.661 -1.0031 -0.6554  0.7920
 4292TIP3   OH237070   2.167   5.185  18.955 -0.0008 -0.3936 -0.0222
 4292TIP3    H137071   2.124   5.106  18.922 -0.6423 -0.1552  0.2359
 4292TIP3    H237072   2.109   5.218  19.022  0.7441 -0.2359  0.5610
 4293TIP3   OH237073   5.922   6.024  20.103 -0.0006  0.2156 -0.2861
 4293TIP3    H137074   5.898   5.936  20.131 -1.1688  0.0121 -1.8461
 4293TIP3    H237075   5.993   6.049  20.163 -1.0150 -0.9555  1.5096
 4294TIP3   OH237076   1.089   3.794  19.659 -0.5434  0.1254  0.3545
 4294TIP3    H137077   1.016   3.853  19.675  0.1837  0.8358  1.2074
 4294TIP3    H237078   1.164   3.852  19.643 -0.1792 -0.5792 -0.6087
 4295TIP3   OH237079   2.214   4.286  19.645 -0.1082  0.2018 -0.3661
 4295TIP3    H137080   2.263   4.234  19.582 -1.5007 -0.5790 -0.8517
 4295TIP3    H237081   2.211   4.374  19.606  0.4413  0.1267 -0.5816
 4296TIP3   OH237082   1.016   4.376  19.636  0.0184  0.6737  0.4364
 4296TIP3    H137083   0.958   4.350  19.564  0.2970  0.5588  0.2545
 4296TIP3    H237084   1.098   4.331  19.619 -0.2624 -0.2697  1.4405
 4297TIP3   OH237085   3.483   6.373  19.926  0.3431  0.0565  0.4191
 4297TIP3    H137086   3.451   6.405  20.010 -1.3034 -1.8064  0.5604
 4297TIP3    H237087   3.464   6.443  19.864 -0.3656  0.5815  1.2186
 4298TIP3   OH237088   5.131   5.658  18.323  0.5336  0.4111 -0.7126
 4298TIP3    H137089   5.203   5.658  18.260 -0.2058 -1.5730 -1.6381
 4298TIP3    H237090   5.079   5.581  18.300 -1.1946  1.0793  0.7259
 4299TIP3   OH237091   4.610   6.494  20.245  0.2980 -0.1629  0.7938
 4299TIP3    H137092   4.589   6.504  20.337 -0.5750  1.4389  0.4501
 4299TIP3    H237093   4.560   6.562  20.201 -0.7467 -2.0094 -1.0806
 4300TIP3   OH237094   4.992   0.156  18.370  0.6083  0.2325  0.3701
 4300TIP3    H137095   5.022   0.199  18.290 -1.2935 -1.0603 -1.1657
 4300TIP3    H237096   4.986   0.063  18.346 -2.2331  0.0899  1.1947
 4301TIP3   OH237097   6.373   3.037  20.865 -0.1931  0.0615 -0.0991
 4301TIP3    H137098   6.420   3.116  20.838 -0.6261  0.3935  0.1132
 4301TIP3    H237099   6.442   2.978  20.896 -0.0152  1.2624  2.0415
 4302TIP3   OH237100   5.060   4.186  19.552 -0.3155 -0.3576  0.6718
 4302TIP3    H137101   5.092   4.096  19.547  0.8614  0.1072 -0.6479
 4302TIP3    H237102   5.135   4.236  19.585  0.2340  0.6578 -1.9122
 4303TIP3   OH237103   2.310   0.667  20.884 -0.2287  0.1207 -0.3593
 4303TIP3    H137104   2.290   0.612  20.959  0.1273  0.3277 -0.1077
 4303TIP3    H237105   2.318   0.605  20.811  0.6695 -0.2309  0.0154
 4304TIP3   OH237106   4.431   4.313  19.015  0.0654  0.6361  0.1502
 4304TIP3    H137107   4.517   4.355  19.011  0.4109 -0.0744  0.0318
 4304TIP3    H237108   4.392   4.344  19.097  0.4736  0.8818  0.2497
 4305TIP3   OH237109   4.482   2.248  19.988 -0.1395 -0.0576  0.7564
 4305TIP3    H137110   4.551   2.184  19.972 -1.0752 -1.0335  0.4768
 4305TIP3    H237111   4.485   2.264  20.083 -0.3346 -1.0376  0.9332
 4306TIP3   OH237112   2.701   5.840  20.924 -0.6395 -0.2331  0.1246
 4306TIP3    H137113   2.653   5.757  20.929  0.3734 -0.8017  0.6859
 4306TIP3    H237114   2.711   5.868  21.014  1.3926 -0.9224  0.1594
 4307TIP3   OH237115   3.014   0.485  17.875  0.6471 -0.0247  0.1264
 4307TIP3    H137116   2.961   0.560  17.849  1.7914  0.8775  0.2596
 4307TIP3    H237117   2.996   0.418  17.809  0.5053  0.8019 -0.6989
 4308TIP3   OH237118   3.254   6.198  18.207 -0.3521  0.3492 -0.0019
 4308TIP3    H137119   3.269   6.291  18.188  0.1314  0.5042  1.0247
 4308TIP3    H237120   3.164   6.195  18.240 -0.2187  0.5380  0.3930
 4309TIP3   OH237121   6.116   1.977  19.094  0.1716  0.1934 -0.1464
 4309TIP3    H137122   6.025   2.006  19.103  0.4285  1.3502 -1.0672
 4309TIP3    H237123   6.116   1.930  19.010  0.3288 -0.2341  0.0905
 4310TIP3   OH237124   3.250   5.876  19.396 -0.0033 -0.1021  0.1297
 4310TIP3    H137125   3.330   5.845  19.353 -1.3063 -0.9412 -1.8518
 4310TIP3    H237126   3.207   5.931  19.330 -2.4164 -1.9543 -0.0217
 4311TIP3   OH237127   4.592   2.229  17.825  0.0340  0.1245 -0.0850
 4311TIP3    H137128   4.544   2.311  17.815  0.0937  0.4373  1.8158
 4311TIP3    H237129   4.525   2.164  17.846 -0.0402 -0.4053 -1.7970
 4312TIP3   OH237130   3.894   4.287  20.605  0.2340 -0.1415  0.4147
 4312TIP3    H137131   3.884   4.202  20.648 -0.8608 -0.0068  0.4720
 4312TIP3    H237132   3.812   4.333  20.625  0.0669  0.2607 -1.0645
 4313TIP3   OH237133   3.183   5.225  19.467 -0.3582  0.4859 -0.0261
 4313TIP3    H137134   3.254   5.164  19.486 -0.1669  1.1943  1.7261
 4313TIP3    H237135   3.117   5.207  19.534 -0.8288  1.3521 -0.2400
 4314TIP3   OH237136   4.156   2.234  16.693  0.0402 -0.0049  0.0891
 4314TIP3    H137137   4.126   2.310  16.744 -0.3306  0.1675 -0.3757
 4314TIP3    H237138   4.076   2.187  16.670  0.1106  0.4099 -1.0863
 4315TIP3   OH237139   0.304   0.422  19.804 -0.8758 -0.2376 -0.9193
 4315TIP3    H137140   0.299   0.393  19.713  3.0466  1.0173 -1.6887
 4315TIP3    H237141   0.361   0.358  19.847 -1.7689 -0.1787  0.4282
 4316TIP3   OH237142   1.089   3.063  18.908  0.2082  0.7705 -0.2367
 4316TIP3    H137143   0.998   3.058  18.878  0.2108  0.3235 -0.1895
 4316TIP3    H237144   1.122   3.145  18.872 -0.1405  0.8117 -0.4710
 4317TIP3   OH237145   3.392   4.670  20.100 -0.7539  0.1711 -0.0070
 4317TIP3    H137146   3.403   4.678  20.005 -1.2605 -2.2426 -0.3172
 4317TIP3    H237147   3.478   4.643  20.132 -0.6935  0.5851  0.1936
 4318TIP3   OH237148   4.339   0.963  18.596  0.2003  0.4874 -0.0585
 4318TIP3    H137149   4.346   1.042  18.649 -0.1366  0.7932 -0.4697
 4318TIP3    H237150   4.283   0.904  18.647 -0.4617  0.9372 -0.2563
 4319TIP3   OH237151   6.149   1.394  19.080 -0.4463  0.4127 -0.3308
 4319TIP3    H137152   6.241   1.404  19.105 -0.8868  2.1582  0.7501
 4319TIP3    H237153   6.118   1.318  19.130  0.0713  0.6411  0.3524
 4320TIP3   OH237154   4.126   1.978  19.077 -0.5592 -0.0740 -1.1109
 4320TIP3    H137155   4.100   2.002  18.988 -0.4104 -1.7335 -1.6391
 4320TIP3    H237156   4.064   1.909  19.102  0.5089 -0.8839 -0.6362
 4321TIP3   OH237157   1.915   4.565  21.311  0.5889  0.1933 -0.1108
 4321TIP3    H137158   1.947   4.647  21.348 -1.4312  1.5278 -1.0992
 4321TIP3    H237159   1.960   4.497  21.360  2.6323  1.8732  0.4858
 4322TIP3   OH237160   1.140   1.497  18.180 -0.4884 -0.4410  0.2846
 4322TIP3    H137161   1.191   1.459  18.108 -1.4887 -1.9350  0.3094
 4322TIP3    H237162   1.190   1.574  18.207  0.1401 -0.0784 -1.7107
 4323TIP3   OH237163   0.016   6.333  21.109  0.2103 -0.2309 -0.0499
 4323TIP3    H137164   0.018   6.427  21.091 -1.0019 -0.0396  0.6691
 4323TIP3    H237165   0.062   6.324  21.192 -0.4636 -0.1409  0.3392
 4324TIP3   OH237166   6.369   0.940  21.343 -0.5177  0.0125 -0.4577
 4324TIP3    H137167   6.402   0.909  21.427 -0.4426  1.5785  0.1185
 4324TIP3    H237168   6.352   0.860  21.293 -1.0331 -0.9613  1.2120
 4325TIP3   OH237169   3.075   5.486  21.140  0.1548 -0.5057 -0.0730
 4325TIP3    H137170   3.076   5.582  21.144 -0.8340 -0.3476 -2.1592
 4325TIP3    H237171   2.984   5.462  21.161  0.4551 -1.0034  0.6744
 4326TIP3   OH237172   1.125   6.524  20.856 -0.1969  0.0341 -0.3030
 4326TIP3    H137173   1.121   6.526  20.761 -0.2798  0.2102 -0.2962
 4326TIP3    H237174   1.103   6.613  20.884  1.0340  0.3227 -0.1655
 4327TIP3   OH237175   0.935   2.014  18.742 -0.1826 -0.1575  0.1429
 4327TIP3    H137176   0.917   2.084  18.680 -2.9815  0.4875  1.5072
 4327TIP3    H237177   0.947   2.059  18.826 -0.3022 -1.2179  0.7461
 4328TIP3   OH237178   6.097   4.964  20.219 -0.5133 -0.0535  0.3499
 4328TIP3    H137179   6.073   5.048  20.258  0.4617 -0.4030  1.7416
 4328TIP3    H237180   6.180   4.940  20.260 -0.6153 -1.5570 -0.2459
 4329TIP3   OH237181   1.582   6.389  21.204 -0.6687 -0.3775  0.4229
 4329TIP3    H137182   1.675   6.386  21.180 -0.1595 -0.1566  2.1932
 4329TIP3    H237183   1.536   6.349  21.130  0.6809  0.8320 -1.1470
 4330TIP3   OH237184   0.743   0.628  18.175 -0.0943 -0.4948  0.1332
 4330TIP3    H137185   0.666   0.574  18.191  1.2091 -2.1078  1.2781
 4330TIP3    H237186   0.782   0.592  18.095 -0.6641  0.5191 -0.6228
 4331TIP3   OH237187   1.134   0.277  21.140 -0.3791  0.0232  0.0422
 4331TIP3    H137188   1.174   0.197  21.174 -0.0362  0.6285  1.1207
 4331TIP3    H237189   1.086   0.249  21.062  2.0613 -0.7428 -1.2796
 4332TIP3   OH237190   2.501   0.790  19.093 -0.0311  0.3415  0.3464
 4332TIP3    H137191   2.501   0.711  19.038 -0.4829  0.5467  0.0483
 4332TIP3    H237192   2.560   0.768  19.165 -0.6290 -0.5056  0.5971
 4333TIP3   OH237193   6.569   0.712  20.892 -0.0984 -0.2860  0.0810
 4333TIP3    H137194   6.502   0.777  20.870  1.6516  1.3933 -0.5735
 4333TIP3    H237195   6.531   0.662  20.965 -1.6164  1.3250  0.4542
 4334TIP3   OH237196   5.435   5.462  20.303 -0.1343  0.3119  0.7701
 4334TIP3    H137197   5.341   5.476  20.320 -0.3769 -0.0151 -0.2149
 4334TIP3    H237198   5.437   5.380  20.252  0.7053  0.2045  0.9740
 4335TIP3   OH237199   3.399   4.205  18.847  0.2111 -0.2753 -0.1837
 4335TIP3    H137200   3.340   4.244  18.783 -1.6173 -0.5015  1.2752
 4335TIP3    H237201   3.394   4.111  18.831 -0.8964 -0.4027  0.7491
 4336TIP3   OH237202   3.538   4.486  20.282  0.1106 -0.0866 -0.0019
 4336TIP3    H137203   3.611   4.450  20.232  0.7712  1.4954 -0.2313
 4336TIP3    H237204   3.572   4.493  20.372 -0.3571 -0.9378  0.2536
 4337TIP3   OH237205   1.137   2.840  20.346 -0.2094 -0.0379  0.6353
 4337TIP3    H137206   1.093   2.851  20.431  0.1150 -2.7104  1.2551
 4337TIP3    H237207   1.230   2.837  20.367 -0.1553 -1.3111  0.3050
 4338TIP3   OH237208   2.936   2.911  21.098  0.1049  0.0874 -0.2410
 4338TIP3    H137209   2.978   2.848  21.157 -2.2874 -1.1339  0.2608
 4338TIP3    H237210   2.901   2.978  21.156 -0.9481 -0.3322 -0.3680
 4339TIP3   OH237211   2.255   6.188  19.662 -0.1003  0.0244 -0.1843
 4339TIP3    H137212   2.279   6.096  19.672  1.1280  0.3944  0.4375
 4339TIP3    H237213   2.336   6.231  19.633 -0.9834  0.7141 -1.7733
 4340TIP3   OH237214   4.129   0.458  21.009 -0.2159  0.3619 -0.1732
 4340TIP3    H137215   4.093   0.523  20.948 -2.6415  0.0490  0.7931
 4340TIP3    H237216   4.052   0.416  21.048  1.1492 -3.6495 -1.2416
 4341TIP3   OH237217   6.078   3.047  17.909 -0.4800  0.3086 -0.6703
 4341TIP3    H137218   5.984   3.063  17.903 -0.2764  0.9774 -2.6372
 4341TIP3    H237219   6.097   2.986  17.838  0.7208  0.9362 -0.9120
 4342TIP3   OH237220   2.691   3.195  20.533  0.1805  0.6005 -0.5581
 4342TIP3    H137221   2.661   3.156  20.451 -0.1156 -0.7246  0.1482
 4342TIP3    H237222   2.622   3.257  20.557 -1.4112 -1.4073  0.3387
 4343TIP3   OH237223   5.278   1.169  20.005  0.1035 -0.0193 -0.2873
 4343TIP3    H137224   5.350   1.116  20.039 -0.3656  1.0736  2.7105
 4343TIP3    H237225   5.204   1.108  20.001  0.4521 -0.4400 -0.4526
 4344TIP3   OH237226   2.750   1.187  19.023 -0.1553 -0.4644 -0.4130
 4344TIP3    H137227   2.742   1.236  18.941 -1.0116  1.2297  0.6366
 4344TIP3    H237228   2.661   1.161  19.045  0.2105 -1.9927 -0.6072
 4345TIP3   OH237229   2.344   3.874  19.098  0.2730  0.3002  0.1514
 4345TIP3    H137230   2.281   3.802  19.097  0.3780  0.1846  1.1177
 4345TIP3    H237231   2.312   3.934  19.166  1.8501 -0.3691  1.5408
 4346TIP3   OH237232   1.211   4.864  18.815  0.1164 -0.0392  0.2236
 4346TIP3    H137233   1.138   4.830  18.867 -1.3363 -0.0453 -1.7067
 4346TIP3    H237234   1.202   4.959  18.823  0.4546 -0.0450  0.7038
 4347TIP3   OH237235   1.609   3.628  19.239 -0.5422 -0.5747  0.0303
 4347TIP3    H137236   1.651   3.647  19.155 -1.5402  0.9082 -0.1699
 4347TIP3    H237237   1.516   3.617  19.217 -1.2048  2.0307  1.1443
 4348TIP3   OH237238   4.394   2.106  18.677  0.0540  0.5729 -0.3711
 4348TIP3    H137239   4.403   2.042  18.748 -2.4538 -1.1272 -1.4348
 4348TIP3    H237240   4.335   2.173  18.713  0.6179  0.9514 -0.1285
 4349TIP3   OH237241   6.125   1.174  20.851  0.4637  0.1792  0.2409
 4349TIP3    H137242   6.107   1.109  20.783  1.7959 -0.2855  0.2869
 4349TIP3    H237243   6.106   1.258  20.810  0.0865 -0.1618 -0.2969
 4350TIP3   OH237244   1.658   2.504  21.478  0.5660 -0.2834 -0.4146
 4350TIP3    H137245   1.670   2.439  21.547  1.2886 -0.7822 -0.9988
 4350TIP3    H237246   1.617   2.456  21.406  0.8196 -0.0198 -0.7372
 4351TIP3   OH237247   3.731   5.227  18.771  0.2949 -0.1016  0.2599
 4351TIP3    H137248   3.747   5.197  18.860  0.6865 -0.7729 -0.0248
 4351TIP3    H237249   3.782   5.307  18.763 -0.7628  0.6696  1.0358
 4352TIP3   OH237250   5.597   3.909  18.896  0.5630 -0.4469 -0.1648
 4352TIP3    H137251   5.638   3.953  18.971 -0.8485  1.5430 -0.4730
 4352TIP3    H237252   5.620   3.817  18.907  0.6638 -0.1883  2.5532
 4353TIP3   OH237253   6.583   3.253  18.164  0.1483  0.0086  0.1211
 4353TIP3    H137254   6.677   3.272  18.157  0.4908 -1.0412  1.4343
 4353TIP3    H237255   6.568   3.244  18.258 -1.3749  0.5763 -0.0444
 4354TIP3   OH237256   2.164   5.507  19.154 -0.4198 -0.7183  0.1832
 4354TIP3    H137257   2.135   5.417  19.174  1.0235 -1.4825 -0.9416
 4354TIP3    H237258   2.250   5.495  19.113  0.3978  1.2711  1.1929
 4355TIP3   OH237259   0.347   3.978  19.297  0.3344 -0.0141 -0.3661
 4355TIP3    H137260   0.318   3.893  19.263  2.1126 -0.0968 -1.8584
 4355TIP3    H237261   0.355   3.964  19.391  0.1388 -1.3766 -0.5249
 4356TIP3   OH237262   1.547   0.854  18.514 -0.1791 -0.0221  0.0169
 4356TIP3    H137263   1.562   0.893  18.428  0.7951  1.3032  0.7270
 4356TIP3    H237264   1.591   0.769  18.510  1.5836  0.8404 -0.2182
 4357TIP3   OH237265   5.355   6.337  20.971 -0.3626  0.0942 -0.5614
 4357TIP3    H137266   5.361   6.371  20.881 -2.3716 -0.1367 -0.8159
 4357TIP3    H237267   5.359   6.242  20.960  2.0080  0.0688 -0.1194
 4358TIP3   OH237268   5.823   3.306  20.370 -0.0844 -0.1026 -0.2951
 4358TIP3    H137269   5.872   3.227  20.347  0.8275  0.0521  0.9830
 4358TIP3    H237270   5.857   3.373  20.310 -0.1162 -0.4331 -0.6889
 4359TIP3   OH237271   5.282   5.324  19.962  0.5004  0.3306  0.1535
 4359TIP3    H137272   5.333   5.283  19.891  1.8418  0.8437  0.7775
 4359TIP3    H237273   5.308   5.277  20.040 -1.4310 -0.6293  0.2661
 4360TIP3   OH237274   1.093   6.190  20.212 -0.1089  0.1925  0.3034
 4360TIP3    H137275   1.129   6.182  20.300 -0.3730  1.7247  0.5824
 4360TIP3    H237276   1.160   6.153  20.155  0.8510  0.8164  1.0073
 4361TIP3   OH237277   4.697   3.461  19.842 -0.2955 -0.4220 -0.1512
 4361TIP3    H137278   4.602   3.464  19.829  0.0923 -0.5113 -3.8865
 4361TIP3    H237279   4.722   3.553  19.856 -1.0419 -0.5926  3.1968
 4362TIP3   OH237280   2.359   4.311  20.554  0.3541  0.1339 -0.1398
 4362TIP3    H137281   2.417   4.248  20.511  2.0094  1.0006  0.7443
 4362TIP3    H237282   2.339   4.375  20.485 -2.0511 -1.7121 -1.3042
 4363TIP3   OH237283   0.420   6.330  18.437 -0.3186 -0.2829 -0.2002
 4363TIP3    H137284   0.396   6.252  18.387  0.4837 -0.2848 -0.5952
 4363TIP3    H237285   0.513   6.342  18.420 -0.0356 -0.2538  1.2767
 4364TIP3   OH237286   0.792   4.334  19.125 -0.6078 -0.0824 -0.5040
 4364TIP3    H137287   0.831   4.252  19.156 -0.7816 -0.3738 -1.0474
 4364TIP3    H237288   0.739   4.364  19.199 -1.0213 -0.7723 -0.5120
 4365TIP3   OH237289   2.932   1.551  20.567 -0.3740  0.3219 -0.2799
 4365TIP3    H137290   2.992   1.517  20.500  0.8673 -1.1299  1.4781
 4365TIP3    H237291   2.892   1.627  20.526  2.1592  0.9512 -1.8156
 4366TIP3   OH237292   1.934   6.584  20.299  0.4016  0.7212 -0.4313
 4366TIP3    H137293   2.016   6.561  20.342  1.2017  1.0343 -1.7117
 4366TIP3    H237294   1.866   6.556  20.360  1.4482  0.2027  0.5438
 4367TIP3   OH237295   1.501   1.114  20.506  0.6363 -0.5307 -0.0263
 4367TIP3    H137296   1.572   1.131  20.443 -0.2567 -0.5293 -1.0611
 4367TIP3    H237297   1.463   1.200  20.522 -0.4782 -0.7806 -1.1404
 4368TIP3   OH237298   4.078   4.185  19.389  0.1846  0.3198 -0.5546
 4368TIP3    H137299   4.168   4.201  19.418  0.2428 -0.5805 -0.1868
 4368TIP3    H237300   4.027   4.254  19.431  0.7955  1.2860 -1.3632
 4369TIP3   OH237301   2.626   5.803  18.805 -0.4263 -0.3938  0.3669
 4369TIP3    H137302   2.582   5.856  18.739  0.8238  3.3390  2.2380
 4369TIP3    H237303   2.555   5.769  18.860 -1.2259  0.9233  0.1794
 4370TIP3   OH237304   2.781   5.533  21.054 -0.0751 -0.0021  0.3451
 4370TIP3    H137305   2.860   5.504  21.010  0.5620  1.1502  0.7072
 4370TIP3    H237306   2.710   5.513  20.992  0.8918  2.8280 -1.8679
 4371TIP3   OH237307   3.043   6.287  21.071 -0.1173 -0.2924  0.0510
 4371TIP3    H137308   3.000   6.364  21.034  1.3201 -0.2946 -1.7502
 4371TIP3    H237309   3.135   6.296  21.047  0.2715 -2.0388  0.7125
 4372TIP3   OH237310   3.951   3.347  19.696  0.2429  0.2713 -0.1175
 4372TIP3    H137311   3.861   3.365  19.670  0.8124 -0.9928 -3.4261
 4372TIP3    H237312   3.948   3.257  19.729 -0.1237  1.2348  2.8087
 4373TIP3   OH237313   1.772   2.145  19.263 -0.2934 -0.1199 -0.4427
 4373TIP3    H137314   1.819   2.081  19.317 -1.4154 -1.1466 -0.6279
 4373TIP3    H237315   1.835   2.216  19.250  1.1277 -1.3343 -0.5140
 4374TIP3   OH237316   3.805   1.554  20.471  0.2876 -0.0894 -0.4934
 4374TIP3    H137317   3.828   1.535  20.379 -2.8622 -2.3439 -0.9439
 4374TIP3    H237318   3.856   1.491  20.522 -0.1461 -0.8076 -0.9400
 4375TIP3   OH237319   1.668   2.661  18.488 -0.5030 -0.3013 -0.6389
 4375TIP3    H137320   1.671   2.638  18.395 -0.4430  0.7739 -0.9161
 4375TIP3    H237321   1.641   2.753  18.489 -0.2676 -0.2335  0.3959
 4376TIP3   OH237322   1.640   0.515  20.660 -0.2754  0.3159 -0.5034
 4376TIP3    H137323   1.728   0.539  20.689  0.4518  0.5104 -2.6752
 4376TIP3    H237324   1.646   0.421  20.643 -0.6487  0.2300 -0.1650
 4377TIP3   OH237325   2.780   0.089  18.250  0.0362 -0.3534  0.2639
 4377TIP3    H137326   2.829   0.013  18.280 -0.9372 -1.2034 -0.2621
 4377TIP3    H237327   2.833   0.164  18.278  1.2994 -1.2243  0.2828
 4378TIP3   OH237328   6.374   1.879  17.660 -0.4265  0.2733  0.0899
 4378TIP3    H137329   6.453   1.885  17.605  0.6678  0.4134  1.6138
 4378TIP3    H237330   6.342   1.790  17.646  0.2044  0.0984 -0.2886
 4379TIP3   OH237331   6.097   3.011  19.996 -0.2006 -0.3727  0.3094
 4379TIP3    H137332   6.144   2.951  20.054 -0.7806  0.4292  1.6470
 4379TIP3    H237333   6.093   2.965  19.912  0.6536 -1.5606  0.8948
 4380TIP3   OH237334   0.290   3.731  18.877  0.0538 -0.1471 -0.7490
 4380TIP3    H137335   0.321   3.651  18.837  0.1916 -0.2120 -0.5141
 4380TIP3    H237336   0.309   3.721  18.971 -0.3639 -0.0458 -0.6514
 4381TIP3   OH237337   0.534   5.894  20.784  0.5524  0.6676  0.1397
 4381TIP3    H137338   0.471   5.912  20.853  0.4030  1.9168 -0.2983
 4381TIP3    H237339   0.604   5.957  20.798  0.8120  0.5218 -0.4759
 4382TIP3   OH237340   3.413   1.240  19.135  0.3208 -0.5498  0.1113
 4382TIP3    H137341   3.369   1.325  19.137  1.4047  0.2144 -2.7621
 4382TIP3    H237342   3.442   1.225  19.225  0.9801  2.6515  0.5628
 4383TIP3   OH237343   1.772   5.998  18.320  0.0604 -0.0813  0.8333
 4383TIP3    H137344   1.679   6.008  18.299 -0.2356 -0.7065  1.8121
 4383TIP3    H237345   1.804   5.933  18.257 -0.0535  0.4609  0.2051
 4384TIP3   OH237346   5.596   1.706  18.826  0.0220  0.1039 -0.2279
 4384TIP3    H137347   5.554   1.791  18.841  1.3981  1.0715 -1.4730
 4384TIP3    H237348   5.683   1.729  18.792  0.2506 -1.8067 -1.0309
 4385TIP3   OH237349   4.059   1.184  19.214  0.8403 -0.1941 -0.2939
 4385TIP3    H137350   4.064   1.140  19.299  1.5016 -0.4493 -0.4602
 4385TIP3    H237351   4.084   1.116  19.151  0.2141 -0.0443 -0.7070
 4386TIP3   OH237352   2.919   0.311  18.696 -0.1631  0.7287 -0.7093
 4386TIP3    H137353   2.932   0.217  18.681 -0.1215  0.5849  0.1466
 4386TIP3    H237354   2.981   0.354  18.638  0.7258  0.1816 -0.1955
 4387TIP3   OH237355   2.106   4.290  20.614 -0.1389  0.0565  0.3552
 4387TIP3    H137356   2.200   4.295  20.601 -0.2572 -0.6692 -0.9860
 4387TIP3    H237357   2.092   4.201  20.649 -0.5717 -1.1452 -2.5666
 4388TIP3   OH237358   3.572   5.453  19.573  0.1942  0.0218  0.3432
 4388TIP3    H137359   3.506   5.390  19.605 -0.6826  1.4625  1.4935
 4388TIP3    H237360   3.655   5.419  19.607 -0.0523 -1.2788 -0.2690
 4389TIP3   OH237361   4.280   3.758  20.270  0.1550  0.0727  0.4218
 4389TIP3    H137362   4.253   3.730  20.358  2.4311 -0.5647  0.9763
 4389TIP3    H237363   4.240   3.694  20.211  0.8434 -1.1495  1.2436
 4390TIP3   OH237364   1.897   5.800  20.847 -0.1638  0.1694  0.0874
 4390TIP3    H137365   1.828   5.811  20.913  1.4286  2.0573  1.5761
 4390TIP3    H237366   1.969   5.757  20.895  0.6431  0.6341 -0.6743
 4391TIP3   OH237367   1.955   0.794  21.683  0.1126  0.1335  0.0085
 4391TIP3    H137368   2.038   0.802  21.636  0.1010 -1.1446 -0.2582
 4391TIP3    H237369   1.981   0.795  21.776  0.4244 -0.2557 -0.0720
 4392TIP3   OH237370   4.275   0.919  17.452  0.3185 -0.0254 -0.0335
 4392TIP3    H137371   4.237   0.969  17.380 -1.8852 -1.5390  0.0037
 4392TIP3    H237372   4.366   0.905  17.426 -0.1386  0.4177 -1.9986
 4393TIP3   OH237373   2.486   0.296  17.396  0.6857 -0.0324 -0.4329
 4393TIP3    H137374   2.541   0.321  17.322  1.7512 -1.7392 -0.2747
 4393TIP3    H237375   2.521   0.347  17.470  0.5575  0.5857 -0.7912
 4394TIP3   OH237376   2.429   3.453  19.979 -0.5750  0.5279  0.3886
 4394TIP3    H137377   2.480   3.400  19.919 -1.7793  0.3369 -0.4960
 4394TIP3    H237378   2.441   3.543  19.948  1.8554  0.9291  2.1758
 4395TIP3   OH237379   2.388   1.561  20.761  0.1464  0.3869 -0.2059
 4395TIP3    H137380   2.424   1.481  20.799  0.7491  1.1905  0.9968
 4395TIP3    H237381   2.449   1.630  20.789 -1.5962  1.6045  0.7569
 4396TIP3   OH237382   4.781   1.948  21.159  0.1592 -0.0952 -0.1546
 4396TIP3    H137383   4.869   1.913  21.144  0.5020 -0.1289  1.7554
 4396TIP3    H237384   4.760   1.994  21.077  2.7361  1.5467 -0.0062
 4397TIP3   OH237385   3.549   4.418  18.893 -0.0188  0.1007  0.5003
 4397TIP3    H137386   3.490   4.493  18.889 -0.5077 -0.1917  1.6749
 4397TIP3    H237387   3.493   4.343  18.872  1.0136  0.2133 -3.4935
 4398TIP3   OH237388   1.825   0.188  21.573 -0.0307  0.1539 -0.1167
 4398TIP3    H137389   1.859   0.273  21.603 -0.3860 -0.1317  1.1807
 4398TIP3    H237390   1.739   0.181  21.616  0.0608 -0.9251 -0.1004
 4399TIP3   OH237391   2.811   0.664  20.897  0.0493 -0.1085  0.1557
 4399TIP3    H137392   2.772   0.576  20.895  1.8405 -0.9853  1.2496
 4399TIP3    H237393   2.758   0.712  20.960  0.8956 -1.4125  1.9473
 4400TIP3   OH237394   5.838   5.801  19.609 -0.2589 -0.5276 -0.0207
 4400TIP3    H137395   5.928   5.768  19.604 -0.3509 -0.7752 -0.0632
 4400TIP3    H237396   5.842   5.874  19.671 -0.3140 -1.4944  1.1421
 4401TIP3   OH237397   0.278   2.449  21.291  0.2103  0.5888  0.6287
 4401TIP3    H137398   0.318   2.378  21.241  1.2778  1.5880  0.0175
 4401TIP3    H237399   0.193   2.414  21.318  0.1766 -0.4568 -0.7209
 4402TIP3   OH237400   3.028   4.069  20.463  0.0707 -0.0285 -0.0378
 4402TIP3    H137401   2.969   4.124  20.412 -0.9681 -0.0280  1.1238
 4402TIP3    H237402   3.054   3.999  20.403  0.7796  1.2667 -1.2767
 4403TIP3   OH237403   3.712   5.939  18.055  0.2428 -0.5381 -0.2119
 4403TIP3    H137404   3.732   5.847  18.067  1.1796 -0.1083  2.0291
 4403TIP3    H237405   3.619   5.941  18.032  0.4609 -2.0569 -1.3321
 4404TIP3   OH237406   4.321   1.391  18.496  0.6987  0.1283  0.4963
 4404TIP3    H137407   4.414   1.371  18.507  0.1928 -1.9098  1.4594
 4404TIP3    H237408   4.309   1.396  18.401  1.9877  1.6468  0.3653
 4405TIP3   OH237409   2.754   1.390  19.274  0.4972 -0.2250 -0.2983
 4405TIP3    H137410   2.690   1.456  19.248  0.1898  0.0871  1.1646
 4405TIP3    H237411   2.706   1.307  19.269  0.2451 -0.0941 -0.0898
 4406TIP3   OH237412   3.963   0.105  19.837  0.4084 -0.0322  0.0211
 4406TIP3    H137413   3.944   0.095  19.931 -1.5769 -0.1150 -0.3468
 4406TIP3    H237414   4.042   0.158  19.834  1.1319 -0.9323  1.7611
 4407TIP3   OH237415   5.435   3.249  19.595 -0.0090 -0.2343 -0.0170
 4407TIP3    H137416   5.393   3.236  19.680  2.6963  1.8079  1.8306
 4407TIP3    H237417   5.371   3.297  19.543 -1.0072  0.3124  1.6394
 4408TIP3   OH237418   0.043   5.947  21.287  0.5243  0.1894  0.0575
 4408TIP3    H137419   0.026   6.008  21.359 -0.2830  0.0104  0.0349
 4408TIP3    H237420   0.132   5.916  21.302  1.2859  2.0174 -0.4082
 4409TIP3   OH237421   6.455   4.430  19.096 -0.2254 -0.2420 -0.0334
 4409TIP3    H137422   6.502   4.483  19.032  0.1767 -0.5359  0.0148
 4409TIP3    H237423   6.394   4.491  19.137 -1.0960 -0.2250 -1.2790
 4410TIP3   OH237424   0.673   1.720  20.699 -0.7190  0.1248  0.6641
 4410TIP3    H137425   0.690   1.814  20.693 -1.1548  0.1641  0.0367
 4410TIP3    H237426   0.614   1.701  20.626  1.2289 -1.0704 -0.7025
 4411TIP3   OH237427   4.320   5.346  19.913 -0.8428  0.2797 -1.1887
 4411TIP3    H137428   4.333   5.253  19.895 -0.2336 -0.3885  2.1350
 4411TIP3    H237429   4.232   5.365  19.879 -1.3434 -1.7304 -1.1254
 4412TIP3   OH237430   1.626   2.310  21.684 -0.3950 -0.2916  0.1572
 4412TIP3    H137431   1.567   2.235  21.675  1.9100 -2.1334 -0.5927
 4412TIP3    H237432   1.570   2.381  21.712 -2.5152 -2.6452  2.4697
 4413TIP3   OH237433   1.283   4.837  19.182  0.6412  0.3855 -0.0917
 4413TIP3    H137434   1.242   4.857  19.266  0.2912 -1.3653  0.1872
 4413TIP3    H237435   1.216   4.789  19.133  1.3968 -0.0242 -0.7462
 4414TIP3   OH237436   3.521   2.119  18.976 -0.2712  0.2241 -0.4809
 4414TIP3    H137437   3.564   2.127  19.061 -1.7842  0.3622  0.3052
 4414TIP3    H237438   3.581   2.161  18.915  0.2391  1.3067  0.7255
 4415TIP3   OH237439   0.450   0.332  18.889 -0.1271  1.0355  0.3437
 4415TIP3    H137440   0.469   0.267  18.957 -0.0760  0.6542 -0.0279
 4415TIP3    H237441   0.421   0.409  18.937  0.5699  1.0045  0.8342
 4416TIP3   OH237442   3.766   4.000  20.570 -0.1622  0.5807  0.0741
 4416TIP3    H137443   3.839   3.962  20.520  1.1188  2.4510  0.4262
 4416TIP3    H237444   3.792   3.989  20.662 -1.5863 -1.0632  0.3323
 4417TIP3   OH237445   2.434   3.341  20.556 -0.2949  0.3766 -0.2413
 4417TIP3    H137446   2.467   3.364  20.469 -0.0390 -0.2226 -0.3113
 4417TIP3    H237447   2.397   3.422  20.591 -1.3111  0.4015 -1.3196
 4418TIP3   OH237448   0.528   1.735  18.437 -0.2902  0.3296  0.3907
 4418TIP3    H137449   0.523   1.762  18.345 -1.0054 -0.3689  0.2181
 4418TIP3    H237450   0.517   1.816  18.486  0.3501  0.7507 -0.1330
 4419TIP3   OH237451   0.583   3.254  18.672  0.0365 -0.6780 -0.2596
 4419TIP3    H137452   0.581   3.177  18.729 -2.4927 -0.8220 -0.3987
 4419TIP3    H237453   0.518   3.236  18.604 -0.1222  1.2692 -0.7075
 4420TIP3   OH237454   0.329   0.572  20.248 -0.0536 -0.0208 -0.4832
 4420TIP3    H137455   0.387   0.497  20.233 -1.0712 -0.9170 -0.0429
 4420TIP3    H237456   0.273   0.574  20.170 -0.6633 -0.3290 -0.0628
 4421TIP3   OH237457   3.165   0.388  18.604  0.2683  0.1237  0.0409
 4421TIP3    H137458   3.242   0.340  18.634 -0.3179 -0.2511  0.9881
 4421TIP3    H237459   3.169   0.382  18.509  1.1521 -0.2957  0.0927
 4422TIP3   OH237460   1.697   3.852  19.708  0.0682 -0.2288 -0.1926
 4422TIP3    H137461   1.707   3.836  19.614 -1.6511 -0.1070 -0.4337
 4422TIP3    H237462   1.645   3.778  19.739  0.4027 -0.1325  0.6211
 4423TIP3   OH237463   1.815   4.957  21.118  0.0670  0.7002 -0.6173
 4423TIP3    H137464   1.764   5.031  21.087 -0.6926  1.5630  2.3421
 4423TIP3    H237465   1.765   4.922  21.192  0.3843 -2.8644 -1.8693
 4424TIP3   OH237466   1.205   5.686  19.627  0.4588  0.0100  0.0366
 4424TIP3    H137467   1.133   5.681  19.564  0.6618 -3.5041 -0.0949
 4424TIP3    H237468   1.169   5.650  19.708  1.5475  0.0055  0.5361
 4425TIP3   OH237469   1.656   2.007  19.027  0.4820 -0.3726 -0.0492
 4425TIP3    H137470   1.726   1.981  19.087  0.2543  1.0167  0.8678
 4425TIP3    H237471   1.576   1.973  19.067  0.4734 -0.6682 -0.3139
 4426TIP3   OH237472   4.622   0.549  19.097 -0.3281  0.3837  0.4989
 4426TIP3    H137473   4.691   0.593  19.147 -1.7624  2.9212  0.4526
 4426TIP3    H237474   4.564   0.513  19.164 -0.3777  0.6683  0.6135
 4427TIP3   OH237475   2.974   1.904  20.194  0.3183 -0.7181  0.5263
 4427TIP3    H137476   2.900   1.928  20.250  0.2588  1.4010 -0.3847
 4427TIP3    H237477   2.949   1.933  20.107  1.4282 -1.7623 -0.1741
 4428TIP3   OH237478   5.469   5.616  19.600 -0.1479 -0.0412  0.4237
 4428TIP3    H137479   5.378   5.600  19.624  0.0289 -0.8517  0.5760
 4428TIP3    H237480   5.514   5.624  19.684  0.3438 -2.1531  0.4278
 4429TIP3   OH237481   6.249   3.879  20.854  0.2231 -0.2951  0.1746
 4429TIP3    H137482   6.343   3.891  20.864  0.1233 -0.3662  1.3490
 4429TIP3    H237483   6.216   3.867  20.943 -0.4121 -3.8097 -0.3873
 4430TIP3   OH237484   2.059   1.303  20.927 -0.0324  0.2918 -0.2197
 4430TIP3    H137485   2.094   1.315  20.839 -0.7954 -0.2333 -0.6111
 4430TIP3    H237486   1.974   1.261  20.914 -0.5192  0.9274  0.7262
 4431TIP3   OH237487   0.675   6.259  20.743 -0.1340 -0.3778 -0.1901
 4431TIP3    H137488   0.738   6.323  20.711  0.4879  0.3332  2.1884
 4431TIP3    H237489   0.592   6.307  20.747  0.3070  0.3221  1.4761
 4432TIP3   OH237490   6.079   2.791  18.086  0.5752 -0.8314 -0.2761
 4432TIP3    H137491   6.084   2.874  18.039  2.5270  0.4464  1.9281
 4432TIP3    H237492   5.987   2.782  18.110 -0.3584 -1.2198 -3.5782
 4433TIP3   OH237493   1.338   4.740  20.877 -0.3432 -0.4662  0.0994
 4433TIP3    H137494   1.400   4.672  20.901  0.1673 -0.3241 -0.7741
 4433TIP3    H237495   1.280   4.699  20.812 -0.7767 -0.4157  0.4510
 4434TIP3   OH237496   4.994   0.007  18.601 -0.6060  0.6845 -0.0426
 4434TIP3    H137497   4.984   0.072  18.532 -1.1213  0.3531 -0.2935
 4434TIP3    H237498   4.911   0.011  18.650 -0.3202  0.7858  0.4374
 4435TIP3   OH237499   3.578   5.647  18.114  0.3579 -0.0396 -0.3227
 4435TIP3    H137500   3.665   5.627  18.080  0.7620  0.3199  0.4605
 4435TIP3    H237501   3.523   5.574  18.085  1.0194 -0.5038 -0.4364
 4436TIP3   OH237502   0.451   5.695  19.436 -0.1762 -0.0112 -0.2030
 4436TIP3    H137503   0.362   5.715  19.410  0.0463  1.8001  0.3167
 4436TIP3    H237504   0.466   5.605  19.405 -1.7169  0.1279 -1.4279
 4437TIP3   OH237505   1.509   3.878  21.211  0.1277  0.4119 -1.4251
 4437TIP3    H137506   1.537   3.851  21.298 -2.3697 -0.5504 -0.8444
 4437TIP3    H237507   1.584   3.858  21.155  0.5474 -2.3403 -0.0512
 4438TIP3   OH237508   3.184   1.779  18.843  0.3058  0.4462  0.0119
 4438TIP3    H137509   3.270   1.804  18.878  0.4800 -0.1132 -0.0056
 4438TIP3    H237510   3.202   1.756  18.752 -0.1587  1.9884 -0.5013
 4439TIP3   OH237511   1.277   2.696  21.037  0.1639 -1.0071  0.0500
 4439TIP3    H137512   1.363   2.736  21.051  0.6195 -2.3861  1.5662
 4439TIP3    H237513   1.240   2.688  21.125 -0.1992 -3.1582 -0.2496
 4440TIP3   OH237514   1.845   2.979  20.916 -0.3565  0.2696 -0.4189
 4440TIP3    H137515   1.916   3.029  20.875 -1.2353 -0.0720 -2.4686
 4440TIP3    H237516   1.863   2.888  20.892 -0.2762 -0.1035  0.9702
 4441TIP3   OH237517   6.545   5.354  21.606 -0.1885 -0.4290 -0.1995
 4441TIP3    H137518   6.574   5.282  21.550 -1.6080 -0.3977 -1.0325
 4441TIP3    H237519   6.626   5.398  21.633  0.6220 -1.4956 -0.8057
 4442TIP3   OH237520   1.081   2.538  21.744 -0.3230 -0.1656 -0.2026
 4442TIP3    H137521   0.997   2.510  21.709 -0.9847 -1.0592  1.9007
 4442TIP3    H237522   1.059   2.608  21.806  0.3102 -1.1336  1.1765
 4443TIP3   OH237523   6.447   4.652  21.166  0.2008 -0.9145  0.2504
 4443TIP3    H137524   6.484   4.567  21.144 -1.7592 -1.7973  0.1950
 4443TIP3    H237525   6.365   4.632  21.212  0.0526  0.9431  0.8845
 4444TIP3   OH237526   4.781   4.408  21.391  0.1925  0.6215  0.1902
 4444TIP3    H137527   4.772   4.389  21.298 -0.1798 -1.6154  0.6185
 4444TIP3    H237528   4.711   4.471  21.409 -0.5891  0.0651 -0.7903
 4445TIP3   OH237529   4.261   1.637  18.310 -0.2940 -0.1234  0.3698
 4445TIP3    H137530   4.191   1.671  18.255  0.6180  0.8643 -0.2022
 4445TIP3    H237531   4.297   1.563  18.261  0.3645  0.6113 -0.2678
 4446TIP3   OH237532   2.224   3.233  18.848  0.2867 -0.3125 -0.2031
 4446TIP3    H137533   2.249   3.213  18.938  2.3341  0.9353 -0.4278
 4446TIP3    H237534   2.142   3.282  18.856 -0.1193 -1.1350  0.8934
 4447TIP3   OH237535   5.921   4.142  19.298 -0.4462  0.2073 -0.1473
 4447TIP3    H137536   5.865   4.153  19.374 -1.1755 -0.6823 -0.5224
 4447TIP3    H237537   5.952   4.051  19.304  3.1624  1.3729  1.4691
 4448TIP3   OH237538   2.600   4.542  20.804 -0.2785 -0.3235  0.3275
 4448TIP3    H137539   2.575   4.630  20.776  0.0271 -0.6451 -1.0042
 4448TIP3    H237540   2.635   4.500  20.726  1.1271 -1.0918  1.3233
 4449TIP3   OH237541   4.276   4.826  18.765 -0.4745  0.8534 -0.0896
 4449TIP3    H137542   4.216   4.807  18.837  0.2986 -1.4016  0.0197
 4449TIP3    H237543   4.358   4.852  18.807  0.0051 -0.5537 -0.1364
 4450TIP3   OH237544   4.684   2.618  18.360  0.6807 -0.1382 -0.6282
 4450TIP3    H137545   4.759   2.671  18.334  1.6273 -0.0547  1.9874
 4450TIP3    H237546   4.639   2.670  18.426  0.5371 -1.7500  0.6064
 4451TIP3   OH237547   0.161   1.597  21.393 -0.0464  0.0920 -0.2054
 4451TIP3    H137548   0.109   1.636  21.323 -1.2553  0.5836  0.9467
 4451TIP3    H237549   0.248   1.585  21.354 -1.2378 -1.7642 -2.5404
 4452TIP3   OH237550   5.333   2.812  20.234 -0.5806 -0.0274  0.0199
 4452TIP3    H137551   5.296   2.858  20.310  0.6516  0.0743  0.5812
 4452TIP3    H237552   5.351   2.882  20.171  1.5452  0.3792  0.9773
 4453TIP3   OH237553   2.012   4.955  18.902  0.8850  0.0023 -0.1003
 4453TIP3    H137554   2.053   4.904  18.833 -1.3189  0.7150 -2.0901
 4453TIP3    H237555   1.979   4.890  18.964  0.5950 -0.8547 -1.1198
 4454TIP3   OH237556   1.455   1.960  19.202 -0.3507  0.4009 -0.0510
 4454TIP3    H137557   1.516   1.995  19.268 -0.1429 -1.0642  0.5604
 4454TIP3    H237558   1.481   1.869  19.190 -1.8367  0.0002 -0.4827
 4455TIP3   OH237559   1.852   1.361  19.302  0.4921  0.1237  0.0606
 4455TIP3    H137560   1.799   1.313  19.238  0.5800  1.3204 -0.9513
 4455TIP3    H237561   1.807   1.347  19.385  0.3119 -1.3767 -0.2481
 4456TIP3   OH237562   1.038   2.503  21.146  0.1616 -0.2967 -0.8240
 4456TIP3    H137563   1.101   2.465  21.085  0.5849 -1.7402  0.4516
 4456TIP3    H237564   0.953   2.488  21.104  0.1385 -4.1455  0.2085
 4457TIP3   OH237565   3.011   2.542  19.814 -0.8399 -0.5713  0.0616
 4457TIP3    H137566   2.982   2.476  19.751 -1.2797  0.1161 -0.4596
 4457TIP3    H237567   3.094   2.574  19.778 -0.3267 -1.2441  0.6156
 4458TIP3   OH237568   2.868   4.435  19.070  0.7336 -0.0825 -0.1952
 4458TIP3    H137569   2.946   4.429  19.126  0.0058 -1.0339  0.7586
 4458TIP3    H237570   2.816   4.359  19.093 -0.5031  0.5445 -0.8003
 4459TIP3   OH237571   0.723   1.687  18.057 -0.2556 -0.5185 -0.1140
 4459TIP3    H137572   0.756   1.618  18.114 -0.1089 -0.5215 -0.2016
 4459TIP3    H237573   0.651   1.647  18.009 -0.5265 -0.4494  0.2361
 4460TIP3   OH237574   2.177   1.819  18.643 -0.3063 -0.3120  0.2752
 4460TIP3    H137575   2.186   1.725  18.632 -0.3977 -0.2598 -0.2495
 4460TIP3    H237576   2.231   1.840  18.719 -1.6880 -1.0474  1.5188
 4461TIP3   OH237577   3.334   4.970  21.071  0.1762 -0.1591  0.5856
 4461TIP3    H137578   3.314   5.023  20.995  4.6770 -1.4836 -1.9198
 4461TIP3    H237579   3.260   4.911  21.081 -0.6924  0.2295 -2.6603
 4462TIP3   OH237580   4.083   6.573  20.412  0.6331 -0.1133  0.0309
 4462TIP3    H137581   4.027   6.648  20.433  0.8346  0.0617 -0.0488
 4462TIP3    H237582   4.025   6.510  20.370  0.3312 -0.2553  0.6463
 4463TIP3   OH237583   3.208   2.014  20.404 -0.2429  0.3438 -0.6860
 4463TIP3    H137584   3.211   1.951  20.475  2.3595  0.7363 -0.3382
 4463TIP3    H237585   3.284   1.993  20.350  0.2028  2.5779 -1.0375
 4464TIP3   OH237586   3.313   3.580  19.808 -0.2818  0.1229  0.2125
 4464TIP3    H137587   3.279   3.567  19.719 -0.6239  1.6504  0.0957
 4464TIP3    H237588   3.303   3.495  19.850  2.1123 -1.3494 -1.9254
 4465TIP3   OH237589   0.491   5.439  19.317 -0.0253 -0.4542  0.2986
 4465TIP3    H137590   0.491   5.428  19.222 -0.0774 -0.0438  0.2462
 4465TIP3    H237591   0.535   5.361  19.351  1.6219  0.2430 -0.1575
 4466TIP3   OH237592   2.019   3.517  17.721  0.0256 -0.8706 -0.8727
 4466TIP3    H137593   2.053   3.580  17.784 -0.9086 -1.4295  0.2415
 4466TIP3    H237594   2.090   3.454  17.709  0.4315 -0.4221 -0.8559
 4467TIP3   OH237595   4.559   0.100  18.309  0.3002  1.0317  0.3558
 4467TIP3    H137596   4.600   0.020  18.276  0.0868  0.5685  1.1999
 4467TIP3    H237597   4.597   0.169  18.255  0.8834  0.4230 -0.0387
 4468TIP3   OH237598   1.441   0.382  19.700  0.0580  0.6346 -0.0591
 4468TIP3    H137599   1.520   0.423  19.666  0.6837 -0.0055  0.5852
 4468TIP3    H237600   1.473   0.311  19.755 -0.9806 -1.9100 -2.5130
 4469TIP3   OH237601   0.279   6.234  20.494 -0.1455 -0.6997  0.1195
 4469TIP3    H137602   0.187   6.208  20.488  0.3638 -3.0591  1.2644
 4469TIP3    H237603   0.288   6.304  20.430 -2.2733 -1.7800 -1.5093
 4470TIP3   OH237604   2.474   4.004  20.169 -0.0480  0.5864  0.6138
 4470TIP3    H137605   2.509   4.082  20.125  0.2006  0.8130  1.2113
 4470TIP3    H237606   2.388   3.991  20.129  1.5907 -1.4608 -2.7546
 4471TIP3   OH237607   3.709   2.702  17.661 -0.3221  0.1100 -0.2217
 4471TIP3    H137608   3.749   2.769  17.607  0.8225  0.4203  0.9555
 4471TIP3    H237609   3.783   2.656  17.701 -1.1086 -1.1681 -0.2006
 4472TIP3   OH237610   4.755   3.062  20.107 -0.2147 -0.5756  0.6890
 4472TIP3    H137611   4.787   2.988  20.159  0.7213 -0.8004 -0.1728
 4472TIP3    H237612   4.832   3.094  20.061 -1.0145 -0.4066 -0.5764
 4473TIP3   OH237613   4.613   3.307  20.167 -0.3596 -0.0295  0.0187
 4473TIP3    H137614   4.657   3.224  20.152 -1.6419 -1.1829  2.1071
 4473TIP3    H237615   4.644   3.335  20.253 -0.5672  1.2497 -0.3075
 4474TIP3   OH237616   4.517   3.025  19.921  0.2355  0.3261 -0.3368
 4474TIP3    H137617   4.580   3.064  19.982 -0.3336 -0.0158  0.4898
 4474TIP3    H237618   4.540   2.933  19.918 -2.6897 -0.7907  3.3112
 4475TIP3   OH237619   1.814   1.414  18.617 -0.2789 -0.2438 -0.3103
 4475TIP3    H137620   1.803   1.474  18.691  0.2684 -1.2699  0.6462
 4475TIP3    H237621   1.764   1.336  18.641  0.3647 -0.8125 -0.7571
 4476TIP3   OH237622   6.239   3.207  18.067  0.2168  0.1528 -0.4129
 4476TIP3    H137623   6.184   3.146  18.018 -2.6725  0.0332  2.6397
 4476TIP3    H237624   6.199   3.293  18.052  1.8290  0.7683 -1.4639
 4477TIP3   OH237625   4.034   3.666  19.641 -0.3524  0.0088  0.3079
 4477TIP3    H137626   3.946   3.699  19.619 -0.0104  0.9922  0.3780
 4477TIP3    H237627   4.075   3.650  19.556  0.3848  2.2470  0.1888
 4478TIP3   OH237628   4.234   5.504  20.323 -0.2385  0.4004  0.0740
 4478TIP3    H137629   4.210   5.478  20.412  1.5409 -1.0886  0.1822
 4478TIP3    H237630   4.249   5.598  20.329  1.1303  0.1343  1.7208
 4479TIP3   OH237631   1.577   3.850  20.552  0.6724 -0.4513  0.4017
 4479TIP3    H137632   1.631   3.805  20.487 -3.8227 -1.4923 -3.1896
 4479TIP3    H237633   1.560   3.936  20.513 -0.9126 -0.4964  0.9363
 4480TIP3   OH237634   3.542   0.741  18.395  0.0862 -0.4340  0.3438
 4480TIP3    H137635   3.523   0.776  18.308  1.8845  0.1483  0.1558
 4480TIP3    H237636   3.458   0.706  18.425 -1.0228  1.0859 -0.8123
 4481TIP3   OH237637   3.812   0.956  18.346 -0.2301  0.5415  0.2516
 4481TIP3    H137638   3.819   0.861  18.338 -0.9642  0.5234 -0.2258
 4481TIP3    H237639   3.823   0.988  18.256 -1.1570  0.8231  0.2304
 4482TIP3   OH237640   5.605   5.005  17.789  0.0358  0.1491 -0.6361
 4482TIP3    H137641   5.697   5.022  17.809  0.5690 -2.0458 -1.0338
 4482TIP3    H237642   5.565   4.985  17.874 -0.6853  3.2203 -0.0989
 4483TIP3   OH237643   0.841   2.815  19.953 -0.7451  0.1910  0.1438
 4483TIP3    H137644   0.824   2.909  19.959  2.6637  0.9103  0.8673
 4483TIP3    H237645   0.858   2.799  19.861  0.4987  0.7197  0.2665
 4484TIP3   OH237646   5.630   3.654  18.985 -0.7291 -0.2956  0.9227
 4484TIP3    H137647   5.554   3.638  19.039 -1.0084  0.2290  0.6924
 4484TIP3    H237648   5.672   3.568  18.976 -1.0801 -0.5149  1.3565
 4485TIP3   OH237649   2.901   5.204  20.391 -0.8203 -0.6085 -0.4649
 4485TIP3    H137650   2.839   5.140  20.426 -0.6089 -0.7332 -0.3146
 4485TIP3    H237651   2.987   5.171  20.418 -0.6938 -0.4020 -0.6156
 4486TIP3   OH237652   3.363   2.535  18.064 -0.1301  0.0942 -0.6720
 4486TIP3    H137653   3.447   2.575  18.087 -0.3538 -0.2331  0.8396
 4486TIP3    H237654   3.386   2.460  18.008  0.7197 -0.7628  0.7649
 4487TIP3   OH237655   3.378   2.204  20.616  0.9337  0.1840  0.3289
 4487TIP3    H137656   3.302   2.256  20.643 -0.5572 -0.5809 -2.0550
 4487TIP3    H237657   3.429   2.264  20.561  0.7006 -0.0298 -0.1256
 4488TIP3   OH237658   3.504   2.707  20.244 -0.0320 -0.1269 -0.4621
 4488TIP3    H137659   3.596   2.680  20.250 -0.2730 -0.7335  0.6930
 4488TIP3    H237660   3.504   2.797  20.276  0.2905  0.1805 -1.3115
 4489TIP3   OH237661   1.597   2.830  19.587 -0.1159  0.2770 -0.0249
 4489TIP3    H137662   1.547   2.870  19.658 -1.7283  2.0041 -2.0068
 4489TIP3    H237663   1.598   2.737  19.608 -0.5609  0.7098  2.2089
 4490TIP3   OH237664   2.787   1.080  19.927 -0.9994 -0.3123 -0.3318
 4490TIP3    H137665   2.766   1.030  19.848 -1.1305  0.3563 -0.7344
 4490TIP3    H237666   2.872   1.120  19.909 -0.4842 -1.0812  0.3360
 4491TIP3   OH237667   1.967   0.750  17.923  0.7901 -0.4029  0.4266
 4491TIP3    H137668   2.027   0.694  17.971  1.0774 -0.7001 -0.2820
 4491TIP3    H237669   1.988   0.737  17.831  0.3908  0.3338  0.2158
 4492TIP3   OH237670   1.738   5.027  20.577 -0.3876 -0.3931 -0.1055
 4492TIP3    H137671   1.829   5.056  20.568  0.3209 -0.5719  4.2159
 4492TIP3    H237672   1.695   5.099  20.624 -2.6584 -0.1939 -2.2927
 4493TIP3   OH237673   3.826   2.666  19.612  0.5541 -0.2049  0.6374
 4493TIP3    H137674   3.792   2.710  19.689  1.0543 -0.7251  1.1685
 4493TIP3    H237675   3.760   2.599  19.592  0.3531  0.0257  0.5199
 4494TIP3   OH237676   4.967   3.488  20.113  0.0053  0.2807  0.6216
 4494TIP3    H137677   4.927   3.485  20.200 -0.6641 -1.0208  0.2929
 4494TIP3    H237678   4.908   3.544  20.062  1.4151  2.6465  1.4529
 4495TIP3   OH237679   0.813   5.173  19.516 -0.2044 -0.2940  0.5539
 4495TIP3    H137680   0.900   5.209  19.498  1.1323 -3.3637  0.2567
 4495TIP3    H237681   0.812   5.158  19.610 -1.6013  2.2618  1.0599
 4496TIP3   OH237682   1.234   0.049  21.255 -0.5474  0.0031  0.0862
 4496TIP3    H137683   1.272   0.014  21.175 -1.4421  2.6567 -1.6261
 4496TIP3    H237684   1.147   0.009  21.260 -0.8971  0.6037 -0.8918
 4497TIP3   OH237685   2.145   5.525  20.101  0.5134  0.3104  0.1913
 4497TIP3    H137686   2.194   5.442  20.104 -0.6114 -0.5076 -2.1264
 4497TIP3    H237687   2.167   5.563  20.016 -1.3460  0.8528 -0.0973
 4498TIP3   OH237688   6.549   2.272  18.091  0.4919 -0.3865 -0.0079
 4498TIP3    H137689   6.621   2.302  18.146 -0.8160  1.1459  0.9572
 4498TIP3    H237690   6.530   2.184  18.123  1.7317 -0.7154 -0.1055
 4499TIP3   OH237691   5.702   4.724  21.014 -0.4757 -0.5265 -0.6940
 4499TIP3    H137692   5.740   4.781  20.948 -0.4281 -1.8867 -1.9105
 4499TIP3    H237693   5.624   4.771  21.046 -0.3758  0.2456 -1.5701
 4500TIP3   OH237694   2.067   0.525  18.940 -0.8322  0.0691 -0.6187
 4500TIP3    H137695   2.092   0.606  18.986 -1.6820 -1.3695  2.6854
 4500TIP3    H237696   2.008   0.553  18.871 -0.6073  2.3106  0.0290
 4501TIP3   OH237697   2.171   1.708  20.601  0.0100  0.3724  0.0218
 4501TIP3    H137698   2.251   1.664  20.630 -0.2061 -0.3005 -0.3757
 4501TIP3    H237699   2.125   1.642  20.549 -0.5208  0.9469 -0.2477
 4502TIP3   OH237700   2.326   5.650  19.609  0.1583  0.2912 -0.2443
 4502TIP3    H137701   2.277   5.598  19.545  1.3314  0.0087 -0.9314
 4502TIP3    H237702   2.415   5.653  19.575  0.5567  1.0839  0.8139
 4503TIP3   OH237703   1.494   2.572  18.677 -0.5197 -0.3430 -0.3784
 4503TIP3    H137704   1.568   2.567  18.738 -0.4062 -3.1031 -0.6188
 4503TIP3    H237705   1.514   2.647  18.621  2.5666 -1.4340 -0.9343
 4504TIP3   OH237706   3.588   1.152  18.901  0.1569  0.0968  0.2231
 4504TIP3    H137707   3.676   1.118  18.918 -0.4881 -2.9077 -1.6907
 4504TIP3    H237708   3.541   1.142  18.984  0.8343 -1.0856  0.4815
 4505TIP3   OH237709   3.429   5.260  18.794 -0.3444 -0.2116  0.3516
 4505TIP3    H137710   3.436   5.355  18.798 -0.5622 -0.2108  0.7999
 4505TIP3    H237711   3.520   5.230  18.790 -0.2215 -0.0257  1.3982
 4506TIP3   OH237712   2.169   6.502  21.017 -0.5037  0.1670 -0.5738
 4506TIP3    H137713   2.259   6.500  20.985 -0.1038  1.3933  0.4094
 4506TIP3    H237714   2.141   6.410  21.018 -0.3001 -0.0301 -3.6627
 4507TIP3   OH237715   3.878   3.880  21.064 -0.1964  0.0370  0.4273
 4507TIP3    H137716   3.808   3.884  21.129 -1.2840  1.6705 -0.7667
 4507TIP3    H237717   3.912   3.790  21.071 -1.0109 -0.1645  2.4310
 4508TIP3   OH237718   4.802   2.412  21.141  0.3894 -0.1013 -0.2412
 4508TIP3    H137719   4.856   2.415  21.062 -2.1909  0.5983 -2.1140
 4508TIP3    H237720   4.809   2.500  21.178 -0.0632  0.2358 -0.9355
 4509TIP3   OH237721   3.390   1.575  19.333  0.0245  0.3712 -0.3993
 4509TIP3    H137722   3.393   1.529  19.250 -2.1499 -2.6577  1.0153
 4509TIP3    H237723   3.301   1.564  19.365  0.1349  3.3659  1.3810
 4510TIP3   OH237724   3.600   4.951  19.199 -0.1640  0.3146  0.2442
 4510TIP3    H137725   3.649   4.954  19.281 -0.9213  2.7177  0.7038
 4510TIP3    H237726   3.636   5.023  19.147  2.1761 -2.7561 -2.8067
 4511TIP3   OH237727   2.439   2.185  19.665  0.2772  0.4118  0.9086
 4511TIP3    H137728   2.425   2.279  19.653 -0.1638  0.4412  1.5670
 4511TIP3    H237729   2.372   2.160  19.729  0.4629 -0.3278  0.8118
 4512TIP3   OH237730   5.298   3.397  18.248  0.1692 -0.8290 -0.2861
 4512TIP3    H137731   5.259   3.355  18.172  0.9919 -0.5367 -0.8795
 4512TIP3    H237732   5.380   3.434  18.216 -0.4551  1.1523  0.2299
 4513TIP3   OH237733   4.870   3.354  18.700  0.3410  0.3329 -0.4389
 4513TIP3    H137734   4.795   3.301  18.726  0.8453 -0.8689 -1.3231
 4513TIP3    H237735   4.947   3.302  18.726  0.8720  1.3426  0.0587
 4514TIP3   OH237736   0.191   4.365  19.297 -0.2037 -0.0019 -0.0051
 4514TIP3    H137737   0.232   4.363  19.383  0.1052  1.7891 -0.0706
 4514TIP3    H237738   0.097   4.367  19.315 -0.1280  1.2541  0.3502
 4515TIP3   OH237739   6.083   3.698  19.980 -0.4728 -0.4199 -0.0904
 4515TIP3    H137740   6.155   3.760  19.969 -0.1538 -0.6616  0.5843
 4515TIP3    H237741   6.052   3.681  19.891  1.3477 -1.5616 -0.5417
 4516TIP3   OH237742   3.709   3.468  18.231 -0.1628 -0.0790  0.0938
 4516TIP3    H137743   3.616   3.457  18.209 -0.1975  0.4645 -0.0463
 4516TIP3    H237744   3.713   3.552  18.276  0.4226  0.4260 -0.8656
 4517TIP3   OH237745   1.440   0.134  18.064  0.4925 -0.3158 -0.2106
 4517TIP3    H137746   1.469   0.103  17.978 -0.4741 -2.2938  0.1275
 4517TIP3    H237747   1.520   0.168  18.105  1.1240 -0.1123 -1.5596
 4518TIP3   OH237748   5.854   3.004  18.360 -0.3554 -0.1014 -0.2241
 4518TIP3    H137749   5.802   2.989  18.281  0.0465 -0.3189 -0.4506
 4518TIP3    H237750   5.868   2.917  18.397 -0.1061 -0.0520 -0.1972
 4519TIP3   OH237751   3.402   4.673  19.828 -0.0952  0.3903  0.5117
 4519TIP3    H137752   3.486   4.644  19.794 -0.2034 -1.1287  1.4416
 4519TIP3    H237753   3.337   4.640  19.766 -0.1031  0.1846  0.6280
 4520TIP3   OH237754   4.926   4.651  19.920  0.4586  0.2184  0.2073
 4520TIP3    H137755   4.987   4.715  19.882  0.0587  1.8047  2.0724
 4520TIP3    H237756   4.978   4.572  19.931  2.6136  1.8097  2.6752
 4521TIP3   OH237757   1.947   4.051  19.389 -0.3106 -0.4634 -0.1157
 4521TIP3    H137758   1.970   4.144  19.387  0.7166 -0.7077 -0.4508
 4521TIP3    H237759   1.877   4.044  19.454 -2.0590  0.8888 -1.7316
 4522TIP3   OH237760   3.556   2.381  20.458 -0.4786 -0.2160 -0.0941
 4522TIP3    H137761   3.544   2.330  20.378 -0.8792 -0.9486  0.4239
 4522TIP3    H237762   3.623   2.445  20.435 -0.2357 -0.7285 -0.8746
 4523TIP3   OH237763   1.973   4.036  21.048 -0.4079  0.5867  0.0491
 4523TIP3    H137764   1.999   4.026  20.956  0.2148 -0.7069  0.3411
 4523TIP3    H237765   2.055   4.026  21.097 -0.7348  1.2728  0.7622
 4524TIP3   OH237766   1.546   2.409  19.700 -0.2052  0.1239  0.0214
 4524TIP3    H137767   1.560   2.474  19.769  1.8754  0.7524 -0.9016
 4524TIP3    H237768   1.557   2.457  19.619  2.6281 -1.4950 -0.7003
 4525TIP3   OH237769   3.613   6.560  20.848  0.2623 -0.2813 -0.2407
 4525TIP3    H137770   3.544   6.608  20.895  0.4859 -0.2257  0.0319
 4525TIP3    H237771   3.600   6.585  20.757 -1.1536 -1.6013 -0.4314
 4526TIP3   OH237772   0.956   3.523  18.856  0.0631  0.1078 -0.5514
 4526TIP3    H137773   0.971   3.583  18.929  0.0801 -0.9048  0.3015
 4526TIP3    H237774   1.002   3.563  18.782 -0.5911  1.5371 -0.2182
 4527TIP3   OH237775   5.452   5.831  18.917  0.4322 -0.4055 -0.1746
 4527TIP3    H137776   5.457   5.810  18.823  0.4412 -1.7786  0.1050
 4527TIP3    H237777   5.478   5.923  18.922  1.1858 -0.5141 -1.4474
 4528TIP3   OH237778   6.030   0.304  21.039  1.0851  0.0790  0.8598
 4528TIP3    H137779   6.006   0.317  20.948  0.2121 -1.1819  0.8874
 4528TIP3    H237780   5.950   0.322  21.089  1.4051  0.2163  1.3356
 4529TIP3   OH237781   1.773   4.954  21.564 -0.7437 -0.5364 -0.6913
 4529TIP3    H137782   1.739   4.874  21.525 -2.3779  0.2350 -0.9404
 4529TIP3    H237783   1.695   5.000  21.596  0.0216  1.4846 -1.5658
 4530TIP3   OH237784   0.112   0.106  19.565 -0.3454  0.0737  0.0191
 4530TIP3    H137785   0.165   0.058  19.629  1.0258  1.1028 -0.3039
 4530TIP3    H237786   0.121   0.055  19.485 -1.6299 -0.9242  0.4749
 4531TIP3   OH237787   2.630   2.112  19.217 -0.3210  0.3270  0.1811
 4531TIP3    H137788   2.608   2.195  19.259 -2.1774 -0.3385  0.6110
 4531TIP3    H237789   2.690   2.136  19.147 -0.5824  1.9980  0.4882
 4532TIP3   OH237790   5.346   5.825  20.100 -0.3070 -0.3507 -0.3651
 4532TIP3    H137791   5.322   5.886  20.030 -0.1401 -1.5732 -1.5187
 4532TIP3    H237792   5.322   5.739  20.067 -1.2688 -0.8748  1.5708
 4533TIP3   OH237793   5.231   1.388  19.195  0.5840 -0.4959  0.3511
 4533TIP3    H137794   5.235   1.429  19.282  0.2132  0.8210 -0.2304
 4533TIP3    H237795   5.286   1.310  19.203  0.5632 -0.3967  1.7664
 4534TIP3   OH237796   0.739   5.557  19.086  0.0857 -0.0873  0.4832
 4534TIP3    H137797   0.739   5.638  19.138  0.2709  0.4885 -0.3792
 4534TIP3    H237798   0.797   5.498  19.134  1.0261  0.7642  0.4521
 4535TIP3   OH237799   3.056   5.815  21.119 -0.1615 -0.2314 -0.2230
 4535TIP3    H137800   3.130   5.869  21.090  1.1091 -0.1052  2.8754
 4535TIP3    H237801   2.984   5.877  21.132  0.0623  0.0856 -0.4852
 4536TIP3   OH237802   5.421   4.262  20.837 -0.0910 -0.5852 -0.2148
 4536TIP3    H137803   5.470   4.344  20.837 -3.0587  1.4349 -3.1275
 4536TIP3    H237804   5.458   4.212  20.764  0.6377 -1.1275  0.5198
 4537TIP3   OH237805   2.262   5.972  21.264 -0.5212 -0.6909 -0.2723
 4537TIP3    H137806   2.272   5.877  21.260 -1.1450 -0.8111  0.6617
 4537TIP3    H237807   2.170   5.985  21.287  0.0902  0.0602  1.9723
 4538TIP3   OH237808   1.667   2.135  18.368  0.7632 -0.2741  0.2933
 4538TIP3    H137809   1.672   2.070  18.299  0.0023  0.8827 -0.8935
 4538TIP3    H237810   1.606   2.201  18.336 -1.0982 -0.5858  2.8473
 4539TIP3   OH237811   4.990   5.562  19.023  0.0306  0.3447  0.3920
 4539TIP3    H137812   5.056   5.629  19.042 -0.1245  0.3098  1.0771
 4539TIP3    H237813   4.973   5.521  19.108  0.2780 -0.7056 -0.0488
 4540TIP3   OH237814   4.767   4.455  18.347 -0.1938 -0.4711  0.0714
 4540TIP3    H137815   4.752   4.529  18.406  0.0321 -1.3351  1.2359
 4540TIP3    H237816   4.797   4.496  18.266 -1.1113  0.7827  0.3161
 4541TIP3   OH237817   1.089   0.180  18.648 -0.9538 -0.3913 -0.2465
 4541TIP3    H137818   1.086   0.129  18.729  1.7144 -1.4790 -0.7060
 4541TIP3    H237819   1.125   0.119  18.583  0.1605  1.3866 -1.3996
 4542TIP3   OH237820   0.570   0.407  19.607  0.9597  0.3776  0.0991
 4542TIP3    H137821   0.526   0.415  19.522  2.3299 -1.4140 -0.8743
 4542TIP3    H237822   0.628   0.483  19.611  0.4738  0.7740 -0.3146
 4543TIP3   OH237823   3.766   3.940  19.414  0.5086  0.3917 -0.0545
 4543TIP3    H137824   3.856   3.937  19.383  0.7286  2.6138  0.1707
 4543TIP3    H237825   3.743   4.033  19.411 -2.3169 -0.2510 -1.5648
 4544TIP3   OH237826   1.752   3.074  18.399 -0.3241  0.9617  0.1725
 4544TIP3    H137827   1.806   3.107  18.471 -1.3828  0.3876  1.2866
 4544TIP3    H237828   1.676   3.035  18.443 -0.8508  0.3070 -1.2591
 4545TIP3   OH237829   0.565   3.575  20.761  0.1693 -0.3086  0.3904
 4545TIP3    H137830   0.482   3.618  20.784  0.1912  0.3423 -0.6931
 4545TIP3    H237831   0.575   3.590  20.667  0.6346 -1.9127  0.1415
 4546TIP3   OH237832   4.080   1.716  19.524 -0.2730  0.0136 -0.0494
 4546TIP3    H137833   3.994   1.695  19.559 -0.6427  1.5988  0.0720
 4546TIP3    H237834   4.132   1.742  19.600  0.2349 -0.6452 -0.1567
 4547TIP3   OH237835   6.064   5.186  20.937 -0.4947 -0.3263 -0.2542
 4547TIP3    H137836   6.007   5.248  20.892 -1.3059 -0.8715  0.0028
 4547TIP3    H237837   6.131   5.163  20.872 -0.8969 -0.1132 -0.7513
 4548TIP3   OH237838   5.957   1.924  19.835 -0.0837  0.2482  0.3053
 4548TIP3    H137839   5.889   1.957  19.895 -0.4287  0.8258 -0.3899
 4548TIP3    H237840   6.008   2.002  19.811 -0.6508  0.2309 -1.0317
 4549TIP3   OH237841   2.407   2.763  20.368  0.0991  0.2368  0.1726
 4549TIP3    H137842   2.369   2.682  20.401 -0.3830  1.2220  2.1908
 4549TIP3    H237843   2.350   2.789  20.296 -0.8516 -0.2214  0.7507
 4550TIP3   OH237844   3.741   3.804  17.714  0.2259  0.2942  0.0541
 4550TIP3    H137845   3.803   3.868  17.747 -0.2477  0.0534  1.4775
 4550TIP3    H237846   3.661   3.853  17.698  0.9428  0.7432 -2.4684
 4551TIP3   OH237847   5.569   4.673  19.678  0.0197 -0.1073  0.2178
 4551TIP3    H137848   5.655   4.714  19.685  1.1686 -2.4192  0.8001
 4551TIP3    H237849   5.508   4.739  19.709  1.4624  1.9008 -0.9776
 4552TIP3   OH237850   3.678   4.503  19.725  0.2700  0.0472 -0.5155
 4552TIP3    H137851   3.680   4.559  19.647 -1.3396  0.3366 -0.3884
 4552TIP3    H237852   3.612   4.436  19.704 -1.4977  1.1417  1.2229
 4553TIP3   OH237853   5.427   5.180  20.163  0.2912 -0.8041 -0.3240
 4553TIP3    H137854   5.485   5.129  20.107 -0.6623  0.7031 -2.8844
 4553TIP3    H237855   5.439   5.144  20.251  1.0266 -4.1079 -1.6435
 4554TIP3   OH237856   0.208   5.745  19.297 -0.2564  0.2737 -0.0929
 4554TIP3    H137857   0.168   5.760  19.211  0.8426  1.1130 -0.4879
 4554TIP3    H237858   0.173   5.815  19.351 -2.4989 -1.3910  0.7559
 4555TIP3   OH237859   1.045   1.775  19.165 -0.0967  0.0339 -0.3749
 4555TIP3    H137860   1.109   1.847  19.167  0.4366 -0.3881 -1.5061
 4555TIP3    H237861   1.059   1.729  19.248 -0.7475  1.4542  0.5745
 4556TIP3   OH237862   5.297   5.956  18.537  0.4201 -0.6090  0.2036
 4556TIP3    H137863   5.364   5.990  18.477 -0.0343 -0.9595 -0.5049
 4556TIP3    H237864   5.216   5.957  18.487  0.2655 -2.0976  0.3831
 4557TIP3   OH237865   5.647   3.410  19.651 -0.0685 -0.5639  0.0340
 4557TIP3    H137866   5.714   3.373  19.708  0.6008 -2.8927 -2.1370
 4557TIP3    H237867   5.585   3.339  19.637 -2.7385  1.3073  1.3907
 4558TIP3   OH237868   6.154   4.215  19.598 -0.1232  0.2863 -0.2459
 4558TIP3    H137869   6.208   4.161  19.656  0.0746  0.9270  0.1696
 4558TIP3    H237870   6.200   4.213  19.514  0.0681  0.0992 -0.1393
 4559TIP3   OH237871   0.541   5.878  21.455  0.1728  0.0438 -0.2676
 4559TIP3    H137872   0.625   5.901  21.414 -0.6534  0.2359 -1.9318
 4559TIP3    H237873   0.560   5.874  21.548  1.5951  2.0811 -0.4096
 4560TIP3   OH237874   2.965   4.661  19.273  0.1059 -0.1319  0.1557
 4560TIP3    H137875   3.018   4.597  19.225 -1.5199 -0.5553 -1.1722
 4560TIP3    H237876   2.901   4.608  19.321  0.9214  0.3591  1.8763
 4561TIP3   OH237877   6.386   1.202  21.429  0.6364  0.2437 -0.7067
 4561TIP3    H137878   6.467   1.250  21.415  2.0170 -1.3855  1.1678
 4561TIP3    H237879   6.395   1.123  21.375  0.7829 -0.4031  0.2271
 4562TIP3   OH237880   2.537   4.131  20.428 -0.2580 -0.4755 -0.4360
 4562TIP3    H137881   2.501   4.092  20.348 -0.5628  0.5018 -0.7940
 4562TIP3    H237882   2.613   4.181  20.398 -0.6865  0.3307 -0.2102
 4563TIP3   OH237883   4.033   0.836  18.668  0.2912  0.7724 -0.1525
 4563TIP3    H137884   4.010   0.758  18.718  3.0694 -0.5896 -0.7994
 4563TIP3    H237885   4.030   0.809  18.577  1.4554  1.3260 -0.3785
 4564TIP3   OH237886   2.409   5.674  18.918 -0.2186  0.1597  0.9307
 4564TIP3    H137887   2.336   5.620  18.887 -0.1502 -0.4926  1.8811
 4564TIP3    H237888   2.371   5.728  18.987 -0.6105  2.3266 -0.8565
 4565TIP3   OH237889   4.120   4.273  21.430  0.0999  0.0292  0.0623
 4565TIP3    H137890   4.180   4.300  21.500 -2.3218  1.3994  1.7404
 4565TIP3    H237891   4.073   4.198  21.465 -1.6040  1.1284  0.2604
 4566TIP3   OH237892   4.458   2.445  20.532 -0.4489 -0.5501 -0.0779
 4566TIP3    H137893   4.419   2.377  20.586 -1.1213  1.0415  1.5385
 4566TIP3    H237894   4.467   2.520  20.591  3.0057 -0.1072 -0.9610
 4567TIP3   OH237895   0.424   1.223  21.310  0.4946 -0.0730 -0.6182
 4567TIP3    H137896   0.405   1.312  21.281 -3.2894 -0.1437  1.0414
 4567TIP3    H237897   0.362   1.168  21.262 -0.4679 -1.1390  1.6615
 4568TIP3   OH237898   4.606   0.678  18.808 -0.6459  0.2926 -0.3514
 4568TIP3    H137899   4.638   0.735  18.738  0.2211 -0.7325 -0.8135
 4568TIP3    H237900   4.595   0.736  18.883 -1.2822  1.3512 -1.2404
 4569TIP3   OH237901   4.373   1.811  17.236  0.6762 -0.1449 -0.5655
 4569TIP3    H137902   4.402   1.900  17.216 -0.5962  0.2561 -0.7181
 4569TIP3    H237903   4.277   1.816  17.233  0.5861 -1.4783 -0.3868
 4570TIP3   OH237904   6.179   2.448  21.168  0.2598 -0.1526  0.3474
 4570TIP3    H137905   6.164   2.430  21.260 -1.2401  1.4949  0.4959
 4570TIP3    H237906   6.131   2.530  21.152  0.9913 -0.0697 -1.7437
 4571TIP3   OH237907   4.608   1.429  17.150  0.7140  0.5210  0.0564
 4571TIP3    H137908   4.520   1.448  17.117 -0.0165 -1.3859  0.7182
 4571TIP3    H237909   4.629   1.343  17.113  1.8008  0.4115  0.8772
 4572TIP3   OH237910   5.794   1.153  20.730 -0.0385  0.1858  0.0177
 4572TIP3    H137911   5.735   1.127  20.801  0.3395  0.1735  0.3267
 4572TIP3    H237912   5.863   1.087  20.730 -0.5808 -0.4174 -1.0437
 4573TIP3   OH237913   3.180   1.207  20.968 -0.0406 -0.0972  0.3531
 4573TIP3    H137914   3.190   1.115  20.992 -1.5790 -0.2811  0.3736
 4573TIP3    H237915   3.270   1.241  20.968  0.6593 -1.7892 -0.4934
 4574TIP3   OH237916   0.134   6.292  19.017 -0.6311  0.0232 -0.0138
 4574TIP3    H137917   0.132   6.358  19.086 -0.6842 -1.2158  1.2098
 4574TIP3    H237918   0.202   6.322  18.957  0.0144  0.7154  1.0265
 4575TIP3   OH237919   6.533   5.946  19.181 -0.4826 -0.4195 -0.3031
 4575TIP3    H137920   6.552   6.017  19.120 -0.2283  0.1030  0.3718
 4575TIP3    H237921   6.562   5.867  19.136  2.2321  0.1966  0.1701
 4576TIP3   OH237922   3.905   5.705  20.734 -0.1780  0.0695 -0.6559
 4576TIP3    H137923   3.918   5.766  20.807  1.9671 -0.5091 -0.4969
 4576TIP3    H237924   3.895   5.762  20.658  0.8864  0.6455 -0.3808
 4577TIP3   OH237925   1.756   3.705  19.013  0.1091 -0.0529 -0.2608
 4577TIP3    H137926   1.778   3.645  18.942  1.7709  0.5670 -0.3121
 4577TIP3    H237927   1.840   3.738  19.044 -0.7006  1.5848  0.3418
 4578TIP3   OH237928   6.604   5.591  21.318  0.2255 -0.0956  0.1469
 4578TIP3    H137929   6.664   5.517  21.331 -0.5666 -0.6464  0.8002
 4578TIP3    H237930   6.662   5.667  21.310  1.0282 -0.6541  0.4121
 4579TIP3   OH237931   5.872   2.766  18.537  0.2267 -0.3721 -0.2933
 4579TIP3    H137932   5.963   2.740  18.554  0.1289  0.3559  1.6034
 4579TIP3    H237933   5.838   2.789  18.623 -1.2677  0.9601 -1.1964
 4580TIP3   OH237934   0.124   3.279  19.654  0.0159 -0.6821 -0.7697
 4580TIP3    H137935   0.220   3.283  19.655  0.0337 -1.1837 -0.1079
 4580TIP3    H237936   0.103   3.245  19.568  0.2897  2.3652 -2.1945
 4581TIP3   OH237937   4.579   3.585  18.286  0.0022  0.3722  0.0464
 4581TIP3    H137938   4.596   3.650  18.218  0.1463 -0.5363 -0.8209
 4581TIP3    H237939   4.543   3.635  18.360  0.5470  1.4804 -0.4176
 4582TIP3   OH237940   5.480   5.537  20.557 -0.4796 -0.1027 -0.3182
 4582TIP3    H137941   5.496   5.459  20.610 -3.7034 -2.2519 -2.1870
 4582TIP3    H237942   5.489   5.507  20.467 -1.4035  1.7785 -1.0823
 4583TIP3   OH237943   4.747   1.216  21.261 -0.2509  0.0104  0.1096
 4583TIP3    H137944   4.808   1.150  21.227 -1.8874 -1.3807 -0.2601
 4583TIP3    H237945   4.661   1.174  21.257 -1.2149  1.7795  0.9390
 4584TIP3   OH237946   4.970   0.790  21.273  0.3668  0.2466 -0.6202
 4584TIP3    H137947   4.907   0.729  21.235  1.1900 -1.4163  0.5300
 4584TIP3    H237948   5.053   0.743  21.271  0.9389  1.1164  0.7763
 4585TIP3   OH237949   6.418   0.084  18.071 -0.1446  0.5386  0.1225
 4585TIP3    H137950   6.359   0.101  17.998 -0.3911 -0.3808  0.0948
 4585TIP3    H237951   6.496   0.045  18.030 -0.5028 -0.4900  0.3863
 4586TIP3   OH237952   6.585   0.940  18.429 -0.2139 -0.4494 -0.1788
 4586TIP3    H137953   6.641   1.018  18.423  0.1382 -0.6366  0.5756
 4586TIP3    H237954   6.504   0.966  18.386 -0.3066  0.5340  0.5510
 4587TIP3   OH237955   2.681   6.382  20.938 -0.5335 -0.2622 -0.1564
 4587TIP3    H137956   2.668   6.303  20.885  1.5103 -0.6307 -0.1672
 4587TIP3    H237957   2.751   6.430  20.894 -0.4370  0.6163  0.9045
 4588TIP3   OH237958   2.103   1.049  18.110 -0.1442 -0.5574  0.6172
 4588TIP3    H137959   2.018   1.017  18.081  0.1504 -1.3681  0.6306
 4588TIP3    H237960   2.136   0.981  18.168  0.6534 -0.3895  0.3741
 4589TIP3   OH237961   5.367   3.679  18.695  0.1215 -0.3289 -0.5479
 4589TIP3    H137962   5.326   3.739  18.758  1.5506  0.1419 -0.0249
 4589TIP3    H237963   5.458   3.709  18.689  0.0571 -0.4253 -2.7864
 4590TIP3   OH237964   0.650   2.717  19.692 -0.2488  0.4337 -0.1449
 4590TIP3    H137965   0.602   2.690  19.771 -0.8403 -0.5054 -0.8106
 4590TIP3    H237966   0.735   2.675  19.700 -0.5242 -0.1712 -0.2856
 4591TIP3   OH237967   1.888   3.680  20.040 -0.0853 -0.2843  0.3169
 4591TIP3    H137968   1.883   3.769  20.074  0.7333 -0.2831  0.4392
 4591TIP3    H237969   1.796   3.655  20.027 -0.3321  0.4689  0.5456
 4592TIP3   OH237970   4.189   1.069  17.847 -0.1869 -0.1269  0.2502
 4592TIP3    H137971   4.175   1.081  17.941 -3.0147 -0.3543 -0.0401
 4592TIP3    H237972   4.101   1.067  17.811  0.7915 -1.3902 -2.2601
 4593TIP3   OH237973   2.485   1.742  19.141  0.3132  0.0292 -0.6644
 4593TIP3    H137974   2.450   1.684  19.074  1.9812 -1.3846 -0.3824
 4593TIP3    H237975   2.418   1.742  19.210 -0.3586 -0.4013 -1.3048
 4594TIP3   OH237976   2.237   6.048  19.144  0.4159  0.0781 -0.3301
 4594TIP3    H137977   2.299   6.008  19.205  0.6704  0.0600 -0.5942
 4594TIP3    H237978   2.195   5.974  19.101 -0.7086  0.0636  0.7341
 4595TIP3   OH237979   0.603   0.161  20.932 -0.3334  0.0178  0.0787
 4595TIP3    H137980   0.560   0.219  20.995  1.5714  0.8210  0.7081
 4595TIP3    H237981   0.542   0.156  20.858 -0.3588  3.3637 -0.2965
 4596TIP3   OH237982   5.123   1.958  20.662 -0.1274 -0.9409  0.4468
 4596TIP3    H137983   5.075   1.890  20.615  0.3104  0.5677 -2.3991
 4596TIP3    H237984   5.214   1.944  20.638  0.0692  0.0509  0.5797
 4597TIP3   OH237985   6.374   5.647  19.547  0.3692  0.4650 -0.1302
 4597TIP3    H137986   6.414   5.722  19.503  1.4172  0.4388  0.7375
 4597TIP3    H237987   6.421   5.571  19.514  0.9471  0.4179  0.7740
 4598TIP3   OH237988   1.863   5.168  18.743 -0.2072 -0.4517 -0.4443
 4598TIP3    H137989   1.908   5.161  18.660  1.5328 -2.0787  0.5670
 4598TIP3    H237990   1.901   5.099  18.798 -2.6526 -0.7222  1.0920
 4599TIP3   OH237991   0.454   4.030  19.025  0.6132 -0.3394 -0.2997
 4599TIP3    H137992   0.427   3.976  19.099  1.3856 -0.1232  0.1494
 4599TIP3    H237993   0.427   4.118  19.049 -0.6365 -0.5090 -1.0282
 4600TIP3   OH237994   6.515   3.191  20.250  0.2382 -0.1467 -0.4700
 4600TIP3    H137995   6.503   3.282  20.223 -0.0208 -0.7065 -2.3687
 4600TIP3    H237996   6.576   3.196  20.324  0.2568  1.5602 -0.5674
 4601TIP3   OH237997   0.778   6.366  19.322  0.2663 -0.0481  0.5587
 4601TIP3    H137998   0.841   6.324  19.379  1.3624  0.3655 -0.3053
 4601TIP3    H237999   0.807   6.457  19.317  0.7031 -0.2475 -1.2814
 4602TIP3   OH238000   0.288   6.269  21.248 -0.1313 -0.5399  0.0195
 4602TIP3    H138001   0.314   6.234  21.163 -0.2706 -1.2363  0.2543
 4602TIP3    H238002   0.363   6.250  21.305  0.4945  1.0647 -0.2287
 4603TIP3   OH238003   1.378   2.315  20.632  0.0716 -0.1284 -0.1311
 4603TIP3    H138004   1.448   2.381  20.629 -0.3848  0.9372  4.7160
 4603TIP3    H238005   1.302   2.360  20.594  0.8709  0.4377 -1.0962
 4604TIP3   OH238006   2.580   0.653  20.688 -0.2989 -0.4707  0.4491
 4604TIP3    H138007   2.655   0.712  20.698  0.1117 -1.1420  1.4470
 4604TIP3    H238008   2.590   0.589  20.758 -1.1592 -1.2859 -0.1501
 4605TIP3   OH238009   2.366   3.030  21.119  0.3615 -0.0621 -0.2774
 4605TIP3    H138010   2.324   2.970  21.058  1.1368 -0.0860 -0.8047
 4605TIP3    H238011   2.383   3.109  21.068 -1.3583  0.9404  0.6139
 4606TIP3   OH238012   4.545   2.087  20.313  0.1124  0.1186 -0.1272
 4606TIP3    H138013   4.546   2.182  20.305 -0.8317  0.1317 -0.1624
 4606TIP3    H238014   4.459   2.066  20.350 -0.7900 -0.8924 -2.5233
 4607TIP3   OH238015   4.013   6.253  20.496  0.5451 -0.4749  0.0025
 4607TIP3    H138016   3.937   6.234  20.552 -0.2709 -1.8991 -1.4983
 4607TIP3    H238017   3.982   6.319  20.434  0.4703 -1.1337 -0.6789
 4608TIP3   OH238018   6.328   5.859  19.758 -0.1879 -0.1832  0.2870
 4608TIP3    H138019   6.289   5.926  19.701  0.8096  0.7062  0.6265
 4608TIP3    H238020   6.332   5.781  19.703 -3.0630 -0.5391  0.4462
 4609TIP3   OH238021   0.891   2.032  19.254  0.5890  0.5340  0.8423
 4609TIP3    H138022   0.906   2.124  19.231  1.9241  0.7148  2.2503
 4609TIP3    H238023   0.970   1.987  19.227 -0.1823 -0.2834 -0.1107
 4610TIP3   OH238024   6.082   2.895  18.743 -0.4323 -0.3420  0.0754
 4610TIP3    H138025   6.085   2.976  18.693  2.2130 -0.0872  0.4792
 4610TIP3    H238026   6.035   2.918  18.823 -1.6381  0.1689 -0.7531
 4611TIP3   OH238027   2.966   0.231  21.288  0.2048  0.1781  0.2678
 4611TIP3    H138028   2.932   0.167  21.226  1.0064 -0.2742  0.2786
 4611TIP3    H238029   2.987   0.180  21.366 -0.8168  0.7475  0.9343
 4612TIP3   OH238030   3.259   0.625  19.476 -0.4708 -0.4347  0.0549
 4612TIP3    H138031   3.338   0.573  19.459 -0.1967 -0.1353  0.4176
 4612TIP3    H238032   3.238   0.607  19.567 -0.2466  0.2567  0.2488
 4613TIP3   OH238033   5.362   4.095  19.156 -0.0102  0.0014  0.0149
 4613TIP3    H138034   5.339   4.013  19.199  1.7463 -0.9639 -0.7626
 4613TIP3    H238035   5.284   4.149  19.163 -0.8347 -1.3069  1.5498
 4614TIP3   OH238036   6.202   3.299  18.807  0.4526 -0.3238  0.7138
 4614TIP3    H138037   6.184   3.311  18.714 -1.8219 -0.1176  1.1422
 4614TIP3    H238038   6.295   3.321  18.816  0.4562  0.7163 -1.3233
 4615TIP3   OH238039   0.898   2.542  18.944 -0.4220 -0.3150  0.3786
 4615TIP3    H138040   0.899   2.624  18.894  0.4442 -0.0519  0.8013
 4615TIP3    H238041   0.980   2.544  18.994 -1.2415 -0.5862  1.7768
 4616TIP3   OH238042   4.450   2.572  18.788  0.5296 -0.3646  0.6237
 4616TIP3    H138043   4.356   2.568  18.774  0.4880  0.5347  0.6065
 4616TIP3    H238044   4.489   2.550  18.704  0.3576 -1.9970  0.9468
 4617TIP3   OH238045   4.090   0.756  19.109 -0.5529 -0.1154  0.0992
 4617TIP3    H138046   4.179   0.726  19.088 -1.6872 -3.0254 -1.0988
 4617TIP3    H238047   4.068   0.711  19.191 -0.2923  2.1758  1.5127
 4618TIP3   OH238048   1.582   2.671  19.862 -0.3397  0.3063  0.0666
 4618TIP3    H138049   1.559   2.764  19.865 -0.0736  0.3620  0.9934
 4618TIP3    H238050   1.515   2.628  19.917 -0.5331 -0.0671 -0.4552
 4619TIP3   OH238051   1.019   4.477  19.907  0.6962  0.0543 -0.1553
 4619TIP3    H138052   1.008   4.417  19.833  1.8085 -0.3775  0.0204
 4619TIP3    H238053   1.044   4.560  19.866  0.1216  0.1532 -0.3268
 4620TIP3   OH238054   4.685   3.941  18.325 -0.1476  0.1629 -0.1118
 4620TIP3    H138055   4.751   3.962  18.390 -0.8917  2.1530  0.0743
 4620TIP3    H238056   4.727   3.962  18.241  0.9233 -2.7022 -0.3762
 4621TIP3   OH238057   6.608   4.958  19.224 -0.0941  0.0367  0.2098
 4621TIP3    H138058   6.601   4.872  19.266 -0.6142  0.0538  0.1602
 4621TIP3    H238059   6.702   4.975  19.222  0.0228 -0.5856  0.1120
 4622TIP3   OH238060   4.512   6.563  20.511 -0.0457 -0.3195  0.1791
 4622TIP3    H138061   4.471   6.649  20.507  1.7418  0.5528 -1.9080
 4622TIP3    H238062   4.553   6.560  20.597  0.3209  1.1813  0.0905
 4623TIP3   OH238063   4.299   4.428  19.216 -0.3024  0.8195  0.1789
 4623TIP3    H138064   4.312   4.350  19.270  3.9592  0.9044 -0.3460
 4623TIP3    H238065   4.257   4.491  19.274 -0.1204 -0.5842  1.9224
 4624TIP3   OH238066   3.662   1.002  20.707 -0.4564  0.1694  0.2676
 4624TIP3    H138067   3.579   0.956  20.709  0.4718 -1.5791  1.8219
 4624TIP3    H238068   3.655   1.069  20.775 -0.8259  0.5339 -0.1196
 4625TIP3   OH238069   2.562   3.470  19.436  0.7786 -0.0258 -0.0970
 4625TIP3    H138070   2.472   3.437  19.440  0.9204 -0.7108 -1.6182
 4625TIP3    H238071   2.612   3.409  19.490  0.0623  1.6125  2.6001
 4626TIP3   OH238072   0.701   5.153  20.130 -0.4934  0.4428  0.2764
 4626TIP3    H138073   0.648   5.229  20.107  0.7062  0.6167 -2.3592
 4626TIP3    H238074   0.786   5.190  20.155  1.2128  0.1329 -4.1535
 4627TIP3   OH238075   6.554   1.959  19.694  0.2117 -0.3479 -0.5001
 4627TIP3    H138076   6.520   2.045  19.671  1.1777 -0.0389 -0.8055
 4627TIP3    H238077   6.602   1.973  19.776 -0.6889 -0.8554  0.1332
 4628TIP3   OH238078   5.506   2.931  18.759  0.0044  0.3297  0.6346
 4628TIP3    H138079   5.472   2.896  18.677 -0.4083  0.2214  0.8511
 4628TIP3    H238080   5.497   3.026  18.751  1.8368  0.4655 -0.2693
 4629TIP3   OH238081   0.968   2.817  18.488 -0.2818 -0.6354 -0.0960
 4629TIP3    H138082   0.972   2.887  18.423 -0.4566 -0.5514 -0.0167
 4629TIP3    H238083   1.057   2.782  18.492 -0.2819 -0.6756 -0.4161
 4630TIP3   OH238084   3.749   4.165  18.952  0.3333  0.1323 -0.5651
 4630TIP3    H138085   3.743   4.260  18.954  1.6791  0.2345  1.4737
 4630TIP3    H238086   3.747   4.143  18.859  0.6524  2.1908 -1.1093
 4631TIP3   OH238087   0.994   5.087  20.621  0.2499 -0.0883  0.0339
 4631TIP3    H138088   0.909   5.046  20.639 -0.6116  0.4991 -2.3187
 4631TIP3    H238089   0.982   5.178  20.649  0.2809 -0.1107  0.1224
 4632TIP3   OH238090   4.126   6.125  19.570 -0.7856 -0.4557  0.5882
 4632TIP3    H138091   4.116   6.205  19.518 -1.0970 -0.3392  0.8208
 4632TIP3    H238092   4.198   6.145  19.630  1.3593 -1.4927 -1.4662
 4633TIP3   OH238093   5.648   2.729  20.050  0.0532 -0.7156  0.4010
 4633TIP3    H138094   5.740   2.728  20.025 -0.6188 -0.6424 -2.3841
 4633TIP3    H238095   5.627   2.822  20.058 -0.6634 -0.4107 -3.1608
 4634TIP3   OH238096   6.170   1.492  20.087 -0.4483 -0.1933 -0.2395
 4634TIP3    H138097   6.220   1.515  20.165  0.0194 -0.6011 -0.4134
 4634TIP3    H238098   6.138   1.576  20.053 -0.8258 -0.0281  0.4940
 4635TIP3   OH238099   4.083   3.501  21.334  0.4491  0.5888  0.1657
 4635TIP3    H138100   4.128   3.463  21.259 -0.0516  1.0450 -0.3828
 4635TIP3    H238101   3.990   3.484  21.317  0.3801 -0.0209  1.0968
 4636TIP3   OH238102   1.241   1.865  21.522 -0.5340 -0.3453  0.4333
 4636TIP3    H138103   1.336   1.853  21.527 -0.4386 -0.1548 -0.6816
 4636TIP3    H238104   1.224   1.945  21.571 -0.0141  0.0189  0.0355
 4637TIP3   OH238105   4.770   2.904  17.646 -0.4493 -0.1311 -0.3131
 4637TIP3    H138106   4.851   2.938  17.686 -0.0621  0.9693 -1.9304
 4637TIP3    H238107   4.757   2.819  17.687  0.4631  0.4996  1.3989
 4638TIP3   OH238108   1.396   1.728  18.694 -0.6962  0.0099  0.3222
 4638TIP3    H138109   1.330   1.782  18.649 -0.7086  1.1257  1.6271
 4638TIP3    H238110   1.480   1.759  18.659 -0.7326  0.4827  0.6497
 4639TIP3   OH238111   1.032   3.288  19.682  0.3874  0.1968  0.2059
 4639TIP3    H138112   1.004   3.329  19.600 -0.3970 -0.8066 -0.0425
 4639TIP3    H238113   1.065   3.202  19.657 -0.9518 -0.5917  1.0463
 4640TIP3   OH238114   4.056   2.815  17.640 -0.7667  0.6118  0.1109
 4640TIP3    H138115   4.063   2.895  17.692 -0.7110  0.5882  0.1394
 4640TIP3    H238116   3.997   2.839  17.568 -0.1083  0.9135 -0.3337
 4641TIP3   OH238117   0.659   2.672  18.741 -0.1381  0.0245 -0.1328
 4641TIP3    H138118   0.634   2.664  18.832  1.5394 -1.8595  0.2333
 4641TIP3    H238119   0.719   2.746  18.739  0.1279 -0.1724  0.3809
 4642TIP3   OH238120   2.951   4.027  19.186 -0.5523 -0.1473 -0.0147
 4642TIP3    H138121   3.037   4.011  19.146 -0.4354  0.5690 -0.0674
 4642TIP3    H238122   2.917   3.940  19.206  0.0070 -0.4547 -0.3761
 4643TIP3   OH238123   4.678   2.339  18.207 -0.3097  0.1404  0.3522
 4643TIP3    H138124   4.667   2.428  18.174  1.2716  0.4124  0.4658
 4643TIP3    H238125   4.629   2.337  18.289 -1.1752  0.5877 -0.1399
 4644TIP3   OH238126   5.317   2.581  19.330 -0.5106  0.0883 -0.0777
 4644TIP3    H138127   5.372   2.503  19.323 -0.0734  0.2532  1.2693
 4644TIP3    H238128   5.245   2.554  19.387 -0.5312  0.5733  0.1258
 4645TIP3   OH238129   1.661   2.992  21.337 -0.4427  0.3504  0.3329
 4645TIP3    H138130   1.741   2.968  21.384 -0.6211 -0.6543  0.1491
 4645TIP3    H238131   1.690   3.055  21.271  0.3948 -0.7479 -0.3907
 4646TIP3   OH238132   6.019   5.019  19.795  0.1216  0.1994 -0.3439
 4646TIP3    H138133   5.998   5.112  19.789 -0.3176  0.2223  1.0411
 4646TIP3    H238134   5.934   4.975  19.790  0.2351 -0.0578 -0.0307
 4647TIP3   OH238135   5.974   1.832  18.436  0.5981 -0.2832 -0.2791
 4647TIP3    H138136   5.975   1.893  18.362  1.8621  1.8620  1.3837
 4647TIP3    H238137   6.050   1.857  18.489  0.2267 -2.2827  1.3260
 4648TIP3   OH238138   2.201   2.939  19.025 -0.0692 -0.2327  0.2720
 4648TIP3    H138139   2.172   2.943  19.116  1.0778  1.4688  0.6153
 4648TIP3    H238140   2.266   3.009  19.017  0.0997 -0.5448 -1.7811
 4649TIP3   OH238141   0.441   4.621  20.112  0.2825  0.1774 -0.3994
 4649TIP3    H138142   0.387   4.680  20.059  1.3314  0.4062 -1.2327
 4649TIP3    H238143   0.430   4.654  20.202 -1.5199 -0.2241 -0.4227
 4650TIP3   OH238144   5.134   4.963  19.723  0.0340 -1.0552 -0.1641
 4650TIP3    H138145   5.122   5.039  19.667 -0.9400 -0.4618  0.7987
 4650TIP3    H238146   5.204   4.913  19.682  1.6742  1.0603 -0.0686
 4651TIP3   OH238147   1.149   2.040  21.708 -0.0167 -0.1208 -0.4933
 4651TIP3    H138148   1.090   2.113  21.728  0.9473  1.0357 -1.6756
 4651TIP3    H238149   1.142   1.983  21.784  1.2764  2.5619  1.8603
 4652TIP3   OH238150   4.184   0.817  19.528  0.2147  0.1837  0.4475
 4652TIP3    H138151   4.241   0.745  19.501  0.2076 -0.3368  1.7664
 4652TIP3    H238152   4.098   0.796  19.491  0.5630  0.3245 -0.4735
 4653TIP3   OH238153   2.381   2.035  19.148  0.3671  0.1045 -0.3169
 4653TIP3    H138154   2.367   1.941  19.159  1.3498 -0.0019  0.1521
 4653TIP3    H238155   2.474   2.048  19.167  0.0607  1.3030  0.4799
 4654TIP3   OH238156   2.874   0.947  20.606  0.6540 -0.0241 -0.1516
 4654TIP3    H138157   2.801   0.955  20.668  0.0589 -0.8622 -0.7183
 4654TIP3    H238158   2.832   0.918  20.525  1.6960 -1.0251 -0.3385
 4655TIP3   OH238159   0.900   0.136  19.124 -0.0664  0.0545  0.0271
 4655TIP3    H138160   0.809   0.141  19.154 -0.2230  0.3090 -0.4744
 4655TIP3    H238161   0.945   0.088  19.193 -0.4336  0.5398  0.6168
 4656TIP3   OH238162   1.900   2.975  21.500 -0.7097 -0.5226  0.2529
 4656TIP3    H138163   1.873   2.920  21.574  0.2883  1.9046  2.5805
 4656TIP3    H238164   1.987   2.941  21.476 -1.1054 -1.4187  0.0216
 4657TIP3   OH238165   4.004   1.065  19.458  0.1590 -0.0111 -0.2857
 4657TIP3    H138166   4.044   1.039  19.541  0.8064  0.1633 -0.5375
 4657TIP3    H238167   3.938   1.130  19.483 -0.3908 -0.7349  0.1890
 4658TIP3   OH238168   3.388   3.640  19.293  0.3981 -0.3830 -0.1876
 4658TIP3    H138169   3.379   3.733  19.316  2.6384  0.1519 -1.2648
 4658TIP3    H238170   3.480   3.630  19.268 -0.3951 -2.2623 -2.7964
 4659TIP3   OH238171   1.860   6.196  19.822 -0.0017 -0.4039  0.4868
 4659TIP3    H138172   1.806   6.129  19.864 -0.3608 -1.0321 -0.9105
 4659TIP3    H238173   1.861   6.171  19.730  3.6630 -1.1238  0.5623
 4660TIP3   OH238174   3.523   6.299  18.674  0.0233  0.1195 -0.2345
 4660TIP3    H138175   3.606   6.342  18.657  0.4253 -0.8410 -0.8063
 4660TIP3    H238176   3.474   6.361  18.728  1.1715  0.6286  0.2553
 4661TIP3   OH238177   5.164   0.299  20.356 -0.1284  0.2454  0.4272
 4661TIP3    H138178   5.227   0.241  20.397  1.6728  0.4955 -1.7476
 4661TIP3    H238179   5.087   0.296  20.412  1.9371  0.2542  3.4674
 4662TIP3   OH238180   5.578   3.441  18.565  0.1074 -0.3997  0.4787
 4662TIP3    H138181   5.642   3.375  18.537 -0.5816 -0.1284 -1.9898
 4662TIP3    H238182   5.494   3.397  18.554 -0.2236 -0.5312  3.0593
 4663TIP3   OH238183   2.246   0.533  19.615  0.3446 -0.0909 -0.1870
 4663TIP3    H138184   2.290   0.485  19.685 -1.2025 -0.5734  0.5011
 4663TIP3    H238185   2.188   0.594  19.660 -0.5557 -0.2938 -1.0430
 4664TIP3   OH238186   1.248   1.892  20.075  0.4073 -0.1004 -0.1431
 4664TIP3    H138187   1.204   1.932  20.000  0.9282 -0.7662 -0.8215
 4664TIP3    H238188   1.333   1.864  20.041 -0.6844 -3.6354 -0.2693
 4665TIP3   OH238189   2.351   1.297  17.619 -0.5056  0.1255 -0.2545
 4665TIP3    H138190   2.411   1.246  17.566  0.5072  1.2348 -0.2248
 4665TIP3    H238191   2.281   1.236  17.642  0.6389 -1.2230 -0.2217
 4666TIP3   OH238192   1.971   5.980  21.283 -0.4557  0.6546  0.4155
 4666TIP3    H138193   1.899   6.038  21.306 -2.1597 -1.2372  0.1160
 4666TIP3    H238194   1.929   5.901  21.249  1.7289 -0.8974  1.0796
 4667TIP3   OH238195   3.223   3.536  18.777 -0.0985  0.3977 -0.3376
 4667TIP3    H138196   3.291   3.540  18.710 -0.6660 -2.4775 -1.1970
 4667TIP3    H238197   3.141   3.541  18.728 -0.5159 -1.3588  0.1130
 4668TIP3   OH238198   2.152   1.184  20.365  0.5285  0.0799 -0.1511
 4668TIP3    H138199   2.076   1.241  20.350  0.7895  0.1939 -1.1095
 4668TIP3    H238200   2.227   1.241  20.352  0.7941 -0.0010  0.9384
 4669TIP3   OH238201   2.487   5.975  21.103 -0.4340 -0.1440  0.1779
 4669TIP3    H138202   2.532   6.059  21.114 -0.2689 -0.1254 -0.5995
 4669TIP3    H238203   2.417   5.977  21.168 -1.1951  1.1341 -0.6327
 4670TIP3   OH238204   0.843   6.568  18.485 -0.3812  0.7509 -0.0407
 4670TIP3    H138205   0.933   6.587  18.512 -0.4250 -0.0269  0.6975
 4670TIP3    H238206   0.842   6.586  18.391  1.1250 -1.2156 -0.5050
 4671TIP3   OH238207   3.830   1.653  19.622 -0.1235  0.1377  0.1828
 4671TIP3    H138208   3.735   1.661  19.623 -0.1934 -0.3262 -0.9442
 4671TIP3    H238209   3.848   1.570  19.666 -0.4090 -0.8241 -1.4134
 4672TIP3   OH238210   2.431   1.403  19.218  0.0252 -0.5463 -0.2877
 4672TIP3    H138211   2.388   1.370  19.139  1.4012 -1.8540 -0.5104
 4672TIP3    H238212   2.370   1.382  19.289 -1.3447  0.8692 -0.9660
 4673TIP3   OH238213   4.235   6.298  19.394 -0.2154 -0.6080 -0.2536
 4673TIP3    H138214   4.189   6.379  19.375 -1.3577 -1.1750  0.0086
 4673TIP3    H238215   4.317   6.305  19.345 -0.2661  0.7235 -0.1647
 4674TIP3   OH238216   1.747   6.121  18.888 -0.2603  0.3249 -0.1141
 4674TIP3    H138217   1.789   6.050  18.839 -0.7831 -0.4053  0.4750
 4674TIP3    H238218   1.771   6.201  18.840  0.1233 -0.2679 -0.9317
 4675TIP3   OH238219   2.887   3.428  19.014  0.2158 -0.1804  0.2466
 4675TIP3    H138220   2.829   3.429  19.090 -1.4245 -0.7791 -0.9295
 4675TIP3    H238221   2.883   3.518  18.980 -0.6153 -0.3844 -0.2274
 4676TIP3   OH238222   0.877   3.458  19.484 -0.6819  0.2851  0.7417
 4676TIP3    H138223   0.891   3.397  19.412  1.7971  0.7912  0.7258
 4676TIP3    H238224   0.883   3.545  19.444  1.2012  0.5831  1.5550
 4677TIP3   OH238225   1.393   1.306  20.193 -0.5125  0.7956 -0.5343
 4677TIP3    H138226   1.312   1.296  20.244  0.1089  1.5071  0.6352
 4677TIP3    H238227   1.463   1.282  20.254  0.2345  1.4399 -1.1210
 4678TIP3   OH238228   4.597   3.067  20.753 -0.0361 -0.1743  0.0062
 4678TIP3    H138229   4.586   3.162  20.750 -1.9969 -0.3229  0.9393
 4678TIP3    H238230   4.675   3.050  20.701 -0.1690  1.8656 -0.9480
 4679TIP3   OH238231   6.456   3.426  21.074  0.2064 -0.7698 -0.2184
 4679TIP3    H138232   6.393   3.438  21.002 -0.9052  0.3998  0.8855
 4679TIP3    H238233   6.529   3.379  21.034 -0.9558 -1.3490 -1.7826
 4680TIP3   OH238234   3.924   2.557  18.896 -0.0890 -0.9038 -0.2585
 4680TIP3    H138235   3.906   2.614  18.821 -0.3336  0.7054  0.9490
 4680TIP3    H238236   3.959   2.617  18.963 -1.2700 -2.0073  1.4161
 4681TIP3   OH238237   6.215   6.376  19.487  0.3821 -0.2683  0.3736
 4681TIP3    H138238   6.289   6.433  19.464 -0.5218  0.8083  0.0325
 4681TIP3    H238239   6.213   6.310  19.418  1.0986 -0.3973  0.4662
 4682TIP3   OH238240   4.692   5.190  19.030  0.0875 -0.4845  0.2923
 4682TIP3    H138241   4.674   5.213  19.121 -0.2138  0.9001 -0.0919
 4682TIP3    H238242   4.687   5.273  18.983  0.7848 -1.0909 -0.9080
 4683TIP3   OH238243   4.651   4.239  18.474 -0.0282  0.0314  0.1733
 4683TIP3    H138244   4.646   4.178  18.401 -1.1093 -0.3818  0.5642
 4683TIP3    H238245   4.709   4.308  18.444  0.1397 -0.5118 -0.7867
 4684TIP3   OH238246   5.066   6.243  20.758  0.5289  0.3821 -0.2362
 4684TIP3    H138247   5.117   6.239  20.677  0.3140  1.8555 -0.4893
 4684TIP3    H238248   5.060   6.153  20.788  2.8383  0.1069 -0.4681
 4685TIP3   OH238249   0.207   5.197  20.392 -0.4911 -0.4109  0.7620
 4685TIP3    H138250   0.136   5.260  20.388  0.2936  0.4903  0.6538
 4685TIP3    H238251   0.168   5.118  20.431 -2.2083 -0.8820 -1.6576
 4686TIP3   OH238252   4.964   1.877  20.329  0.2787  0.5720 -0.1671
 4686TIP3    H138253   5.028   1.941  20.297  1.8075 -1.0759 -0.5166
 4686TIP3    H238254   4.891   1.931  20.360  1.8409  2.5394  0.3146
 4687TIP3   OH238255   3.610   3.354  20.605 -0.4780 -0.3283 -0.0041
 4687TIP3    H138256   3.644   3.432  20.561 -0.9204  0.2872  0.7163
 4687TIP3    H238257   3.516   3.369  20.612 -0.5673 -0.9304  0.1354
 4688TIP3   OH238258   1.829   2.140  17.928  0.5663 -0.3831  0.3064
 4688TIP3    H138259   1.865   2.222  17.892 -0.2600  0.5803  1.5752
 4688TIP3    H238260   1.875   2.129  18.012 -0.0294 -0.6952  0.5931
 4689TIP3   OH238261   3.808   6.482  20.466 -0.0817  0.0138  0.1455
 4689TIP3    H138262   3.805   6.479  20.371  0.5079  1.4347  0.0536
 4689TIP3    H238263   3.723   6.447  20.494 -0.2230 -0.5045 -0.8800
 4690TIP3   OH238264   5.278   1.278  19.750  0.5888 -0.3815 -0.3034
 4690TIP3    H138265   5.367   1.274  19.717  0.6916 -0.8932  0.0172
 4690TIP3    H238266   5.286   1.256  19.843  0.3975  1.7401  0.2672
 4691TIP3   OH238267   4.778   3.382  19.572  1.0929  0.1987 -0.3830
 4691TIP3    H138268   4.815   3.408  19.656  0.9231 -0.1470 -0.1956
 4691TIP3    H238269   4.844   3.325  19.533  1.7169  1.3412 -1.0494
 4692TIP3   OH238270   2.619   1.323  18.004 -0.5502  0.3374 -0.1439
 4692TIP3    H138271   2.550   1.257  17.995  0.0560 -0.4905  1.0444
 4692TIP3    H238272   2.581   1.389  18.061 -0.0965 -0.5584  1.2545
 4693TIP3   OH238273   4.828   4.410  21.133  0.7167  0.7277  0.4900
 4693TIP3    H138274   4.908   4.360  21.150  0.5799  0.3635  0.0937
 4693TIP3    H238275   4.851   4.469  21.062  0.3864 -0.0084 -0.2413
 4694TIP3   OH238276   2.047   4.918  20.992  0.0761  0.2341 -0.0839
 4694TIP3    H138277   2.033   4.832  20.953  0.8534 -0.4188  1.0192
 4694TIP3    H238278   1.989   4.920  21.068 -1.1556  1.3544 -0.9960
 4695TIP3   OH238279   3.918   0.006  17.701 -0.5665 -0.4299 -0.0594
 4695TIP3    H138280   3.910   0.091  17.745  1.4675 -0.5320  0.5835
 4695TIP3    H238281   3.845  -0.046  17.735 -0.6017  0.3790  1.1402
 4696TIP3   OH238282   0.613   4.097  19.346 -0.2521  0.2065 -0.2650
 4696TIP3    H138283   0.642   4.058  19.429  0.6748 -0.4573 -0.8823
 4696TIP3    H238284   0.557   4.030  19.306  3.0238 -1.5885 -2.3271
 4697TIP3   OH238285   5.728   6.368  20.536 -0.6543 -0.8852  0.4289
 4697TIP3    H138286   5.795   6.358  20.603  0.9408  0.9840 -0.7922
 4697TIP3    H238287   5.682   6.448  20.560 -4.1325 -3.2237  2.5078
 4698TIP3   OH238288   2.783   3.192  20.950 -0.0584  0.2303  0.1623
 4698TIP3    H138289   2.861   3.228  20.992 -0.1781 -0.0633  0.6407
 4698TIP3    H238290   2.799   3.203  20.856 -0.9037  3.2378  0.2647
 4699TIP3   OH238291   3.429   0.228  20.633 -0.6271 -0.0815 -0.1688
 4699TIP3    H138292   3.383   0.222  20.549 -0.9622 -1.3513  0.0793
 4699TIP3    H238293   3.510   0.179  20.620  0.1695  1.2024 -0.2579
 4700TIP3   OH238294   0.262   0.625  18.628  0.2688  0.2366  0.4509
 4700TIP3    H138295   0.273   0.675  18.547  1.4164  1.1789  1.1573
 4700TIP3    H238296   0.230   0.689  18.692  1.2431 -0.0304  1.2310
 4701TIP3   OH238297   2.071   6.339  20.351 -0.0517  0.0196 -0.4493
 4701TIP3    H138298   1.996   6.331  20.292  0.4819 -1.6871 -0.9467
 4701TIP3    H238299   2.146   6.317  20.296  0.4441 -1.8436  0.8915
 4702TIP3   OH238300   5.582   3.726  20.318 -0.0850 -0.0131 -0.7096
 4702TIP3    H138301   5.627   3.730  20.402 -0.3653  0.9853 -0.6001
 4702TIP3    H238302   5.503   3.674  20.336 -0.5110  0.7979 -0.1715
 4703TIP3   OH238303   2.099   2.897  20.406  0.1483  0.5150  0.5321
 4703TIP3    H138304   2.060   2.942  20.481 -1.9930 -0.5542  0.1470
 4703TIP3    H238305   2.033   2.832  20.380  0.6965  0.9943 -2.4119
 4704TIP3   OH238306   1.944   3.889  19.135 -0.1039  0.3052  0.6320
 4704TIP3    H138307   1.906   3.926  19.214 -0.8265  1.0104 -0.0328
 4704TIP3    H238308   1.980   3.965  19.088 -0.3201 -0.0120 -0.0558
 4705TIP3   OH238309   3.811   0.385  21.075 -0.2147  0.1295  0.2128
 4705TIP3    H138310   3.774   0.473  21.083 -0.2813  0.0913  0.3366
 4705TIP3    H238311   3.777   0.352  20.992 -1.4616 -0.3704  0.8902
 4706TIP3   OH238312   5.831   2.019  19.061  0.9659  0.8919  0.1586
 4706TIP3    H138313   5.823   1.995  18.969 -1.4380  1.0968  0.2629
 4706TIP3    H238314   5.795   2.108  19.066 -3.0678 -0.6237  1.8909
 4707TIP3   OH238315   3.343   4.997  17.751  0.4741  0.6073 -0.2578
 4707TIP3    H138316   3.381   5.073  17.796 -0.3726  1.4689 -0.9410
 4707TIP3    H238317   3.400   4.924  17.774  1.0185  1.3477  0.8409
 4708TIP3   OH238318   1.839   4.719  20.045  1.1745  0.0998  0.4094
 4708TIP3    H138319   1.761   4.664  20.033  1.2640  0.1554 -0.5020
 4708TIP3    H238320   1.843   4.735  20.139  0.3111 -0.2359  0.5104
 4709TIP3   OH238321   5.044   0.576  19.607 -0.7000  0.4936  0.1295
 4709TIP3    H138322   5.021   0.514  19.676 -1.4167  0.2946 -0.2768
 4709TIP3    H238323   5.047   0.661  19.651 -1.3567  0.4003  0.3731
 4710TIP3   OH238324   5.153   2.670  20.875  0.1837  0.5932 -0.0598
 4710TIP3    H138325   5.194   2.706  20.797  1.3880 -0.0686  0.2355
 4710TIP3    H238326   5.206   2.703  20.948 -0.2672  0.3351  0.3965
 4711TIP3   OH238327   4.516   4.701  21.061  0.0372 -0.2764 -0.2880
 4711TIP3    H138328   4.469   4.725  21.141  0.0122  1.3445 -0.7541
 4711TIP3    H238329   4.531   4.606  21.069  0.9821  0.0183  2.1296
 4712TIP3   OH238330   0.928   1.919  20.973  0.2471 -0.2815  0.3290
 4712TIP3    H138331   0.913   1.964  21.056  0.0765 -0.7359  0.5506
 4712TIP3    H238332   1.012   1.953  20.941  0.3061 -0.0982  0.6812
 4713TIP3   OH238333   2.590   4.158  20.724 -0.7659  0.3017  0.3514
 4713TIP3    H138334   2.547   4.169  20.639 -1.2147  0.4349  0.5900
 4713TIP3    H238335   2.545   4.220  20.781 -0.6593  0.0104  0.7520
 4714TIP3   OH238336   0.274   4.435  20.506  0.6032  0.3534 -0.1923
 4714TIP3    H138337   0.288   4.505  20.442  2.3349  0.2284  0.0164
 4714TIP3    H238338   0.359   4.422  20.547  0.1345 -1.3591  0.3175
 4715TIP3   OH238339   0.752   5.737  19.568  1.1413  0.0849 -0.1312
 4715TIP3    H138340   0.789   5.810  19.618  2.8919  0.1698 -1.4640
 4715TIP3    H238341   0.668   5.720  19.610  1.3068  1.9494  1.0907
 4716TIP3   OH238342   4.175   1.575  17.316  0.3274 -0.4152  0.1542
 4716TIP3    H138343   4.187   1.518  17.240 -0.6394 -0.7834  0.2622
 4716TIP3    H238344   4.130   1.653  17.281 -0.4643 -0.7498  0.3954
 4717TIP3   OH238345   3.723   3.287  20.843  0.5017 -0.5162 -0.3240
 4717TIP3    H138346   3.686   3.325  20.763  0.5780  0.5794  0.1470
 4717TIP3    H238347   3.728   3.360  20.904  2.3256 -0.8930  0.0360
 4718TIP3   OH238348   1.644   3.935  18.934 -0.3976 -0.1496  0.4100
 4718TIP3    H138349   1.664   3.843  18.951  1.2331  0.3029  1.1807
 4718TIP3    H238350   1.722   3.968  18.889 -0.9607  0.8494  0.1442
 4719TIP3   OH238351   2.356   0.797  20.230 -0.2302 -0.1417  0.1329
 4719TIP3    H138352   2.419   0.728  20.210  1.0985  1.1391 -0.2201
 4719TIP3    H238353   2.408   0.867  20.269 -1.7248  0.2356  1.5609
 4720TIP3   OH238354   5.866   1.824  19.587  0.4490 -0.4870  0.1698
 4720TIP3    H138355   5.888   1.874  19.666 -0.4611  0.0869  0.0762
 4720TIP3    H238356   5.806   1.881  19.539 -1.7112 -2.1872  0.7132
 4721TIP3   OH238357   1.512   0.631  19.435  0.0548 -0.1665  0.2961
 4721TIP3    H138358   1.562   0.689  19.377  0.6338  0.3133  1.2674
 4721TIP3    H238359   1.577   0.588  19.490 -0.4268 -1.2353  0.0691
 4722TIP3   OH238360   2.428   5.109  18.858  0.3584  0.1533 -0.6255
 4722TIP3    H138361   2.372   5.161  18.916  0.7390  1.3517 -1.2943
 4722TIP3    H238362   2.367   5.073  18.793 -0.0878 -1.2989  0.5371
 4723TIP3   OH238363   2.047   4.066  20.748 -0.0129  0.5533  0.0702
 4723TIP3    H138364   2.114   4.001  20.772  1.3472  2.5998  2.2884
 4723TIP3    H238365   1.969   4.014  20.728  1.9082 -1.9010 -1.7424
 4724TIP3   OH238366   0.700   1.337  18.557  0.3006  0.5963 -0.0689
 4724TIP3    H138367   0.673   1.263  18.503  1.0870 -0.0221  0.3603
 4724TIP3    H238368   0.788   1.313  18.588  0.3129  1.4338  0.5757
 4725TIP3   OH238369   5.495   4.452  18.878 -0.3067 -0.0282  0.2367
 4725TIP3    H138370   5.465   4.536  18.844  2.1374  1.7085  2.0432
 4725TIP3    H238371   5.586   4.446  18.853  0.0885 -1.2203  1.7540
 4726TIP3   OH238372   6.118   1.639  18.935  0.5355 -0.6120 -0.6675
 4726TIP3    H138373   6.196   1.683  18.969  0.3352 -1.6450  1.2284
 4726TIP3    H238374   6.140   1.546  18.938 -1.0866 -0.9857  0.7886
 4727TIP3   OH238375   5.975   0.995  18.213 -0.1673 -0.1451 -0.1860
 4727TIP3    H138376   5.928   0.944  18.148  0.2917  0.2462 -0.8338
 4727TIP3    H238377   6.057   0.948  18.226 -0.7033 -0.8309  0.9485
 4728TIP3   OH238378   2.187   6.148  18.517  0.5664  0.2268  0.2878
 4728TIP3    H138379   2.107   6.153  18.464  0.0490 -0.5071  0.9656
 4728TIP3    H238380   2.247   6.210  18.476  0.1913 -0.3159 -1.1654
 4729TIP3   OH238381   1.817   4.075  18.796 -0.2097 -0.3162 -0.3312
 4729TIP3    H138382   1.842   4.122  18.717  0.2298 -1.3686 -0.8470
 4729TIP3    H238383   1.771   4.139  18.849  0.2017  0.6297 -1.0845
 4730TIP3   OH238384   0.822   2.753  20.859  0.4652  0.0666  0.2767
 4730TIP3    H138385   0.735   2.782  20.885  0.2050 -1.0512  0.6867
 4730TIP3    H238386   0.881   2.796  20.920 -0.0284 -1.3585  1.8339
 4731TIP3   OH238387   2.287   1.433  18.845  0.4985 -0.0714 -0.5388
 4731TIP3    H138388   2.258   1.390  18.925 -0.9467  1.7393 -0.0473
 4731TIP3    H238389   2.219   1.497  18.825  1.2785  0.1699 -2.7133
 4732TIP3   OH238390   1.865   5.107  19.423  0.0341 -0.2415 -0.7321
 4732TIP3    H138391   1.947   5.059  19.415  0.4736  0.5930 -1.3650
 4732TIP3    H238392   1.803   5.060  19.367  0.5729  0.1767 -1.6826
 4733TIP3   OH238393   5.401   4.753  21.003  0.5218  0.5140 -0.1593
 4733TIP3    H138394   5.389   4.712  20.917  0.8367  0.8454 -0.3594
 4733TIP3    H238395   5.324   4.809  21.013 -1.0142 -1.6277  0.9992
 4734TIP3   OH238396   0.321   5.891  20.422 -0.8681 -0.1957  0.3852
 4734TIP3    H138397   0.320   5.986  20.434  1.7692 -0.1942  1.0576
 4734TIP3    H238398   0.230   5.864  20.436 -1.3321  2.0151  2.1285
 4735TIP3   OH238399   4.176   6.032  20.530 -0.0935 -0.0381 -0.0872
 4735TIP3    H138400   4.114   5.969  20.496 -0.1077 -0.7871  1.2673
 4735TIP3    H238401   4.126   6.114  20.537 -1.2509 -0.8344  1.8361
 4736TIP3   OH238402   3.097   4.071  17.924 -0.2765 -0.2855 -0.2365
 4736TIP3    H138403   3.020   4.127  17.912  0.2235  0.7805  1.2399
 4736TIP3    H238404   3.061   3.984  17.940 -1.2548  0.3773  1.4204
 4737TIP3   OH238405   0.236   3.643  18.407 -0.1417 -0.5141  0.0840
 4737TIP3    H138406   0.203   3.672  18.322 -1.6178 -0.3246  0.7090
 4737TIP3    H238407   0.223   3.719  18.465  0.8050 -0.6581  0.5114
 4738TIP3   OH238408   2.883   0.506  19.888 -0.3386 -0.4827  0.2445
 4738TIP3    H138409   2.848   0.594  19.873  1.6611  0.9760  3.0364
 4738TIP3    H238410   2.820   0.465  19.947  0.2213  0.3374  1.4610
 4739TIP3   OH238411   2.518   5.917  20.169 -0.0050  0.3822 -0.3112
 4739TIP3    H138412   2.539   5.849  20.104 -0.3812 -0.5621  0.5303
 4739TIP3    H238413   2.423   5.918  20.173 -0.0088  1.0686 -0.4135
 4740TIP3   OH238414   4.245   1.374  18.992  0.2390 -0.6163  0.0580
 4740TIP3    H138415   4.299   1.297  18.973  2.4672  0.6987  0.6542
 4740TIP3    H238416   4.246   1.425  18.911  0.0728 -0.4863  0.1372
 4741TIP3   OH238417   1.589   3.129  17.825 -0.0813 -0.1196 -0.0741
 4741TIP3    H138418   1.674   3.093  17.797  1.1465  0.5405  2.5001
 4741TIP3    H238419   1.570   3.084  17.907 -1.5341  0.7532  0.0935
 4742TIP3   OH238420   5.770   6.083  20.478  0.7613  0.4531 -0.1280
 4742TIP3    H138421   5.705   6.084  20.549  0.1213 -1.0468 -0.6601
 4742TIP3    H238422   5.749   6.160  20.425  0.6233  1.0360  0.7446
 4743TIP3   OH238423   0.569   2.954  20.714  0.3403  0.3635 -0.0312
 4743TIP3    H138424   0.512   2.894  20.666  0.3257  0.6682 -0.3996
 4743TIP3    H238425   0.557   2.930  20.806 -0.5084  0.5222 -0.0904
 4744TIP3   OH238426   1.544   1.824  20.405 -0.9913 -0.0851  0.0378
 4744TIP3    H138427   1.534   1.742  20.357  1.6620  0.2370 -1.2218
 4744TIP3    H238428   1.612   1.872  20.358  1.5346  0.4781  3.7549
 4745TIP3   OH238429   3.471   0.557  20.096 -0.0553  0.3028 -0.2028
 4745TIP3    H138430   3.454   0.595  20.010  0.6675 -0.4580 -0.6955
 4745TIP3    H238431   3.565   0.568  20.110 -0.3039  1.2267  0.9019
 4746TIP3   OH238432   3.134   3.157  20.759  0.1321  0.1253  0.2192
 4746TIP3    H138433   3.139   3.251  20.743 -0.8786  0.3443  1.0674
 4746TIP3    H238434   3.041   3.136  20.751  0.3262 -0.7668  0.2105
 4747TIP3   OH238435   5.410   0.636  17.812  0.2892 -0.7124  0.0367
 4747TIP3    H138436   5.477   0.569  17.822  1.0739 -0.3191 -1.9995
 4747TIP3    H238437   5.456   0.718  17.830 -0.5267 -0.6401  1.9751
 4748TIP3   OH238438   1.328   1.513  21.018  0.0441 -0.1136 -0.4086
 4748TIP3    H138439   1.329   1.609  21.017  2.0956  0.0637  2.5327
 4748TIP3    H238440   1.249   1.489  20.971 -0.4315  3.0040 -1.4447
 4749TIP3   OH238441   5.482   6.615  21.282  0.4112 -0.1497 -0.0454
 4749TIP3    H138442   5.438   6.538  21.248  0.9650  0.7617 -3.1164
 4749TIP3    H238443   5.574   6.589  21.292  0.2566 -0.4042  0.8187
 4750TIP3   OH238444   6.022   6.540  18.498  0.2035 -0.1177 -0.2197
 4750TIP3    H138445   6.073   6.487  18.436 -0.5694 -0.1439 -0.8486
 4750TIP3    H238446   6.052   6.629  18.484 -2.2445  0.4012 -3.0591
 4751TIP3   OH238447   4.023   2.539  18.286  0.1460 -0.1919  0.0777
 4751TIP3    H138448   3.958   2.548  18.217  0.1849 -1.7629 -0.1970
 4751TIP3    H238449   4.015   2.619  18.338 -0.7172  0.4586 -1.0283
 4752TIP3   OH238450   2.558   5.148  19.499 -0.2688 -0.5675  0.0883
 4752TIP3    H138451   2.637   5.201  19.496 -0.9445  0.4559 -0.0999
 4752TIP3    H238452   2.505   5.179  19.425 -1.9853  0.6499  1.7331
 4753TIP3   OH238453   3.771   2.037  20.634 -0.5114  0.4394  0.0506
 4753TIP3    H138454   3.682   2.019  20.665 -0.3255 -0.5504  0.0513
 4753TIP3    H238455   3.827   2.019  20.710 -0.3394  1.5478  0.2061
 4754TIP3   OH238456   6.233   3.860  21.128 -0.0218 -0.1893  0.4660
 4754TIP3    H138457   6.157   3.859  21.186 -0.4155  1.2305  0.0226
 4754TIP3    H238458   6.303   3.820  21.179 -0.6526 -0.0324  1.4850
 4755TIP3   OH238459   2.055   1.011  19.711 -0.2386  0.2749 -0.2750
 4755TIP3    H138460   2.122   0.996  19.777  0.7857  0.6219 -1.1990
 4755TIP3    H238461   2.014   1.094  19.737  2.0400  1.9145 -1.5078
 4756TIP3   OH238462   3.558   0.838  20.206 -0.0947 -0.1796  0.3878
 4756TIP3    H138463   3.568   0.787  20.125  0.8218 -0.2802  0.5478
 4756TIP3    H238464   3.539   0.774  20.273  0.2453 -0.2249  0.4439
 4757TIP3   OH238465   3.450   3.908  19.417 -0.2669  0.6132  0.7834
 4757TIP3    H138466   3.504   3.975  19.375 -1.2195  2.1634  1.9378
 4757TIP3    H238467   3.487   3.899  19.505 -2.4938  2.6015  2.0424
 4758TIP3   OH238468   0.058   1.713  18.617  0.2558  0.1334 -0.3611
 4758TIP3    H138469   0.102   1.668  18.690  0.3776 -1.4703 -1.3767
 4758TIP3    H238470   0.100   1.799  18.614  0.0797  0.3379  1.5941
 4759TIP3   OH238471   1.368   5.274  20.697 -0.2854 -0.0989 -0.2192
 4759TIP3    H138472   1.323   5.225  20.765 -1.5263  2.1201  0.6760
 4759TIP3    H238473   1.457   5.287  20.732 -0.3188 -0.6209  0.0720
 4760TIP3   OH238474   2.173   4.702  20.678 -0.0772  0.5291 -0.4585
 4760TIP3    H138475   2.168   4.779  20.622  0.1176  1.2339  0.4729
 4760TIP3    H238476   2.264   4.700  20.709 -0.2171  0.2339 -0.0513
 4761TIP3   OH238477   2.159   3.662  17.949 -0.3799  0.4405 -0.2084
 4761TIP3    H138478   2.127   3.632  18.034  1.1862  0.0172  0.2619
 4761TIP3    H238479   2.113   3.745  17.934 -0.5777  0.5918  1.1248
 4762TIP3   OH238480   1.902   3.591  18.803  0.5971  0.1195  0.6653
 4762TIP3    H138481   1.884   3.552  18.718 -1.4815  1.7103  0.2745
 4762TIP3    H238482   1.986   3.636  18.793  0.3792  0.2725 -0.5570
 4763TIP3   OH238483   6.160   6.020  20.270 -0.4851 -0.2569 -0.3148
 4763TIP3    H138484   6.225   5.952  20.290 -1.0172 -0.5062  0.6562
 4763TIP3    H238485   6.189   6.057  20.187  0.3809 -0.9903 -0.3624
 4764TIP3   OH238486   0.102   0.285  21.142  0.5461  0.1285 -0.2535
 4764TIP3    H138487   0.033   0.262  21.204 -0.8752  3.3135 -0.4370
 4764TIP3    H238488   0.078   0.240  21.061 -0.1935 -0.3658  0.2266
 4765TIP3   OH238489   2.496   5.489  19.407  0.4163  0.6691 -0.1323
 4765TIP3    H138490   2.579   5.504  19.453  1.5132 -2.1488 -0.9663
 4765TIP3    H238491   2.510   5.527  19.320 -0.2277  2.5441  0.5268
 4766TIP3   OH238492   0.261   5.013  19.231  0.5383  0.3868 -0.0414
 4766TIP3    H138493   0.288   4.978  19.316  1.0585  0.0041 -0.3615
 4766TIP3    H238494   0.341   5.048  19.193 -0.0338  2.3647  0.4608
 4767TIP3   OH238495   6.451   4.355  17.910 -0.0965  0.3020 -0.6905
 4767TIP3    H138496   6.528   4.314  17.949 -0.8711 -0.6119 -0.0624
 4767TIP3    H238497   6.389   4.283  17.898 -1.5236  1.2676  0.4814
 4768TIP3   OH238498   6.167   0.749  20.983  0.1353 -0.3192 -0.4915
 4768TIP3    H138499   6.100   0.817  20.986  0.1250 -0.3456 -0.1777
 4768TIP3    H238500   6.185   0.727  21.074 -1.5442 -2.4118 -0.5861
 4769TIP3   OH238501   1.777   1.706  19.570  0.3287 -0.3340  0.2987
 4769TIP3    H138502   1.797   1.793  19.606 -0.5916  0.6802 -1.4864
 4769TIP3    H238503   1.843   1.649  19.609  1.9801  1.4637  0.3227
 4770TIP3   OH238504   2.914   1.458  20.205  1.2598 -0.4452  0.1991
 4770TIP3    H138505   2.946   1.401  20.275 -0.7898 -2.3369 -0.2861
 4770TIP3    H238506   2.824   1.430  20.191  0.9036  1.3948 -1.7069
 4771TIP3   OH238507   2.240   1.250  17.899 -0.7991  0.2415  0.7223
 4771TIP3    H138508   2.303   1.198  17.949 -1.8158 -0.2464  1.5266
 4771TIP3    H238509   2.217   1.194  17.825 -1.1153 -0.0389  1.0293
 4772TIP3   OH238510   4.487   2.654  19.271 -0.6651 -0.6314  0.2986
 4772TIP3    H138511   4.406   2.660  19.320 -1.9172  0.8027 -1.8009
 4772TIP3    H238512   4.485   2.729  19.212  1.2721 -1.6367 -1.1539
 4773TIP3   OH238513   4.958   0.809  19.727 -0.0980  0.2533  0.1261
 4773TIP3    H138514   4.941   0.821  19.633 -1.7123 -1.7546  0.0813
 4773TIP3    H238515   4.982   0.896  19.758  1.7339  0.7544 -2.3589
 4774TIP3   OH238516   3.594   4.326  21.061  0.2486 -0.2660  0.1698
 4774TIP3    H138517   3.689   4.334  21.067  0.1940  1.7592 -0.8626
 4774TIP3    H238518   3.575   4.238  21.094  2.7464 -1.9816 -2.5037
 4775TIP3   OH238519   4.675   1.538  20.886  0.4766  0.1181  0.1588
 4775TIP3    H138520   4.723   1.546  20.969 -0.0022 -0.0970  0.4609
 4775TIP3    H238521   4.588   1.571  20.907  0.6426  1.0348 -0.5291
 4776TIP3   OH238522   4.595   1.844  20.164  0.2225 -0.5889  0.0870
 4776TIP3    H138523   4.509   1.802  20.167  0.2463 -0.5794  2.4741
 4776TIP3    H238524   4.588   1.917  20.225  1.8278 -0.3732  0.0591
 4777TIP3   OH238525   2.051   4.158  17.875 -0.2322 -0.8638  0.0127
 4777TIP3    H138526   2.112   4.172  17.802  2.0829  0.2960  2.0395
 4777TIP3    H238527   2.023   4.246  17.900 -3.4506 -1.3664 -1.2839
 4778TIP3   OH238528   6.442   3.412  20.083 -0.0020 -0.5777  0.3622
 4778TIP3    H138529   6.350   3.394  20.101 -0.0831  0.1047  0.6298
 4778TIP3    H238530   6.443   3.500  20.045  0.6395 -0.1632  1.3248
 4779TIP3   OH238531   0.193   0.655  20.999 -0.5830 -0.4525 -0.4049
 4779TIP3    H138532   0.196   0.570  20.956 -0.6070 -0.8691  0.3954
 4779TIP3    H238533   0.132   0.707  20.947  1.3562 -0.0450 -2.4164
 4780TIP3   OH238534   4.206   3.056  17.414  0.0559 -0.3127  0.4646
 4780TIP3    H138535   4.122   3.061  17.369  0.3467 -0.8439 -0.1545
 4780TIP3    H238536   4.269   3.091  17.351  0.2687  0.3095  1.0179
 4781TIP3   OH238537   2.486   4.312  19.769 -0.4830 -0.6884  0.0258
 4781TIP3    H138538   2.394   4.318  19.742 -0.5461 -0.1761  0.3443
 4781TIP3    H238539   2.535   4.314  19.687 -0.7599 -1.0566 -0.1495
 4782TIP3   OH238540   0.262   1.788  19.356  0.4781  0.0671 -0.0650
 4782TIP3    H138541   0.348   1.745  19.348 -0.7619 -2.4081 -1.5156
 4782TIP3    H238542   0.241   1.815  19.266 -0.3902  0.3612  0.2220
 4783TIP3   OH238543   4.182   3.736  18.793 -0.0336 -1.0282 -0.0619
 4783TIP3    H138544   4.109   3.712  18.736  1.1068 -0.9469 -1.6368
 4783TIP3    H238545   4.233   3.656  18.801 -0.1644 -1.0270  0.8432
 4784TIP3   OH238546   2.913   0.760  18.870 -0.4129  0.8332  0.4480
 4784TIP3    H138547   2.929   0.737  18.779 -3.8653  2.1750 -0.6525
 4784TIP3    H238548   2.883   0.678  18.910 -0.1699  0.5268  0.0077
 4785TIP3   OH238549   5.896   1.923  21.300 -0.4082  0.3282  0.1097
 4785TIP3    H138550   5.896   1.920  21.204  0.0079 -0.5150  0.1343
 4785TIP3    H238551   5.870   1.835  21.327  0.7923  0.1679  0.7798
 4786TIP3   OH238552   3.226   5.334  18.411 -0.0421 -0.1943 -0.4589
 4786TIP3    H138553   3.318   5.308  18.405 -0.1360 -0.7230  0.2703
 4786TIP3    H238554   3.210   5.345  18.505 -0.5957  0.3718 -0.6130
 4787TIP3   OH238555   6.533   0.615  19.937  0.2374  0.3119  0.0448
 4787TIP3    H138556   6.452   0.565  19.954 -0.2182  0.6175 -1.1007
 4787TIP3    H238557   6.511   0.705  19.961  0.2323  0.3986 -0.2843
 4788TIP3   OH238558   2.576   1.775  19.864 -0.6335 -0.8066 -0.2268
 4788TIP3    H138559   2.567   1.811  19.776  1.8748  4.3885  1.2827
 4788TIP3    H238560   2.650   1.714  19.858 -0.4821 -0.5159 -1.6728
 4789TIP3   OH238561   2.795   3.564  17.911 -0.1935 -0.5687  0.3236
 4789TIP3    H138562   2.883   3.568  17.948  0.2689  1.1224 -0.8413
 4789TIP3    H238563   2.796   3.627  17.839 -0.8494 -3.9733 -3.0011
 4790TIP3   OH238564   5.656   2.228  18.756  0.2699  0.4861 -0.2153
 4790TIP3    H138565   5.692   2.244  18.669 -0.0842  1.4259 -0.2040
 4790TIP3    H238566   5.574   2.181  18.739 -0.2637  1.4825 -0.4548
 4791TIP3   OH238567   4.979   4.643  21.065  0.6950  0.9045 -0.1825
 4791TIP3    H138568   4.986   4.735  21.089  1.4548  1.1247 -1.1621
 4791TIP3    H238569   5.023   4.596  21.136 -2.5950  0.9655  2.0722
 4792TIP3   OH238570   4.540   6.266  21.331 -0.1656 -0.5960  0.2519
 4792TIP3    H138571   4.501   6.214  21.260 -0.9510  0.7739 -0.3805
 4792TIP3    H238572   4.466   6.315  21.367  0.5618  0.1850  0.7105
 4793TIP3   OH238573   5.801   4.294  19.923 -0.2163  0.2319 -0.1562
 4793TIP3    H138574   5.816   4.230  19.853 -0.9387  0.8746 -0.9053
 4793TIP3    H238575   5.869   4.274  19.987 -0.8018 -1.7122 -0.0608
 4794TIP3   OH238576   1.423   4.018  17.527 -0.3277 -0.1005 -0.1163
 4794TIP3    H138577   1.369   3.952  17.572  0.3758 -0.2302  0.5700
 4794TIP3    H238578   1.505   4.018  17.576  0.2059  0.2710 -0.9914
 4795TIP3   OH238579   5.847   4.038  19.805  0.3671  0.7174 -0.2235
 4795TIP3    H138580   5.768   4.026  19.856  0.5557 -0.3764 -0.1671
 4795TIP3    H238581   5.836   3.981  19.729  1.4277 -0.0491  0.1817
 4796TIP3   OH238582   5.680   0.667  18.654 -0.2292 -0.2391  0.2080
 4796TIP3    H138583   5.685   0.639  18.745  0.9860  0.1609  0.2789
 4796TIP3    H238584   5.712   0.757  18.654 -2.0769  0.4623 -0.3337
 4797TIP3   OH238585   0.210   5.568  18.580 -0.5010  0.5758  0.0864
 4797TIP3    H138586   0.178   5.498  18.636  0.6412  0.6598  0.8945
 4797TIP3    H238587   0.173   5.550  18.494 -2.0943  0.3014  0.8043
 4798TIP3   OH238588   4.979   6.536  18.228 -0.3654 -0.5711 -0.2764
 4798TIP3    H138589   4.928   6.543  18.147  2.7591  0.3019 -2.3312
 4798TIP3    H238590   4.987   6.442  18.242 -2.0839 -0.7347 -0.1334
 4799TIP3   OH238591   2.804   3.426  18.751  0.1204  0.1696 -0.0970
 4799TIP3    H138592   2.859   3.414  18.828  2.0223  0.4489 -1.3411
 4799TIP3    H238593   2.797   3.521  18.741 -0.0420  0.1389 -0.2976
 4800TIP3   OH238594   6.457   2.176  20.084  0.2120  0.1429  0.0254
 4800TIP3    H138595   6.384   2.236  20.093  1.4828  1.8024 -0.2533
 4800TIP3    H238596   6.444   2.112  20.154 -1.4441  0.4466  0.0175
 4801TIP3   OH238597   1.133   4.676  19.741  0.2650  0.0120 -0.3442
 4801TIP3    H138598   1.094   4.764  19.737 -0.6304 -0.3387  0.3204
 4801TIP3    H238599   1.188   4.671  19.663  0.7655  1.3677 -0.1105
 4802TIP3   OH238600   5.969   1.410  19.373 -0.0173  0.1824  0.0162
 4802TIP3    H138601   5.890   1.463  19.377  1.1775  2.1592 -0.9935
 4802TIP3    H238602   5.950   1.344  19.305 -0.6880  0.8404 -0.4537
 4803TIP3   OH238603   3.012   2.108  20.869 -0.2501  0.1563 -0.3437
 4803TIP3    H138604   3.051   2.068  20.791  0.4125  0.6762 -0.2917
 4803TIP3    H238605   3.015   2.040  20.935 -0.0038 -0.0111 -0.5267
 4804TIP3   OH238606   4.231   1.381  17.064 -0.3019 -0.3830  0.4859
 4804TIP3    H138607   4.285   1.455  17.037  0.9312 -1.5928 -0.4887
 4804TIP3    H238608   4.181   1.358  16.985 -1.9999  0.4626  1.2581
 4805TIP3   OH238609   0.268   2.652  20.099  0.4362 -0.1910 -0.1198
 4805TIP3    H138610   0.279   2.568  20.143  1.9210 -0.7903 -1.5033
 4805TIP3    H238611   0.300   2.717  20.161  0.4456 -0.7807  0.4992
 4806TIP3   OH238612   0.921   2.669  19.701 -0.5343 -0.5269  0.2837
 4806TIP3    H138613   0.916   2.575  19.679  0.4861 -0.1452 -1.8741
 4806TIP3    H238614   1.015   2.687  19.708 -0.7192  0.3801  0.5457
 4807TIP3   OH238615   1.747   0.347  19.940 -0.1457  0.1491  0.5290
 4807TIP3    H138616   1.791   0.286  20.000  0.5148  0.6612  0.5820
 4807TIP3    H238617   1.665   0.303  19.917  0.5247 -0.9710  0.1849
 4808TIP3   OH238618   1.333   2.268  20.129  0.4571  0.3075  0.0807
 4808TIP3    H138619   1.243   2.235  20.131  1.1499 -1.7134  0.9586
 4808TIP3    H238620   1.362   2.251  20.040  0.1709  0.3836 -0.0291
 4809TIP3   OH238621   0.716   0.658  20.027  0.9737  0.4919  0.1349
 4809TIP3    H138622   0.739   0.599  19.955  0.4651 -0.2409  0.5504
 4809TIP3    H238623   0.696   0.599  20.100 -0.8399  1.0970  0.1847
 4810TIP3   OH238624   2.651   4.568  18.054  0.3683  0.0604  0.4025
 4810TIP3    H138625   2.689   4.536  17.972 -0.0581 -1.6216  0.8350
 4810TIP3    H238626   2.580   4.627  18.026  1.3091  0.8703 -0.4032
 4811TIP3   OH238627   1.864   2.803  17.586  0.1041  0.2920  0.2087
 4811TIP3    H138628   1.881   2.744  17.659 -0.6393  0.6225  0.6708
 4811TIP3    H238629   1.773   2.785  17.562  0.4702 -0.1125 -0.9213
 4812TIP3   OH238630   6.158   2.140  18.667 -0.3132  0.3795  0.4095
 4812TIP3    H138631   6.152   2.073  18.734  0.1693 -1.1503 -1.0081
 4812TIP3    H238632   6.112   2.216  18.704  0.2999 -0.2490  2.5935
 4813TIP3   OH238633   4.541   1.149  19.023 -0.0607 -0.4474  0.1122
 4813TIP3    H138634   4.504   1.171  18.937 -1.2113 -0.4822  0.5800
 4813TIP3    H238635   4.588   1.228  19.049  0.3610 -0.4619 -0.5741
 4814TIP3   OH238636   3.453   2.408  18.718  0.2836  0.4148  0.3331
 4814TIP3    H138637   3.437   2.395  18.812  0.7499 -2.6137  0.0819
 4814TIP3    H238638   3.375   2.453  18.687 -0.0002  1.2313  2.1121
 4815TIP3   OH238639   0.750   3.463  17.794 -0.7085 -0.3448 -0.3306
 4815TIP3    H138640   0.808   3.488  17.866 -0.7254  2.0276 -1.0667
 4815TIP3    H238641   0.764   3.368  17.784  2.1348 -0.0885  0.2961
 4816TIP3   OH238642   4.576   5.392  19.951  0.1081 -0.1230  0.1665
 4816TIP3    H138643   4.485   5.365  19.938  0.1268 -0.2943  0.3882
 4816TIP3    H238644   4.586   5.469  19.895 -0.6341  0.8682  1.3411
 4817TIP3   OH238645   0.752   5.282  20.613 -0.1894  0.1134 -0.4354
 4817TIP3    H138646   0.705   5.351  20.566 -1.3488 -0.8158 -0.6752
 4817TIP3    H238647   0.835   5.323  20.638 -1.0834  1.7913 -0.0446
 4818TIP3   OH238648   0.890   3.887  20.975  0.4775  0.1295  0.1267
 4818TIP3    H138649   0.839   3.842  20.908  0.4257 -1.0395  0.9332
 4818TIP3    H238650   0.979   3.887  20.941  0.3357  0.1522 -0.2531
 4819TIP3   OH238651   0.333   2.202  19.582  0.0212 -0.1949 -0.4222
 4819TIP3    H138652   0.299   2.114  19.594 -1.0183  0.1165 -0.9699
 4819TIP3    H238653   0.257   2.259  19.596  1.0529  0.7649  1.8391
 4820TIP3   OH238654   5.578   3.205  18.750  0.1679 -0.1681  0.2406
 4820TIP3    H138655   5.668   3.235  18.765  0.1375 -0.5302  1.2340
 4820TIP3    H238656   5.528   3.285  18.734  0.7142  0.0099 -0.5871
 4821TIP3   OH238657   2.897   1.614  18.632  0.3819  0.2731  0.0589
 4821TIP3    H138658   2.925   1.630  18.542 -0.1530  0.2011 -0.1258
 4821TIP3    H238659   2.976   1.584  18.677  0.4246 -0.7068 -0.6407
 4822TIP3   OH238660   1.420   4.024  18.741  0.5782 -0.9241 -0.6790
 4822TIP3    H138661   1.486   4.004  18.808  0.2657  1.5342  0.4593
 4822TIP3    H238662   1.439   4.114  18.716 -0.3606 -1.2601 -2.7448
 4823TIP3   OH238663   5.206   1.563  18.959 -0.3706  0.3586 -0.3314
 4823TIP3    H138664   5.302   1.564  18.961 -0.3806  0.7406  0.8316
 4823TIP3    H238665   5.183   1.472  18.974 -0.1802  0.6099  1.8286
 4824TIP3   OH238666   4.073   4.422  20.396  0.2639 -0.2113  0.0267
 4824TIP3    H138667   4.002   4.396  20.455 -0.6705  2.9355  0.4345
 4824TIP3    H238668   4.151   4.425  20.452  0.1480 -0.8092  0.2341
 4825TIP3   OH238669   4.583   6.116  19.534  0.3443 -0.1294  0.0038
 4825TIP3    H138670   4.535   6.047  19.579 -0.3454 -0.5581 -1.3288
 4825TIP3    H238671   4.643   6.151  19.600 -2.3342  0.9925  2.0159
 4826TIP3   OH238672   4.348   0.746  19.265 -0.4367  0.8461 -0.1036
 4826TIP3    H138673   4.357   0.740  19.170  0.9330  0.6863  0.0236
 4826TIP3    H238674   4.382   0.833  19.286  1.2338  0.0948  0.4402
 4827TIP3   OH238675   1.602   3.256  19.905 -0.2939  0.1727 -0.7129
 4827TIP3    H138676   1.577   3.220  19.991  0.9664 -0.1747 -0.4691
 4827TIP3    H238677   1.613   3.349  19.920 -0.8661  0.2352 -0.6846
 4828TIP3   OH238678   3.289   5.662  20.149  0.0204 -0.8506 -0.0938
 4828TIP3    H138679   3.315   5.586  20.098  1.3591 -0.6974  0.3294
 4828TIP3    H238680   3.300   5.737  20.090 -0.7658 -0.9103 -0.3312
 4829TIP3   OH238681   5.566   3.213  20.309 -0.6089 -0.1895 -0.3709
 4829TIP3    H138682   5.643   3.270  20.316 -0.7411  0.0556 -0.8165
 4829TIP3    H238683   5.554   3.178  20.396  0.4173 -0.7608 -0.4424
 4830TIP3   OH238684   0.510   3.097  19.452 -0.1698 -0.0283  0.0168
 4830TIP3    H138685   0.445   3.027  19.444  0.5709 -0.9728  1.8928
 4830TIP3    H238686   0.589   3.054  19.483  0.1676  1.6644  1.7234
 4831TIP3   OH238687   3.821   5.725  20.120  0.2262 -0.0334 -0.0038
 4831TIP3    H138688   3.817   5.756  20.211  2.3590  0.5598 -0.0506
 4831TIP3    H238689   3.743   5.761  20.079 -0.5519  0.0454  1.4954
 4832TIP3   OH238690   0.872   4.093  20.529  0.3735 -0.3937 -0.1631
 4832TIP3    H138691   0.911   4.081  20.615 -1.9516 -2.3811  0.7336
 4832TIP3    H238692   0.927   4.042  20.470  1.6309  0.4892  0.2086
 4833TIP3   OH238693   1.925   3.320  18.931  0.5021 -0.1586  0.3505
 4833TIP3    H138694   1.842   3.284  18.963 -0.0890  0.6848 -0.2244
 4833TIP3    H238695   1.904   3.408  18.901  1.5898  0.0321  0.1064
 4834TIP3   OH238696   1.792   4.592  18.622  0.0302 -0.3125 -0.1435
 4834TIP3    H138697   1.700   4.584  18.600 -0.6184  1.2830  1.6622
 4834TIP3    H238698   1.795   4.576  18.717  1.6371 -0.5958 -0.2171
 4835TIP3   OH238699   5.737   0.103  20.363 -0.1147 -0.3009 -0.4635
 4835TIP3    H138700   5.727   0.197  20.369 -0.7821 -0.4546  2.2137
 4835TIP3    H238701   5.803   0.090  20.295  0.2687  2.0952 -0.6303
 4836TIP3   OH238702   5.930   3.218  18.805 -0.3067  0.0005  0.0251
 4836TIP3    H138703   6.018   3.253  18.815 -0.3282 -0.2327  1.2163
 4836TIP3    H238704   5.917   3.212  18.711  1.1046 -0.3382 -0.1710
 4837TIP3   OH238705   4.174   5.220  20.791 -0.3550  0.0179  0.0069
 4837TIP3    H138706   4.174   5.306  20.833  1.5764 -0.3901  0.9795
 4837TIP3    H238707   4.150   5.159  20.861 -0.4964 -0.3576 -0.3623
 4838TIP3   OH238708   2.972   5.754  19.947 -0.2425 -0.6132  0.6439
 4838TIP3    H138709   3.052   5.805  19.959  0.8928 -1.7244 -1.4965
 4838TIP3    H238710   3.003   5.665  19.930 -2.0169 -1.3348  0.9980
 4839TIP3   OH238711   5.409   1.618  18.295 -0.2779  0.1987 -0.0946
 4839TIP3    H138712   5.359   1.538  18.309  0.9590 -0.2295  2.3908
 4839TIP3    H238713   5.494   1.587  18.262  0.1304  0.4899  0.6689
 4840TIP3   OH238714   3.717   6.420  21.059  0.1498  0.1679 -0.2561
 4840TIP3    H138715   3.702   6.473  20.981  0.3348  0.0417 -0.3792
 4840TIP3    H238716   3.664   6.342  21.046 -0.4553  0.5089  0.1189
 4841TIP3   OH238717   3.626   0.025  18.652  0.2323  0.2146 -0.0188
 4841TIP3    H138718   3.557   0.016  18.587 -0.3695 -2.0073  0.8427
 4841TIP3    H238719   3.704  -0.009  18.609  0.2485  0.4310 -0.1650
 4842TIP3   OH238720   6.596   4.713  19.345  0.1676 -0.1527 -0.3828
 4842TIP3    H138721   6.620   4.765  19.421  0.5600  1.0434 -1.2798
 4842TIP3    H238722   6.560   4.632  19.381  1.4729 -0.1483  1.0485
 4843TIP3   OH238723   6.141   5.218  20.659  0.0473 -0.2661  0.3654
 4843TIP3    H138724   6.176   5.307  20.665 -0.9941  0.2401 -0.7881
 4843TIP3    H238725   6.049   5.230  20.638  0.0838 -1.6283 -0.6876
 4844TIP3   OH238726   2.525   2.145  18.792  0.1444 -0.8593 -0.0015
 4844TIP3    H138727   2.570   2.189  18.720 -2.5366 -0.2553 -1.4575
 4844TIP3    H238728   2.575   2.064  18.807  1.2137 -0.6169 -2.0104
 4845TIP3   OH238729   4.473   1.867  19.205 -0.9235 -0.5370  0.0442
 4845TIP3    H138730   4.557   1.903  19.232  0.0463 -1.7112 -1.2812
 4845TIP3    H238731   4.408   1.920  19.251  0.5325  0.2805  1.2276
 4846TIP3   OH238732   2.059   1.570  18.914  0.2381 -0.5628  0.2930
 4846TIP3    H138733   2.053   1.618  18.997  0.7537 -0.2468  0.1552
 4846TIP3    H238734   1.984   1.600  18.863  1.4135  1.3474 -0.4249
 4847TIP3   OH238735   2.540   5.948  19.527  0.1641  0.6163  0.3411
 4847TIP3    H138736   2.630   5.928  19.502  0.1512  2.2724 -1.1974
 4847TIP3    H238737   2.542   5.955  19.622  1.8056  1.2945  0.2715
 4848TIP3   OH238738   5.053   0.975  19.101 -0.1948 -0.3027  0.2001
 4848TIP3    H138739   5.005   1.051  19.132  0.5435 -0.3897  1.6292
 4848TIP3    H238740   5.006   0.900  19.137 -1.4649 -0.6246 -1.9548
 4849TIP3   OH238741   3.673   4.865  19.719 -0.0848  0.1950  0.3037
 4849TIP3    H138742   3.605   4.894  19.779 -0.8306 -1.7088  0.4700
 4849TIP3    H238743   3.742   4.830  19.776 -0.1724 -0.3234  0.1015
 4850TIP3   OH238744   4.661   1.657  19.637  0.0363  0.4627 -0.0194
 4850TIP3    H138745   4.746   1.634  19.674  0.2626  1.1957 -0.0792
 4850TIP3    H238746   4.678   1.668  19.543 -0.3125 -0.2855 -0.1831
 4851TIP3   OH238747   0.389   0.036  18.714 -0.0127 -0.5695 -0.3682
 4851TIP3    H138748   0.426   0.044  18.626  0.3188 -1.1181 -0.2789
 4851TIP3    H238749   0.317  -0.026  18.704 -0.5365  0.0258 -0.4184
 4852TIP3   OH238750   0.572   4.266  18.658 -0.3975 -0.4972  0.2254
 4852TIP3    H138751   0.641   4.203  18.641 -1.4671 -1.5256 -0.4827
 4852TIP3    H238752   0.492   4.213  18.666 -1.2379  0.7132  0.1831
 4853TIP3   OH238753   5.051   0.960  20.959  0.6876  0.2180 -0.2843
 4853TIP3    H138754   5.099   1.000  20.887 -0.8259  0.3512 -1.2570
 4853TIP3    H238755   5.080   0.868  20.959  0.1792  0.0473 -1.5358
 4854TIP3   OH238756   0.810   4.345  18.843  0.4785 -0.3105  0.2116
 4854TIP3    H138757   0.796   4.338  18.937  1.6139  1.3291  0.5409
 4854TIP3    H238758   0.722   4.339  18.805 -0.0553 -0.3888  1.4073
 4855TIP3   OH238759   3.299   1.782  18.088 -0.0733 -0.0254 -0.1586
 4855TIP3    H138760   3.300   1.838  18.010 -1.0584  0.7007  0.3321
 4855TIP3    H238761   3.376   1.811  18.138 -0.7545  1.1543  0.2499
 4856TIP3   OH238762   5.119   4.473  19.399  0.4417 -0.3000 -0.2227
 4856TIP3    H138763   5.193   4.414  19.388 -0.3068 -1.3016 -0.0231
 4856TIP3    H238764   5.066   4.434  19.469  0.2423  0.9395  0.3475
 4857TIP3   OH238765   4.959   4.364  19.137  0.1774 -0.1351 -0.3681
 4857TIP3    H138766   4.969   4.407  19.052  3.5086  0.2071  0.0435
 4857TIP3    H238767   5.047   4.332  19.158 -0.7045 -0.9982  2.5709
 4858TIP3   OH238768   1.142   4.920  20.475 -0.4942  0.2265  0.3862
 4858TIP3    H138769   1.060   4.949  20.515 -1.2262 -0.7591 -0.3712
 4858TIP3    H238770   1.201   4.995  20.486 -1.7073  1.2319  0.3051
 4859TIP3   OH238771   0.764   0.603  19.559  0.8698 -0.0472 -0.3008
 4859TIP3    H138772   0.755   0.692  19.527  0.6393  0.0933  0.1466
 4859TIP3    H238773   0.853   0.598  19.594 -0.1274  1.0459  2.7375
 4860TIP3   OH238774   2.683   3.794  17.811 -0.1064  0.0402 -0.0954
 4860TIP3    H138775   2.605   3.761  17.855 -0.3212 -0.0455 -0.5285
 4860TIP3    H238776   2.668   3.888  17.803  0.3969  0.2144  0.9253
 4861TIP3   OH238777   0.997   5.379  20.678 -0.7207 -0.4202  0.0888
 4861TIP3    H138778   1.078   5.424  20.654 -0.1071  0.0893  2.7945
 4861TIP3    H238779   1.014   5.343  20.765 -1.5863 -5.0519 -1.3980
 4862TIP3   OH238780   5.789   4.305  18.943  0.0961 -0.6992 -0.3595
 4862TIP3    H138781   5.757   4.310  18.853 -0.5684  0.4188 -0.0726
 4862TIP3    H238782   5.718   4.262  18.991 -0.4385  0.5750  0.0186
 4863TIP3   OH238783   5.865   5.578  21.133  0.1691 -0.4378  0.2316
 4863TIP3    H138784   5.878   5.526  21.212  1.3063  1.0499  1.0526
 4863TIP3    H238785   5.952   5.589  21.096 -0.1845  0.0362 -0.4938
 4864TIP3   OH238786   0.454   3.969  18.717  0.6200  0.1355  0.3767
 4864TIP3    H138787   0.398   4.040  18.683  1.0313  0.4005  0.2441
 4864TIP3    H238788   0.440   3.972  18.812  0.1900  0.0115  0.3214
 4865TIP3   OH238789   5.338   2.986  20.878 -0.0459  0.4935 -0.1170
 4865TIP3    H138790   5.424   2.949  20.860 -0.8260 -0.9452 -1.0571
 4865TIP3    H238791   5.308   2.941  20.957 -0.7214 -0.4466 -0.8889
 4866TIP3   OH238792   5.017   0.319  19.191 -0.0748  0.5601 -0.0079
 4866TIP3    H138793   4.959   0.273  19.252 -0.4029 -0.3325 -0.9761
 4866TIP3    H238794   4.974   0.313  19.106  1.0219  0.6194 -0.5919
 4867TIP3   OH238795   0.445   2.114  18.418  0.0135  0.2125 -0.1206
 4867TIP3    H138796   0.438   2.165  18.337  0.3504 -1.0511 -0.9833
 4867TIP3    H238797   0.392   2.162  18.481  0.0812  1.4557 -0.9752
 4868TIP3   OH238798   3.769   2.217  16.789  0.5858  0.1518 -0.2403
 4868TIP3    H138799   3.835   2.164  16.745 -1.0129 -0.5638 -1.8815
 4868TIP3    H238800   3.747   2.168  16.868 -0.2015 -1.2333 -1.2738
 4869TIP3   OH238801   5.208   4.591  19.980  0.1555 -0.3031  0.3618
 4869TIP3    H138802   5.214   4.665  20.040 -1.0562  0.2274 -0.1485
 4869TIP3    H238803   5.297   4.580  19.947  0.0576  2.0566 -0.8778
 4870TIP3   OH238804   1.535   2.570  20.856 -0.0194  0.4816  0.2423
 4870TIP3    H138805   1.530   2.651  20.906 -3.2915  0.9565 -0.6139
 4870TIP3    H238806   1.501   2.592  20.769 -0.9766 -1.7319 -0.0368
 4871TIP3   OH238807   6.591   1.691  19.641  0.5640 -0.2519 -0.4485
 4871TIP3    H138808   6.514   1.660  19.593  0.6838 -0.6910 -0.3616
 4871TIP3    H238809   6.579   1.785  19.647  1.7654  0.2550 -3.6170
 4872TIP3   OH238810   6.465   1.855  18.010  0.0365 -0.9131  0.5700
 4872TIP3    H138811   6.418   1.771  18.013  0.2500 -1.1272 -1.2786
 4872TIP3    H238812   6.551   1.833  17.974  0.7773 -0.1662  1.8203
 4873TIP3   OH238813   5.210   6.439  18.662  0.0853  0.6450 -0.1190
 4873TIP3    H138814   5.134   6.485  18.627 -0.6188 -0.8849 -0.6916
 4873TIP3    H238815   5.240   6.385  18.589  1.2032  0.5845  0.3735
 4874TIP3   OH238816   5.047   4.794  18.537  0.4718 -0.2278 -0.4411
 4874TIP3    H138817   5.137   4.826  18.544  0.4590  0.1427 -1.6608
 4874TIP3    H238818   5.053   4.701  18.558  1.0380 -0.0814  0.0868
 4875TIP3   OH238819   1.474   5.791  20.219 -0.5173 -0.1541  0.2962
 4875TIP3    H138820   1.494   5.726  20.287  0.7133 -1.3504 -1.1428
 4875TIP3    H238821   1.557   5.805  20.174 -1.3320  0.4762 -1.0692
 4876TIP3   OH238822   6.431   5.072  19.955  0.1977 -0.0674  0.3893
 4876TIP3    H138823   6.431   5.093  20.048 -0.5204  1.5573  0.0734
 4876TIP3    H238824   6.369   5.000  19.947 -1.3115  1.0981  0.9639
 4877TIP3   OH238825   4.253   4.945  20.182  0.1455  0.6620 -0.5783
 4877TIP3    H138826   4.180   4.890  20.155  1.1562 -0.6860 -0.6791
 4877TIP3    H238827   4.212   5.026  20.212 -1.5465 -0.7162  1.1124
 4878TIP3   OH238828   3.271   3.158  19.296  0.0776  0.0762 -0.6850
 4878TIP3    H138829   3.201   3.210  19.256  0.5987  0.4791 -1.0850
 4878TIP3    H238830   3.225   3.091  19.346 -0.6013  0.7449 -0.3952
 4879TIP3   OH238831   5.956   4.237  20.136 -0.6219 -0.4175  0.3676
 4879TIP3    H138832   5.886   4.215  20.197  0.4207  0.0864  1.8176
 4879TIP3    H238833   5.996   4.153  20.113 -0.2689 -0.5300  1.3538
 4880TIP3   OH238834   4.289   2.191  18.413 -0.0570  0.0897 -0.8852
 4880TIP3    H138835   4.375   2.172  18.375  1.2965  1.6114  1.1793
 4880TIP3    H238836   4.305   2.193  18.507 -2.2614  1.0100 -0.4705
 4881TIP3   OH238837   0.109   4.101  20.337 -0.6061  0.2643  0.3802
 4881TIP3    H138838   0.020   4.134  20.328  0.3205  2.7134 -0.8685
 4881TIP3    H238839   0.140   4.088  20.247  0.5199  0.1214  0.7615
 4882TIP3   OH238840   2.994   0.337  19.593  0.0908 -0.0959  0.5150
 4882TIP3    H138841   2.986   0.247  19.559  1.0931 -0.1496  0.3757
 4882TIP3    H238842   2.924   0.386  19.549 -1.7063 -1.1916  2.0017
 4883TIP3   OH238843   6.500   3.720  18.766 -0.0426 -0.5128  0.3861
 4883TIP3    H138844   6.559   3.782  18.809  0.5787 -0.9552  0.1851
 4883TIP3    H238845   6.413   3.747  18.793  0.3264 -0.7964  1.9584
 4884TIP3   OH238846   1.438   5.792  21.222  0.6504 -0.3343 -0.2486
 4884TIP3    H138847   1.460   5.877  21.258 -0.3043 -0.8759  1.7250
 4884TIP3    H238848   1.343   5.797  21.204  0.6417 -0.8932 -0.3863
 4885TIP3   OH238849   3.311   1.462  18.519 -0.3848 -0.5991  0.1062
 4885TIP3    H138850   3.406   1.459  18.512 -0.3352  1.8570 -1.3771
 4885TIP3    H238851   3.282   1.497  18.434 -2.4061  1.1274  1.4076
 4886TIP3   OH238852   5.703   4.154  20.999  0.2977 -0.1831  0.1281
 4886TIP3    H138853   5.716   4.246  21.021  3.6448 -0.6142  0.5114
 4886TIP3    H238854   5.777   4.133  20.941 -2.0467 -1.9135 -2.4870
 4887TIP3   OH238855   2.956   6.383  20.367 -0.0154 -0.0471  0.2005
 4887TIP3    H138856   2.894   6.313  20.386 -3.1019  2.0281 -1.3434
 4887TIP3    H238857   2.950   6.442  20.442 -1.3096  1.0067 -0.6872
 4888TIP3   OH238858   5.531   4.419  18.498  0.6110  0.5843 -0.1865
 4888TIP3    H138859   5.597   4.433  18.566  0.5895 -0.1047 -0.0081
 4888TIP3    H238860   5.447   4.439  18.541  0.7753  3.0595 -0.8715
 4889TIP3   OH238861   3.269   0.107  18.665  0.0435 -0.1539  0.3177
 4889TIP3    H138862   3.328   0.062  18.605 -0.0153  1.3035 -0.8866
 4889TIP3    H238863   3.187   0.057  18.660 -0.3396  0.5910 -1.7489
 4890TIP3   OH238864   5.188   5.167  21.297 -0.0325 -0.4208 -0.0984
 4890TIP3    H138865   5.103   5.197  21.329  0.6116  0.9151  0.4681
 4890TIP3    H238866   5.232   5.247  21.267  1.0739 -1.0563 -0.2426
 4891TIP3   OH238867   1.091   2.601  19.128 -0.0536 -0.9020 -0.4335
 4891TIP3    H138868   1.054   2.671  19.181 -1.8983 -1.1448 -1.3198
 4891TIP3    H238869   1.169   2.639  19.088  0.1331 -0.0421  0.7121
 4892TIP3   OH238870   4.434   1.905  17.532  0.0002  0.2493 -0.3799
 4892TIP3    H138871   4.446   1.999  17.541 -1.7106  0.4453  0.2345
 4892TIP3    H238872   4.464   1.885  17.443 -0.0130  1.4501 -0.6645
 4893TIP3   OH238873   1.193   2.995  19.361  0.2314 -0.1811 -0.1829
 4893TIP3    H138874   1.225   3.008  19.271  0.6392 -0.2993 -0.0573
 4893TIP3    H238875   1.269   2.962  19.409  0.6041  1.7590  0.6761
 4894TIP3   OH238876   1.848   6.472  21.626 -0.8921  0.4776  0.1612
 4894TIP3    H138877   1.870   6.440  21.538 -0.6577  1.7350 -0.2538
 4894TIP3    H238878   1.758   6.503  21.619 -0.7704  0.8674  0.2705
 4895TIP3   OH238879   0.250   4.957  18.919 -0.1048 -0.7547 -0.5416
 4895TIP3    H138880   0.273   4.865  18.928  0.6065 -0.4518  0.9574
 4895TIP3    H238881   0.239   4.989  19.008 -0.5873  0.5631 -1.0407
 4896TIP3   OH238882   1.458   4.062  19.531  0.0377  0.2504  0.3616
 4896TIP3    H138883   1.413   4.026  19.608  1.5319  0.6247  1.4371
 4896TIP3    H238884   1.532   4.003  19.517 -0.2166  0.1864 -0.8245
 4897TIP3   OH238885   3.689   4.405  21.357 -0.0238 -0.1001  0.4975
 4897TIP3    H138886   3.635   4.477  21.325 -0.5586 -0.6393  0.1771
 4897TIP3    H238887   3.737   4.374  21.280 -1.6600 -1.6993  0.0657
 4898TIP3   OH238888   5.920   0.539  18.523  0.1894  0.1713  0.0124
 4898TIP3    H138889   5.888   0.449  18.519  0.1968  0.2131 -1.9678
 4898TIP3    H238890   5.841   0.592  18.532  0.2493 -0.0495  2.1530
 4899TIP3   OH238891   5.865   3.600  20.490 -0.3872 -0.3795 -0.0173
 4899TIP3    H138892   5.843   3.693  20.496 -3.6471 -1.0922  1.1451
 4899TIP3    H238893   5.884   3.585  20.397 -0.7166  1.2829 -0.3730
 4900TIP3   OH238894   4.847   1.377  18.052 -0.0076  0.7950 -0.1992
 4900TIP3    H138895   4.939   1.395  18.029  0.0363 -0.1221 -0.8185
 4900TIP3    H238896   4.849   1.287  18.086 -0.8546  0.3155 -1.3816
 4901TIP3   OH238897   4.529   3.581  18.914  0.1840 -0.0308  0.3265
 4901TIP3    H138898   4.492   3.530  18.843 -1.1782  1.7009 -0.2703
 4901TIP3    H238899   4.559   3.662  18.873 -1.0312  1.2054  1.7342
 4902TIP3   OH238900   2.902   4.135  18.194  0.1132 -0.4604 -0.5032
 4902TIP3    H138901   2.899   4.107  18.102 -0.6199  0.0235 -0.6302
 4902TIP3    H238902   2.824   4.189  18.205  0.2621 -0.4223  0.3784
 4903TIP3   OH238903   4.311   4.733  19.140  0.4118  0.2656 -0.3034
 4903TIP3    H138904   4.359   4.650  19.139 -0.6800 -0.3805 -1.2820
 4903TIP3    H238905   4.227   4.712  19.100  0.5316  2.1030 -1.6288
 4904TIP3   OH238906   3.908   3.400  18.661 -0.1493  0.4212 -0.0033
 4904TIP3    H138907   3.961   3.453  18.600  0.4773  0.0096  0.1679
 4904TIP3    H238908   3.882   3.323  18.609  0.8921 -0.2276  0.3991
 4905TIP3   OH238909   4.939   0.667  20.022  0.2942  0.5071 -0.2981
 4905TIP3    H138910   4.953   0.728  20.094  0.3438 -0.0739  0.1932
 4905TIP3    H238911   4.848   0.683  19.994  0.0488  0.2753  0.3406
 4906TIP3   OH238912   3.257   1.087  19.474  0.2926  0.0455 -0.1836
 4906TIP3    H138913   3.312   1.162  19.451  0.2878  0.3912  0.8963
 4906TIP3    H238914   3.273   1.024  19.404  1.3691  0.4984 -0.3654
 4907TIP3   OH238915   6.516   4.172  19.987  0.0517  0.2731 -0.1347
 4907TIP3    H138916   6.540   4.131  20.069 -0.4846 -0.1502 -0.1847
 4907TIP3    H238917   6.439   4.226  20.008  0.4280  0.8348 -0.1796
 4908TIP3   OH238918   5.349   6.285  19.804 -0.2375 -0.1703 -0.0050
 4908TIP3    H138919   5.379   6.285  19.894  0.6744  2.2138 -0.2354
 4908TIP3    H238920   5.392   6.361  19.764 -0.6345 -1.1342 -2.4400
 4909TIP3   OH238921   1.189   2.773  20.779 -0.5526 -0.5907  0.1267
 4909TIP3    H138922   1.120   2.839  20.786 -0.5784 -0.5556 -0.4220
 4909TIP3    H238923   1.207   2.748  20.869  0.2324  0.9589  0.4176
 4910TIP3   OH238924   2.326   3.596  20.613  0.0115 -0.1083 -0.2015
 4910TIP3    H138925   2.338   3.675  20.561  2.1158  0.4212  0.9879
 4910TIP3    H238926   2.236   3.603  20.646 -0.1652  1.2897 -0.8884
 4911TIP3   OH238927   5.760   0.322  21.084  0.0595  0.2456 -0.1444
 4911TIP3    H138928   5.698   0.299  21.153  0.9436 -1.4465  0.1305
 4911TIP3    H238929   5.711   0.316  21.003  0.0279 -1.9105 -0.0109
 4912TIP3   OH238930   0.684   4.570  19.985  0.1272 -0.2732 -0.4194
 4912TIP3    H138931   0.752   4.621  20.029 -0.4844  2.5377 -2.4621
 4912TIP3    H238932   0.605   4.584  20.038  0.0388  0.7115 -0.7869
 4913TIP3   OH238933   0.993   0.506  20.293  0.2937 -0.1001 -0.0479
 4913TIP3    H138934   1.019   0.584  20.343  0.6748 -0.8600  0.9759
 4913TIP3    H238935   1.074   0.455  20.287 -0.1973 -0.9319  0.2653
 4914TIP3   OH238936   6.471   1.525  19.461  0.6010 -0.6872 -0.4097
 4914TIP3    H138937   6.444   1.471  19.536 -1.6572  0.9407  0.0452
 4914TIP3    H238938   6.474   1.463  19.388 -0.8514 -1.6786  0.3051
 4915TIP3   OH238939   4.343   6.454  18.876 -0.1414 -0.7396  0.2150
 4915TIP3    H138940   4.278   6.516  18.845  0.5505  0.2068  0.6066
 4915TIP3    H238941   4.296   6.400  18.941 -0.7222 -0.5766 -0.0647
 4916TIP3   OH238942   4.935   5.289  21.100 -0.0120  0.6475 -0.8040
 4916TIP3    H138943   4.902   5.270  21.188 -1.6219 -0.7955 -1.6611
 4916TIP3    H238944   5.030   5.297  21.112 -0.2913  1.7825  1.2481
 4917TIP3   OH238945   3.143   5.339  20.685 -0.0790 -0.1653  0.0252
 4917TIP3    H138946   3.177   5.306  20.601 -1.3185 -1.4351 -0.0072
 4917TIP3    H238947   3.156   5.434  20.680  0.5282 -0.2930 -1.2977
 4918TIP3   OH238948   0.087   0.505  19.284 -0.2474  0.1490 -0.2625
 4918TIP3    H138949   0.121   0.585  19.242 -0.6002  0.4401 -0.0042
 4918TIP3    H238950   0.029   0.466  19.218 -1.2549  0.9101  0.1329
 4919TIP3   OH238951   0.141   0.852  18.805  0.2991 -0.2536 -0.3901
 4919TIP3    H138952   0.061   0.829  18.757 -1.5819  0.3160  2.2358
 4919TIP3    H238953   0.148   0.947  18.797  0.0702 -0.1749  0.2957
 4920TIP3   OH238954   1.991   3.644  21.103  0.2162  0.4947 -0.1004
 4920TIP3    H138955   1.916   3.691  21.140  0.2967 -0.0149  0.7185
 4920TIP3    H238956   1.951   3.574  21.051  0.1172  0.4088  0.0896
 4921TIP3   OH238957   5.105   6.183  19.996  0.5376  0.2508 -0.1150
 4921TIP3    H138958   5.135   6.273  20.010 -0.5812  0.5993  0.2017
 4921TIP3    H238959   5.031   6.191  19.936 -0.9518 -0.1873  1.5618
 4922TIP3   OH238960   2.532   4.322  19.231  0.6001  0.0046  0.2218
 4922TIP3    H138961   2.625   4.329  19.252  0.2327  1.1852  1.6175
 4922TIP3    H238962   2.523   4.237  19.189  2.1815 -0.4843  0.8056
 4923TIP3   OH238963   5.822   1.861  21.021  0.3162  0.8001  0.2513
 4923TIP3    H138964   5.769   1.782  21.029  0.4154  0.8358  1.4688
 4923TIP3    H238965   5.842   1.868  20.928 -1.3422  0.4892 -0.1423
 4924TIP3   OH238966   0.069   6.371  19.937 -0.0612  0.4826 -0.2376
 4924TIP3    H138967   0.016   6.319  19.997 -2.6472  2.2339 -0.8098
 4924TIP3    H238968   0.095   6.448  19.988 -0.6077  1.0350 -0.7741
 4925TIP3   OH238969   3.280   2.650  21.130  0.0980 -0.2352 -0.3583
 4925TIP3    H138970   3.249   2.624  21.044 -3.6352 -0.1407  0.7887
 4925TIP3    H238971   3.298   2.744  21.122 -1.0198 -0.0500 -0.8644
 4926TIP3   OH238972   4.274   5.758  19.467  0.4913 -0.4360 -0.5391
 4926TIP3    H138973   4.288   5.676  19.419  0.4723 -1.8784  1.7790
 4926TIP3    H238974   4.265   5.731  19.558  1.3125  2.2545  0.4204
 4927TIP3   OH238975   6.147   4.836  19.087  0.8682  0.3548 -0.4207
 4927TIP3    H138976   6.222   4.779  19.105  1.2703  1.2682  1.0296
 4927TIP3    H238977   6.138   4.888  19.167 -2.4831 -0.9906  0.2269
 4928TIP3   OH238978   1.107   0.699  21.368  0.4583 -0.4796 -0.6061
 4928TIP3    H138979   1.133   0.654  21.287  0.8714  0.5224 -1.0489
 4928TIP3    H238980   1.182   0.687  21.427  0.6738 -0.1631 -0.8137
 4929TIP3   OH238981   6.378   5.123  21.208 -0.3479  0.0250  0.8008
 4929TIP3    H138982   6.317   5.165  21.147 -1.2264  0.3367  1.8585
 4929TIP3    H238983   6.377   5.031  21.183  0.9667  0.4642 -1.0165
 4930TIP3   OH238984   4.087   2.788  19.284 -0.4635  0.1347  0.2322
 4930TIP3    H138985   4.145   2.713  19.301  2.2390  1.6177 -1.6048
 4930TIP3    H238986   4.129   2.861  19.330 -0.3834  1.4094 -1.7477
 4931TIP3   OH238987   0.357   3.945  19.578 -0.6519 -0.3714  0.2674
 4931TIP3    H138988   0.415   3.987  19.642 -0.2520 -2.0268  1.0603
 4931TIP3    H238989   0.314   3.874  19.628 -0.9582 -1.1779 -1.0903
 4932TIP3   OH238990   2.985   1.610  17.917  0.0403 -0.1928 -0.1651
 4932TIP3    H138991   2.993   1.673  17.988 -0.8880  0.3026 -0.4851
 4932TIP3    H238992   3.040   1.646  17.847 -2.6124  1.8571 -1.4151
 4933TIP3   OH238993   1.705   5.283  18.973 -0.1821 -0.1513  0.1483
 4933TIP3    H138994   1.742   5.230  18.903 -2.6126 -0.4700 -0.9883
 4933TIP3    H238995   1.641   5.339  18.930 -2.4186 -0.9708  2.1507
 4934TIP3   OH238996   2.591   3.309  19.801  0.2301 -0.1610  0.2822
 4934TIP3    H138997   2.599   3.213  19.809 -1.8906 -0.4283 -0.3007
 4934TIP3    H238998   2.636   3.330  19.719  1.6787 -0.4638  0.9519
 4935TIP3   OH238999   1.502   4.492  19.333 -0.1438 -1.0309 -0.0953
 4935TIP3    H139000   1.418   4.460  19.299 -0.5485 -0.0985 -0.0225
 4935TIP3    H239001   1.529   4.426  19.396 -1.8163 -0.4338  1.3430
 4936TIP3   OH239002   3.058   3.935  18.823 -0.0699 -0.1420  0.1893
 4936TIP3    H139003   3.092   3.907  18.738 -0.3936  0.2179 -0.0660
 4936TIP3    H239004   2.969   3.967  18.804 -0.2378 -0.2864  0.7033
 4937TIP3   OH239005   3.024   4.545  20.362  0.6215  0.1245  0.5605
 4937TIP3    H139006   3.113   4.566  20.390 -0.1524  2.1545  1.7386
 4937TIP3    H239007   3.010   4.597  20.283 -0.0122  1.0167  1.2489
 4938TIP3   OH239008   3.896   2.563  20.664  0.0695  0.6690  0.1666
 4938TIP3    H139009   3.851   2.486  20.700 -0.2725  1.6505  1.9211
 4938TIP3    H239010   3.977   2.569  20.714  1.6551 -0.3015 -2.0787
 4939TIP3   OH239011   2.738   2.930  18.961  0.0941  0.1565 -0.3256
 4939TIP3    H139012   2.713   2.962  18.875  1.5395 -1.1704 -1.2912
 4939TIP3    H239013   2.746   2.835  18.950  3.5464  0.2400  0.3234
 4940TIP3   OH239014   1.848   6.307  18.705  0.3858 -0.0007 -0.1791
 4940TIP3    H139015   1.863   6.382  18.647  0.2032 -0.7024 -1.1597
 4940TIP3    H239016   1.927   6.254  18.696 -0.8643 -1.6976 -2.2829
 4941TIP3   OH239017   0.772   1.449  21.291 -0.2749 -0.3704  0.4388
 4941TIP3    H139018   0.861   1.479  21.272 -0.5016  0.3233  0.4530
 4941TIP3    H239019   0.723   1.529  21.309 -0.9698 -0.7288  0.1584
 4942TIP3   OH239020   5.878   5.500  19.742  0.0599 -0.0624  0.9231
 4942TIP3    H139021   5.817   5.510  19.670 -0.5771 -0.9416  1.3258
 4942TIP3    H239022   5.834   5.442  19.804  0.9580 -0.0476  1.6099
 4943TIP3   OH239023   1.866   1.760  20.634  0.0124 -0.7557 -0.0041
 4943TIP3    H139024   1.921   1.729  20.706  0.7230 -1.4625 -0.8411
 4943TIP3    H239025   1.784   1.784  20.677  0.9054  0.2355  1.2562
 4944TIP3   OH239026   2.025   1.481  18.133 -0.4084  0.3895  0.4796
 4944TIP3    H139027   2.000   1.396  18.170 -0.5867  0.4759  0.5599
 4944TIP3    H239028   2.032   1.539  18.210  2.7102 -0.2662  0.8060
 4945TIP3   OH239029   1.255   2.468  21.508  0.1914 -0.1688 -0.3628
 4945TIP3    H139030   1.197   2.498  21.579  1.3014  1.0634  0.0704
 4945TIP3    H239031   1.249   2.373  21.511  1.0589 -0.2316  2.1793
 4946TIP3   OH239032   0.985   1.981  19.939  0.1574  0.2489 -0.3462
 4946TIP3    H139033   0.920   1.928  19.984  0.9287 -0.5999 -0.2091
 4946TIP3    H239034   0.934   2.042  19.886 -0.7408 -0.2800 -0.0983
 4947TIP3   OH239035   5.653   5.677  20.994 -0.5057  0.1810  0.0847
 4947TIP3    H139036   5.712   5.616  21.039 -1.1299 -0.3086  0.2515
 4947TIP3    H239037   5.652   5.755  21.050  1.0332  0.7318 -0.6101
 4948TIP3   OH239038   2.656   5.900  19.211 -0.0909 -0.1575 -0.1737
 4948TIP3    H139039   2.655   5.995  19.208  0.7844 -0.0490  1.6575
 4948TIP3    H239040   2.748   5.877  19.226 -0.4242 -1.2139  0.4007
 4949TIP3   OH239041   2.120   5.964  20.427 -0.4111 -0.4299  0.2313
 4949TIP3    H139042   2.142   6.057  20.426 -0.0229 -0.5233 -0.6538
 4949TIP3    H239043   2.047   5.957  20.489  0.1711  0.3187  1.0085
 4950TIP3   OH239044   5.499   1.288  20.291 -0.1535 -0.2692  0.7650
 4950TIP3    H139045   5.549   1.299  20.372 -0.1878 -0.4053  0.8045
 4950TIP3    H239046   5.418   1.244  20.319 -1.1974  1.7074  1.0220
 4951TIP3   OH239047   5.442   4.074  21.131 -0.5304 -0.3543  0.4862
 4951TIP3    H139048   5.381   4.142  21.161 -0.9942 -0.4970 -0.1096
 4951TIP3    H239049   5.522   4.122  21.109 -1.0718  0.0981 -0.5539
 4952TIP3   OH239050   5.800   3.540  21.292 -0.1048 -0.0887 -0.2560
 4952TIP3    H139051   5.804   3.595  21.214 -1.8538  0.3984 -0.0446
 4952TIP3    H239052   5.707   3.537  21.315  0.3161 -0.5508  1.5778
 4953TIP3   OH239053   4.126   4.693  18.410 -0.1811  0.2264 -0.3799
 4953TIP3    H139054   4.154   4.616  18.460 -1.9281 -0.2831 -0.1407
 4953TIP3    H239055   4.175   4.765  18.450 -0.0820 -0.4590  0.7989
 4954TIP3   OH239056   6.114   0.757  20.497  0.3194  0.5138  0.5867
 4954TIP3    H139057   6.127   0.840  20.451 -0.7063  0.6024  0.4164
 4954TIP3    H239058   6.202   0.729  20.522  0.9117  0.5208 -1.3205
 4955TIP3   OH239059   4.236   5.816  17.995  0.1456 -0.5602 -0.3987
 4955TIP3    H139060   4.151   5.862  17.989  1.0868  1.2349 -0.7579
 4955TIP3    H239061   4.249   5.778  17.909 -0.1156 -0.5307 -0.4538
 4956TIP3   OH239062   5.472   0.555  20.249  0.6721 -0.0619  0.3114
 4956TIP3    H139063   5.398   0.517  20.202  1.0247  1.7911 -1.8868
 4956TIP3    H239064   5.505   0.623  20.191  3.5905 -0.2432  1.5932
 4957TIP3   OH239065   3.375   3.743  18.421  0.1136  0.3346 -0.2617
 4957TIP3    H139066   3.327   3.785  18.350 -0.7653 -1.9873 -1.1240
 4957TIP3    H239067   3.429   3.676  18.379 -1.1706 -1.7935  1.2426
 4958TIP3   OH239068   5.660   1.974  19.467 -0.4736 -0.1350  0.6076
 4958TIP3    H139069   5.579   1.951  19.421 -1.0452  0.5272  1.2704
 4958TIP3    H239070   5.710   2.023  19.402 -0.6344 -0.4682  0.2241
 4959TIP3   OH239071   1.263   4.378  19.249 -0.1369 -0.3211 -0.2968
 4959TIP3    H139072   1.201   4.442  19.285  2.0164  1.9807 -0.3554
 4959TIP3    H239073   1.215   4.335  19.178 -2.2082  0.0226  0.8171
 4960TIP3   OH239074   3.883   4.397  20.993 -0.6022  0.2088  0.1168
 4960TIP3    H139075   3.913   4.432  21.077 -0.2551 -1.7861  0.8877
 4960TIP3    H239076   3.964   4.375  20.947 -0.8163  0.2983 -0.3072
 4961TIP3   OH239077   5.276   2.249  18.786  0.6166  0.0977  0.3448
 4961TIP3    H139078   5.238   2.324  18.740  0.3048 -0.6677 -0.6669
 4961TIP3    H239079   5.319   2.198  18.718 -0.7313 -1.6056  0.6923
 4962TIP3   OH239080   0.638   2.056  21.152  0.1159 -0.7948  0.5124
 4962TIP3    H139081   0.566   1.995  21.131  0.1551 -1.0780  1.1862
 4962TIP3    H239082   0.654   2.103  21.070 -0.1344 -1.4693  0.0695
 4963TIP3   OH239083   4.987   1.809  17.682  0.0114  0.0782  0.1962
 4963TIP3    H139084   5.046   1.827  17.609 -0.2377 -1.6574 -0.4778
 4963TIP3    H239085   4.959   1.896  17.712  0.6683  0.8506 -1.2968
 4964TIP3   OH239086   3.351   6.086  18.954 -0.0653 -0.0567 -0.0551
 4964TIP3    H139087   3.298   6.050  18.883 -0.0685 -0.6339  0.2287
 4964TIP3    H239088   3.298   6.071  19.033 -0.0178  0.4808  0.0808
 4965TIP3   OH239089   4.157   6.322  19.065  0.1737 -0.0477  0.2008
 4965TIP3    H139090   4.112   6.249  19.023 -0.0173 -0.3802  0.9724
 4965TIP3    H239091   4.216   6.281  19.128  1.9668  0.3380 -1.1294
 4966TIP3   OH239092   2.943   2.664  18.549  0.4507  0.2527 -0.6079
 4966TIP3    H139093   2.968   2.753  18.524 -0.0070  0.4776 -0.2927
 4966TIP3    H239094   2.958   2.661  18.643  0.4492  0.0028 -0.6163
 4967TIP3   OH239095   3.287   2.744  20.797 -0.6813 -0.5554  0.2310
 4967TIP3    H139096   3.214   2.724  20.739  0.2848  1.3111 -1.7863
 4967TIP3    H239097   3.257   2.821  20.847 -1.2328 -1.7168  1.7855
 4968TIP3   OH239098   1.870   0.344  18.603  0.3875  0.4521 -0.4005
 4968TIP3    H139099   1.966   0.338  18.597  0.2892  0.0367 -1.8034
 4968TIP3    H239100   1.841   0.365  18.514 -0.7880  1.2898  0.1559
 4969TIP3   OH239101   4.866   5.071  18.859 -0.2232 -0.3504 -0.2042
 4969TIP3    H139102   4.800   5.096  18.924 -0.3212 -0.5965 -0.2055
 4969TIP3    H239103   4.832   5.104  18.776 -0.0314  0.0830 -0.1091
 4970TIP3   OH239104   1.544   1.673  19.732 -0.6557 -0.4401  0.1261
 4970TIP3    H139105   1.472   1.685  19.670 -0.8031 -0.0348  0.3720
 4970TIP3    H239106   1.622   1.699  19.683 -0.7360 -0.4021  0.0165
 4971TIP3   OH239107   2.508   4.782  19.017  0.3497 -0.2980  0.6728
 4971TIP3    H139108   2.492   4.839  18.941  0.5688  0.6199  1.2916
 4971TIP3    H239109   2.544   4.702  18.979  0.8791  0.3118 -0.1611
 4972TIP3   OH239110   2.018   5.796  19.375 -0.0961 -0.3732 -0.2913
 4972TIP3    H139111   2.025   5.891  19.367  0.8880 -0.4671 -0.7366
 4972TIP3    H239112   2.067   5.775  19.455  0.3830 -0.5816 -0.6365
 4973TIP3   OH239113   4.715   2.763  19.400  0.1543 -0.3925 -0.2140
 4973TIP3    H139114   4.681   2.774  19.489  0.2755 -1.1519 -0.0644
 4973TIP3    H239115   4.638   2.737  19.349  0.1029 -0.0434 -0.3196
 4974TIP3   OH239116   1.402   4.608  20.503  0.6476 -0.2288 -0.2077
 4974TIP3    H139117   1.452   4.689  20.492  2.2551 -1.0313  0.9091
 4974TIP3    H239118   1.446   4.561  20.574 -0.6763 -1.7685 -0.3419
 4975TIP3   OH239119   2.427   1.957  18.020  0.3403  0.1083  0.8943
 4975TIP3    H139120   2.368   1.981  17.949  0.2767  0.2262  0.9855
 4975TIP3    H239121   2.450   2.040  18.062 -0.8195 -0.0816  1.9542
 4976TIP3   OH239122   6.484   4.077  18.135  0.3731 -0.3367 -0.0749
 4976TIP3    H139123   6.543   4.078  18.210  0.7865  1.2289 -0.3819
 4976TIP3    H239124   6.521   4.142  18.074 -1.1763  0.0669 -0.6491
 4977TIP3   OH239125   3.391   6.018  19.857 -0.1750  0.0258  0.2081
 4977TIP3    H139126   3.457   6.088  19.853 -1.1815  0.9304 -1.3789
 4977TIP3    H239127   3.418   5.955  19.790 -0.7366  0.2357 -0.2195
 4978TIP3   OH239128   3.854   5.468  20.056 -0.2369  0.1690 -0.3343
 4978TIP3    H139129   3.884   5.471  19.965  1.2960  1.3626  0.1752
 4978TIP3    H239130   3.863   5.559  20.087 -0.8661 -0.1907  0.9687
 4979TIP3   OH239131   5.860   2.385  19.433 -0.3415  0.0262  0.0132
 4979TIP3    H139132   5.788   2.367  19.372 -0.3155  1.0273 -0.3279
 4979TIP3    H239133   5.921   2.439  19.383  0.5894 -0.6857  0.3508
 4980TIP3   OH239134   5.522   6.385  19.352  0.3454 -0.3324 -0.4728
 4980TIP3    H139135   5.522   6.310  19.411 -1.2711 -0.6633 -0.8637
 4980TIP3    H239136   5.469   6.358  19.277  0.1191  1.0376 -0.8396
 4981TIP3   OH239137   4.059   1.498  21.158  0.4022 -0.0759  0.0064
 4981TIP3    H139138   4.028   1.408  21.169  0.0418  0.0849  0.3330
 4981TIP3    H239139   4.049   1.537  21.245  0.2457  0.3733 -0.2142
 4982TIP3   OH239140   0.585   3.600  21.139 -0.3012  0.1850  0.6068
 4982TIP3    H139141   0.576   3.560  21.053 -2.7849  0.4112  0.6989
 4982TIP3    H239142   0.679   3.617  21.148 -0.1586  2.4316 -3.1282
 4983TIP3   OH239143   2.933   2.076  20.426  0.0849 -0.4412 -0.0142
 4983TIP3    H139144   3.022   2.042  20.417  0.5677  0.8449 -0.3863
 4983TIP3    H239145   2.880   1.999  20.445  1.5742 -0.9906  2.3892
 4984TIP3   OH239146   4.770   4.688  18.485  0.3306 -0.3110 -0.5928
 4984TIP3    H139147   4.782   4.703  18.579  0.4964  0.3544 -0.7172
 4984TIP3    H239148   4.840   4.737  18.443  1.9961 -2.7967 -0.9613
 4985TIP3   OH239149   6.092   5.893  20.739 -0.2845 -0.1876  0.0011
 4985TIP3    H139150   6.171   5.927  20.779  0.8660 -0.9991 -1.4676
 4985TIP3    H239151   6.059   5.965  20.684  0.4892 -0.4435 -0.8162
 4986TIP3   OH239152   5.151   2.664  18.147 -0.1512  0.3867  0.3634
 4986TIP3    H139153   5.113   2.586  18.106 -0.2101  0.4784  0.2406
 4986TIP3    H239154   5.234   2.676  18.101 -0.4767  0.8158 -0.1240
 4987TIP3   OH239155   5.771   4.473  20.268 -0.2877  0.5723  0.3346
 4987TIP3    H139156   5.714   4.423  20.210 -0.0228  1.6310 -0.9036
 4987TIP3    H239157   5.722   4.553  20.287  0.2980  0.9710  0.2079
 4988TIP3   OH239158   6.474   0.908  19.917  0.6948  0.0785  0.8315
 4988TIP3    H139159   6.540   0.901  19.848 -0.0593 -0.6317  0.1585
 4988TIP3    H239160   6.439   0.996  19.907 -0.1931 -0.3909 -0.4504
 4989TIP3   OH239161   2.656   0.003  19.580 -0.4254 -0.0342  0.0918
 4989TIP3    H139162   2.668   0.093  19.612 -2.1752  0.1542  0.3211
 4989TIP3    H239163   2.718  -0.049  19.631  0.8339  1.0546 -0.2434
 4990TIP3   OH239164   4.196   3.687  19.380  0.2974 -0.1262 -0.0990
 4990TIP3    H139165   4.137   3.761  19.366 -0.9903 -1.2624 -0.9966
 4990TIP3    H239166   4.234   3.670  19.294  0.8415 -0.3170  0.1719
 4991TIP3   OH239167   3.373   5.375  20.971 -0.0401 -0.2821 -0.1203
 4991TIP3    H139168   3.445   5.373  20.908 -0.2097  1.8594 -0.4768
 4991TIP3    H239169   3.296   5.348  20.921  0.6352 -4.0766  0.6306
 4992TIP3   OH239170   0.996   4.706  21.206 -0.0542 -0.1826 -0.5643
 4992TIP3    H139171   0.960   4.618  21.210 -2.5122  0.7722  0.3214
 4992TIP3    H239172   0.976   4.736  21.117  0.9036 -0.5237 -0.9113
 4993TIP3   OH239173   0.459   3.514  18.468  0.0167 -0.0888  0.0597
 4993TIP3    H139174   0.384   3.570  18.450  0.4575  0.8043  0.9025
 4993TIP3    H239175   0.421   3.430  18.494 -0.7679  0.8518  2.1711
 4994TIP3   OH239176   0.085   3.878  19.811  0.7462 -0.2698 -0.2197
 4994TIP3    H139177   0.144   3.803  19.816  0.4125 -0.4480  1.2388
 4994TIP3    H239178   0.017   3.850  19.750  1.2671 -0.6804 -0.6304
 4995TIP3   OH239179   5.107   6.176  18.762 -0.1502  0.5991 -0.0589
 4995TIP3    H139180   5.192   6.139  18.738  0.4502  1.9693 -0.1539
 4995TIP3    H239181   5.121   6.271  18.760 -1.9541  0.8866 -1.0625
 4996TIP3   OH239182   0.979   5.045  18.828  0.0405 -0.6237 -0.0777
 4996TIP3    H139183   0.986   5.128  18.781 -1.2764 -0.4766 -0.0671
 4996TIP3    H239184   0.988   4.978  18.760  0.8664 -0.4733 -0.1204
 4997TIP3   OH239185   1.486   6.136  21.004 -0.5217  0.2077 -0.2994
 4997TIP3    H139186   1.418   6.198  20.979 -0.8799  0.3747  1.0439
 4997TIP3    H239187   1.463   6.109  21.092  0.4355 -0.7421 -0.3202
 4998TIP3   OH239188   4.850   3.914  19.750 -0.0221  0.2247 -0.3076
 4998TIP3    H139189   4.829   3.967  19.827  0.8850  2.3478 -1.4255
 4998TIP3    H239190   4.785   3.940  19.685 -0.2959 -0.9526 -0.5159
 4999TIP3   OH239191   2.162   0.272  20.297  0.8715  0.3340 -0.1920
 4999TIP3    H139192   2.174   0.236  20.385  0.4831 -1.2658 -0.7527
 4999TIP3    H239193   2.070   0.297  20.294  1.2436  1.8944  0.3489
 5000TIP3   OH239194   1.697   3.123  21.104  0.0598 -0.4513 -0.2336
 5000TIP3    H139195   1.749   3.193  21.142 -0.1134 -1.1984  1.4742
 5000TIP3    H239196   1.751   3.088  21.033  1.0962 -0.0434  0.3423
 5001TIP3   OH239197   3.495   2.984  20.330 -0.4533  0.0209 -0.1076
 5001TIP3    H139198   3.406   3.019  20.331 -0.4878  0.0305 -1.2534
 5001TIP3    H239199   3.549   3.054  20.366 -0.7735  0.5033 -0.5452
 5002TIP3   OH239200   3.552   4.583  21.162  0.2698 -0.1687  0.0456
 5002TIP3    H139201   3.506   4.509  21.122  0.4761 -1.2002  1.6212
 5002TIP3    H239202   3.558   4.649  21.092  0.2044 -1.6812 -1.4437
 5003TIP3   OH239203   2.777   4.001  18.761 -0.4394  0.2296 -0.0651
 5003TIP3    H139204   2.683   3.980  18.770 -0.2823 -0.5613 -0.1897
 5003TIP3    H239205   2.779   4.079  18.706 -1.0607  0.6776  0.5300
 5004TIP3   OH239206   2.343   3.509  18.947 -0.4383  0.1603  0.0882
 5004TIP3    H139207   2.283   3.583  18.942 -0.1331  0.3490 -0.8433
 5004TIP3    H239208   2.302   3.450  19.011 -1.3975  0.4744 -0.2182
 5005TIP3   OH239209   4.438   2.692  20.674 -0.3213 -0.3854  0.2435
 5005TIP3    H139210   4.402   2.746  20.604 -1.2133 -0.3243  0.7398
 5005TIP3    H239211   4.421   2.741  20.754 -0.0287 -0.8284  0.5818
 5006TIP3   OH239212   3.519   6.592  18.133 -0.3770 -0.1935 -0.7026
 5006TIP3    H139213   3.505   6.550  18.047 -0.3836 -0.4243 -0.5892
 5006TIP3    H239214   3.464   6.670  18.130  0.8349  0.6490 -1.5207
 5007TIP3   OH239215   2.470   6.437  17.982  0.7158 -0.9035  0.4888
 5007TIP3    H139216   2.555   6.444  18.024  0.3574 -1.1261  1.2665
 5007TIP3    H239217   2.420   6.512  18.015  0.6435 -0.7061 -0.0537
 5008TIP3   OH239218   0.222   1.303  19.133 -0.6295  0.2820  0.6296
 5008TIP3    H139219   0.156   1.357  19.090  0.3162  2.7916  2.0739
 5008TIP3    H239220   0.305   1.346  19.113  0.1641 -0.5407  1.9732
 5009TIP3   OH239221   3.613   5.476  19.272 -0.0910  0.2523 -0.0043
 5009TIP3    H139222   3.528   5.444  19.302  0.2609 -0.9264 -0.2166
 5009TIP3    H239223   3.659   5.501  19.352 -0.6327  0.9148  0.1089
 5010TIP3   OH239224   5.891   5.105  21.119  0.0544  0.1276  0.2179
 5010TIP3    H139225   5.874   5.155  21.199 -2.3698 -0.7611  0.3499
 5010TIP3    H239226   5.959   5.154  21.074 -0.4975  2.1966  1.4894
 5011TIP3   OH239227   6.526   4.080  19.657 -0.0516 -0.1744  0.6513
 5011TIP3    H139228   6.532   3.988  19.631 -0.0636 -0.5148  1.7802
 5011TIP3    H239229   6.452   4.083  19.717  0.5115  0.3869  1.3421
 5012TIP3   OH239230   5.559   1.864  18.469 -0.1904 -0.3941 -0.8956
 5012TIP3    H139231   5.563   1.840  18.377 -0.1609  1.5033 -1.4394
 5012TIP3    H239232   5.650   1.869  18.497 -0.2142 -1.6666 -0.5404
 5013TIP3   OH239233   0.055   2.894  20.830 -0.3587 -0.0411 -0.0783
 5013TIP3    H139234   0.131   2.944  20.800 -0.0414 -0.0198  0.7448
 5013TIP3    H239235   0.017   2.857  20.749  1.0815 -0.8526 -0.4138
 5014TIP3   OH239236   6.234   6.221  20.028 -0.6625 -0.5264  0.2017
 5014TIP3    H139237   6.159   6.280  20.035  1.8385  3.1013 -0.3871
 5014TIP3    H239238   6.245   6.207  19.933 -2.2881 -3.6530  0.3741
 5015TIP3   OH239239   6.103   5.514  19.861  0.2397 -0.2543  0.0716
 5015TIP3    H139240   6.072   5.497  19.950 -0.6761  1.5692  0.1491
 5015TIP3    H239241   6.023   5.522  19.809  0.6416  1.7268 -0.2980
 5016TIP3   OH239242   3.175   5.584  20.550  0.3679  0.2110  0.9137
 5016TIP3    H139243   3.106   5.645  20.575 -1.3983 -1.6498  0.8387
 5016TIP3    H239244   3.148   5.550  20.465  0.6792 -1.5183  1.4735
 5017TIP3   OH239245   2.190   5.303  20.750 -0.6735 -0.0619 -0.4810
 5017TIP3    H139246   2.204   5.237  20.817  1.3589  0.5819 -0.1833
 5017TIP3    H239247   2.116   5.354  20.781 -0.3470 -0.3445  0.8279
 5018TIP3   OH239248   5.594   1.468  21.264  0.1158  0.4812 -0.0541
 5018TIP3    H139249   5.642   1.391  21.234 -0.1660  0.7554 -1.2599
 5018TIP3    H239250   5.507   1.434  21.285  0.5203  0.1598  1.2016
 5019TIP3   OH239251   4.405   2.738  19.873 -0.1410  0.0097  0.6884
 5019TIP3    H139252   4.368   2.650  19.875 -1.0611  0.3482 -0.5819
 5019TIP3    H239253   4.338   2.792  19.916  0.1709  0.1818  0.9593
 5020TIP3   OH239254   0.455   2.586  21.055 -0.1414  0.5461 -0.1190
 5020TIP3    H139255   0.374   2.607  21.102 -0.3436 -1.2931  0.4126
 5020TIP3    H239256   0.521   2.580  21.124  0.3057  1.2721 -0.4742
 5021TIP3   OH239257   5.134   4.368  20.855 -0.1469 -0.3379  0.1619
 5021TIP3    H139258   5.229   4.365  20.842  0.1412  1.7942  1.3341
 5021TIP3    H239259   5.109   4.277  20.871  1.9904 -0.7401  1.5929
 5022TIP3   OH239260   5.301   3.851  19.263  0.0351 -0.3963 -0.5707
 5022TIP3    H139261   5.268   3.793  19.194 -0.3415 -1.4996  0.5084
 5022TIP3    H239262   5.384   3.812  19.289 -0.7128 -1.0932  0.8850
 5023TIP3   OH239263   2.867   3.114  21.257  0.6242  0.0517  0.0459
 5023TIP3    H139264   2.783   3.128  21.301  0.0784 -0.1959 -0.9037
 5023TIP3    H239265   2.931   3.120  21.328 -0.1460  0.6744  0.7249
 5024TIP3   OH239266   2.135   5.240  20.304  0.4257  0.4439 -0.1635
 5024TIP3    H139267   2.087   5.291  20.239  0.4393 -0.3822 -0.8377
 5024TIP3    H239268   2.169   5.305  20.366 -0.8168  1.1217 -0.1606
 5025TIP3   OH239269   1.102   6.492  20.523 -0.1001  0.6432 -0.3416
 5025TIP3    H139270   1.197   6.492  20.529 -0.1555  0.0556  0.8365
 5025TIP3    H239271   1.083   6.482  20.429  1.0281 -2.9558 -0.3305
 5026TIP3   OH239272   6.364   3.029  19.525  0.3413 -0.3859 -0.3328
 5026TIP3    H139273   6.358   3.001  19.617 -0.3176 -1.1788 -0.6064
 5026TIP3    H239274   6.274   3.051  19.501  0.8516  2.2225 -0.0753
 5027TIP3   OH239275   0.818   6.394  18.158 -0.1259  0.3794 -0.0565
 5027TIP3    H139276   0.867   6.322  18.196 -1.6493  0.2721  1.8604
 5027TIP3    H239277   0.877   6.469  18.162  0.6501 -0.2337  0.0980
 5028TIP3   OH239278   4.612   3.949  20.722 -0.5032 -0.2982 -0.1553
 5028TIP3    H139279   4.645   4.038  20.706 -1.6783  0.5926  2.0240
 5028TIP3    H239280   4.581   3.920  20.636 -0.6142  1.6258 -0.8166
 5029TIP3   OH239281   1.034   4.354  18.670 -0.2835 -0.3859 -0.4934
 5029TIP3    H139282   0.960   4.353  18.731 -0.0012 -0.4957 -0.1472
 5029TIP3    H239283   1.108   4.386  18.722  0.2628 -1.7138 -0.4139
 5030TIP3   OH239284   6.196   3.424  20.239 -0.1814 -0.1744 -0.2497
 5030TIP3    H139285   6.165   3.507  20.202 -0.7521 -0.2009  0.1515
 5030TIP3    H239286   6.163   3.424  20.329  2.0281  0.3399  0.6147
 5031TIP3   OH239287   6.221   1.894  18.544  0.1240  0.3397 -0.4184
 5031TIP3    H139288   6.243   1.868  18.633 -0.4038 -0.3212 -0.4754
 5031TIP3    H239289   6.232   1.989  18.543 -0.3078  0.4012  0.4746
 5032TIP3   OH239290   2.533   0.528  18.834  0.1040  0.3355  0.0886
 5032TIP3    H139291   2.517   0.450  18.781  0.8961 -0.4275  0.9490
 5032TIP3    H239292   2.627   0.529  18.848  0.0056  1.0260  0.7361
 5033TIP3   OH239293   2.085   2.524  19.657 -0.1376  0.0703 -0.0114
 5033TIP3    H139294   2.023   2.548  19.725 -0.5607 -0.2058 -0.2965
 5033TIP3    H239295   2.082   2.595  19.594 -0.9156 -0.4082 -0.5327
 5034TIP3   OH239296   2.092   0.165  20.549 -0.3032  0.7146 -0.3203
 5034TIP3    H139297   2.151   0.179  20.623  0.3579 -0.6232 -0.5718
 5034TIP3    H239298   2.043   0.086  20.571 -0.5147  0.6338 -1.0433
 5035TIP3   OH239299   4.986   5.812  20.547  0.5354 -0.3969 -0.3960
 5035TIP3    H139300   5.000   5.765  20.465  2.5144 -0.5863  0.0114
 5035TIP3    H239301   4.927   5.884  20.523  1.7844  0.0974 -2.2065
 5036TIP3   OH239302   5.196   4.821  18.278  0.3309  0.1609  0.3630
 5036TIP3    H139303   5.151   4.812  18.362  0.1532  0.6391  0.3257
 5036TIP3    H239304   5.281   4.780  18.291  0.7504  1.2445  1.1341
 5037TIP3   OH239305   1.866   0.136  18.951 -0.4880 -0.1708 -0.2423
 5037TIP3    H139306   1.826   0.050  18.962 -0.8959  0.1801  1.3328
 5037TIP3    H239307   1.833   0.168  18.867  2.5536 -2.9964 -2.8285
 5038TIP3   OH239308   5.335   3.085  20.175  0.4611 -0.3405 -0.0087
 5038TIP3    H139309   5.393   3.150  20.215  1.1432 -0.8764 -0.1081
 5038TIP3    H239310   5.323   3.117  20.085 -2.9809  2.1664  1.1158
 5039TIP3   OH239311   4.520   3.960  20.982 -0.6846 -0.0788  0.6844
 5039TIP3    H139312   4.438   3.914  20.968 -0.8720  0.6544 -0.8348
 5039TIP3    H239313   4.558   3.969  20.894  1.1460 -0.6098  1.3614
 5040TIP3   OH239314   4.441   5.857  21.153 -0.4695  0.6676  0.1409
 5040TIP3    H139315   4.499   5.886  21.082  1.2943  0.8246  1.5675
 5040TIP3    H239316   4.380   5.930  21.164 -0.8664  0.5911 -1.2657
 5041TIP3   OH239317   3.672   2.711  19.863  1.0229  0.0001 -0.6559
 5041TIP3    H139318   3.583   2.710  19.829  1.2777 -0.3537 -1.3339
 5041TIP3    H239319   3.668   2.656  19.941  0.1909  1.7266  0.5723
 5042TIP3   OH239320   2.157   2.899  21.458  0.0495  0.0696 -0.1587
 5042TIP3    H139321   2.153   2.849  21.376  1.4881  0.4886 -0.5115
 5042TIP3    H239322   2.240   2.874  21.498  0.2455  1.2740  0.2420
 5043TIP3   OH239323   1.167   2.291  19.814  0.3075  0.0481 -0.3641
 5043TIP3    H139324   1.082   2.271  19.852 -0.2781  0.3620 -1.4744
 5043TIP3    H239325   1.195   2.209  19.772 -0.0158  0.2777 -1.0398
 5044TIP3   OH239326   4.613   2.672  19.640 -0.2894 -0.2589 -0.2580
 5044TIP3    H139327   4.617   2.576  19.636 -0.2927 -0.3784  1.7036
 5044TIP3    H239328   4.523   2.691  19.666 -0.0185  0.2073  0.3809
 5045TIP3   OH239329   3.871   3.706  18.658 -0.1460  0.5398 -0.1191
 5045TIP3    H139330   3.841   3.645  18.725  3.1578  0.0543  1.1244
 5045TIP3    H239331   3.873   3.791  18.701  0.0911  0.5859 -0.2142
 5046TIP3   OH239332   2.150   3.823  19.766 -0.1383 -0.3426  0.6408
 5046TIP3    H139333   2.139   3.804  19.673  0.5014  1.6454  0.1133
 5046TIP3    H239334   2.142   3.918  19.772  1.7180 -0.2437  2.3344
 5047TIP3   OH239335   6.579   3.590  21.287  0.0513  0.0727 -0.0318
 5047TIP3    H139336   6.657   3.543  21.315  0.8334  1.1180 -0.3745
 5047TIP3    H239337   6.538   3.534  21.222  1.3975  0.1995 -1.0213
 5048TIP3   OH239338   3.489   1.961  20.716  0.1590 -0.0650 -0.5814
 5048TIP3    H139339   3.419   1.901  20.740  0.2388  0.3138  0.6552
 5048TIP3    H239340   3.445   2.041  20.689  0.1036 -0.1421 -0.7240
 5049TIP3   OH239341   2.332   0.725  18.752 -0.5532 -0.0929  0.1133
 5049TIP3    H139342   2.388   0.649  18.768  0.5145  0.5117 -0.5468
 5049TIP3    H239343   2.390   0.800  18.768 -0.8896  0.5465 -1.4742
 5050TIP3   OH239344   4.191   6.024  20.148  0.5903  0.6231 -0.1084
 5050TIP3    H139345   4.199   6.105  20.198 -1.0952  1.1710 -0.6822
 5050TIP3    H239346   4.098   6.017  20.127  0.8846 -0.8635 -1.0736
 5051TIP3   OH239347   1.864   1.314  20.585 -0.1970  0.0384 -0.2861
 5051TIP3    H139348   1.799   1.382  20.570 -1.1722 -1.1703 -1.9306
 5051TIP3    H239349   1.946   1.361  20.600 -1.1543  1.5677  0.3746
 5052TIP3   OH239350   4.299   0.786  20.866 -0.3857 -0.8175  0.3613
 5052TIP3    H139351   4.391   0.793  20.889 -0.2651 -2.0903  0.3155
 5052TIP3    H239352   4.263   0.873  20.884  0.9894 -0.0503 -0.4475
 5053TIP3   OH239353   1.393   6.340  21.388 -0.0975  0.2948 -0.3976
 5053TIP3    H139354   1.400   6.399  21.462  0.1384  0.9970 -0.9646
 5053TIP3    H239355   1.475   6.353  21.339 -0.0724 -0.4532 -0.5646
 5054TIP3   OH239356   4.348   4.280  19.448 -0.1621 -0.5368  0.0333
 5054TIP3    H139357   4.438   4.305  19.469  0.4014 -1.8313 -0.7604
 5054TIP3    H239358   4.303   4.280  19.532  0.7211 -0.4541  0.5162
 5055TIP3   OH239359   4.043   2.323  18.500 -0.2611 -0.9662  0.5736
 5055TIP3    H139360   4.056   2.377  18.422 -2.9782  0.3930  0.9472
 5055TIP3    H239361   3.971   2.265  18.477 -2.2335  0.5634  2.5033
 5056TIP3   OH239362   4.275   3.108  19.990 -0.3947  0.6549  0.0188
 5056TIP3    H139363   4.352   3.066  19.951  1.2673  2.3239  1.3555
 5056TIP3    H239364   4.269   3.193  19.946 -1.4154  0.5848  0.0117
 5057TIP3   OH239365   3.680   5.936  20.683 -0.3965  0.0849 -0.2609
 5057TIP3    H139366   3.658   5.928  20.776 -1.2288 -0.6276 -0.5113
 5057TIP3    H239367   3.673   5.848  20.649  0.3916  0.2645 -0.9090
 5058TIP3   OH239368   1.414   6.057  19.346  0.6923 -0.0829  0.2536
 5058TIP3    H139369   1.331   6.081  19.388  1.8124  2.4511  1.1665
 5058TIP3    H239370   1.391   5.982  19.290 -1.7391 -0.8569  2.0952
 5059TIP3   OH239371   4.333   2.110  19.185  0.3761 -0.2118 -0.0318
 5059TIP3    H139372   4.248   2.076  19.157  0.4542 -1.0039  0.6479
 5059TIP3    H239373   4.357   2.174  19.118 -0.4843 -0.4070 -0.5361
 5060TIP3   OH239374   3.577   3.302  19.373 -0.5901 -0.0763 -0.1722
 5060TIP3    H139375   3.549   3.329  19.461 -1.2589 -0.3883 -0.2797
 5060TIP3    H239376   3.624   3.378  19.339 -0.9042  0.2951  0.2075
 5061TIP3   OH239377   6.007   2.608  18.849  0.0925  0.5322  0.2322
 5061TIP3    H139378   6.047   2.667  18.785 -1.1498 -0.8071 -1.8933
 5061TIP3    H239379   5.937   2.660  18.889  1.4987  1.6940  1.2931
 5062TIP3   OH239380   0.660   5.243  21.260 -0.3663 -0.2886  0.3044
 5062TIP3    H139381   0.686   5.273  21.173 -1.3737 -0.0202  0.0786
 5062TIP3    H239382   0.742   5.235  21.309  0.1313  0.3916 -0.4058
 5063TIP3   OH239383   6.241   4.091  18.562 -0.1034 -0.0663 -0.2167
 5063TIP3    H139384   6.230   4.161  18.627  3.5200 -0.1908  0.7677
 5063TIP3    H239385   6.229   4.135  18.478  1.5915  1.7400  0.3864
 5064TIP3   OH239386   4.351   1.627  17.537  0.0491  0.3335 -0.8512
 5064TIP3    H139387   4.382   1.718  17.532  0.0366  0.4210  0.3817
 5064TIP3    H239388   4.299   1.616  17.458 -3.0218  2.5787  0.6429
 5065TIP3   OH239389   6.496   6.207  20.094 -0.3279 -0.3277 -0.2548
 5065TIP3    H139390   6.525   6.147  20.025 -1.5977 -3.1138  1.4448
 5065TIP3    H239391   6.400   6.201  20.092 -0.4433  0.9484  0.6015
 5066TIP3   OH239392   1.001   1.696  19.844 -0.1014 -0.1438  0.4353
 5066TIP3    H139393   1.092   1.678  19.868 -0.1451 -0.0649  0.6701
 5066TIP3    H239394   0.958   1.713  19.928 -0.0484  1.1245  0.2317
 5067TIP3   OH239395   3.829   0.845  19.092 -0.4290  0.6931  0.2584
 5067TIP3    H139396   3.790   0.759  19.074 -2.3874  1.1565  1.8985
 5067TIP3    H239397   3.921   0.826  19.111 -0.6492 -0.9563 -0.1666
 5068TIP3   OH239398   2.145   5.010  18.609  0.0818  0.4496 -0.3989
 5068TIP3    H139399   2.096   4.931  18.584 -0.6554  0.5127  0.8106
 5068TIP3    H239400   2.094   5.082  18.573 -0.6038  0.5028  0.6616
 5069TIP3   OH239401   6.601   1.866  21.507  0.0401 -0.5385 -0.0280
 5069TIP3    H139402   6.638   1.833  21.589 -0.6087  0.3596  0.6483
 5069TIP3    H239403   6.652   1.944  21.488 -1.0019  0.3118  0.5407
 5070TIP3   OH239404   0.781   3.581  20.913  0.4806  0.1745  0.0337
 5070TIP3    H139405   0.696   3.578  20.870  0.9914  0.1684 -1.0022
 5070TIP3    H239406   0.804   3.489  20.927 -0.5828  0.1739  2.2067
 5071TIP3   OH239407   1.376   1.935  18.288 -0.1935 -0.0988 -0.3075
 5071TIP3    H139408   1.462   1.939  18.247 -1.1133 -0.2423 -2.3685
 5071TIP3    H239409   1.385   1.986  18.369  1.8462 -0.2636 -0.3997
 5072TIP3   OH239410   0.081   5.959  20.624  0.2981  0.5130  0.1397
 5072TIP3    H139411   0.023   6.027  20.588  0.3300 -0.0145 -0.9698
 5072TIP3    H239412   0.149   6.008  20.670 -0.4086  1.1793  0.4968
 5073TIP3   OH239413   3.103   4.562  18.152  0.7187 -0.4028 -0.2310
 5073TIP3    H139414   3.189   4.593  18.124  1.4223 -1.9120  0.1921
 5073TIP3    H239415   3.106   4.467  18.141 -0.7311 -0.5360  0.2539
 5074TIP3   OH239416   3.955   4.608  20.222  0.5948  0.5104  0.5885
 5074TIP3    H139417   3.931   4.692  20.262 -1.8277 -0.8271  2.1844
 5074TIP3    H239418   3.990   4.556  20.294 -1.8067 -1.1890  0.6575
 5075TIP3   OH239419   0.688   1.015  18.702  0.0975  0.2037 -0.1295
 5075TIP3    H139420   0.616   0.958  18.729 -0.1646  0.7770  0.4183
 5075TIP3    H239421   0.763   0.985  18.754 -0.2093  0.7833  0.6848
 5076TIP3   OH239422   1.094   4.544  17.917 -0.0693  0.5438  0.1397
 5076TIP3    H139423   1.039   4.576  17.846  0.3559 -0.2435 -0.5660
 5076TIP3    H239424   1.084   4.449  17.913  0.1431  0.4838  0.9838
 5077TIP3   OH239425   4.509   3.693  19.375  0.4865 -0.2028  0.0652
 5077TIP3    H139426   4.446   3.626  19.402 -0.6273  1.5231  1.9859
 5077TIP3    H239427   4.578   3.644  19.331 -1.4252 -2.3403 -0.7763
 5078TIP3   OH239428   5.338   6.472  18.900 -0.5110  0.2462 -0.3430
 5078TIP3    H139429   5.272   6.538  18.925 -0.5912 -0.2653  0.8199
 5078TIP3    H239430   5.323   6.459  18.806 -0.3194  2.0693 -0.6720
 5079TIP3   OH239431   3.778   1.058  20.009  0.0248  0.1684 -0.6745
 5079TIP3    H139432   3.814   1.082  19.924  0.8305 -1.4946 -0.8358
 5079TIP3    H239433   3.716   0.987  19.991 -0.7671  0.6567  0.0031
 5080TIP3   OH239434   5.590   4.361  20.075 -0.5985 -0.2265 -0.1324
 5080TIP3    H139435   5.538   4.418  20.018  0.9580  2.3442  0.8329
 5080TIP3    H239436   5.671   4.346  20.026 -0.2415 -0.0179  0.3804
 5081TIP3   OH239437   4.252   3.404  18.148  0.2340 -0.1440  0.0790
 5081TIP3    H139438   4.302   3.396  18.230  2.7333  0.2894 -1.2873
 5081TIP3    H239439   4.277   3.326  18.098 -0.2653  0.2330 -0.7717
 5082TIP3   OH239440   3.961   0.060  17.433 -0.3557 -0.3620 -0.9389
 5082TIP3    H139441   3.951   0.048  17.528  0.8928  1.8898 -0.4432
 5082TIP3    H239442   4.039   0.011  17.410 -0.0393 -0.0433 -0.5676
 5083TIP3   OH239443   2.641   5.573  19.178 -0.2672  0.0915  0.3099
 5083TIP3    H139444   2.708   5.520  19.135  0.0011 -0.5641  1.5019
 5083TIP3    H239445   2.670   5.663  19.164  0.3745 -0.1499  0.0396
 5084TIP3   OH239446   3.321   6.319  20.988  0.0138  0.1607  0.5230
 5084TIP3    H139447   3.408   6.280  20.997  0.3526 -0.3152 -3.3250
 5084TIP3    H239448   3.337   6.411  20.967 -0.5505  0.5359  1.6130
 5085TIP3   OH239449   2.921   6.491  18.371 -0.1749  0.4651 -0.2416
 5085TIP3    H139450   2.854   6.453  18.428 -0.7472  1.3430 -0.3157
 5085TIP3    H239451   2.961   6.415  18.328 -0.0942 -0.1756  0.9159
 5086TIP3   OH239452   6.253   1.751  19.553  0.2577 -0.2196 -0.4830
 5086TIP3    H139453   6.220   1.711  19.634  2.7856 -0.6330  0.4114
 5086TIP3    H239454   6.249   1.681  19.488  1.1708 -0.8509  0.1205
 5087TIP3   OH239455   5.155   3.347  20.710 -0.1758  0.6113  0.0880
 5087TIP3    H139456   5.120   3.408  20.775 -1.6839 -0.0599 -0.0473
 5087TIP3    H239457   5.214   3.401  20.657 -2.5901  2.4274 -0.9804
 5088TIP3   OH239458   4.531   5.213  20.249  0.1952  0.2755  0.2539
 5088TIP3    H139459   4.544   5.168  20.166 -0.3410  0.2959  0.1516
 5088TIP3    H239460   4.607   5.270  20.258  1.0854 -0.9127  0.5656
 5089TIP3   OH239461   0.323   5.394  19.853  0.1596 -0.2089  0.1553
 5089TIP3    H139462   0.267   5.373  19.778 -1.0934 -0.9259  1.2492
 5089TIP3    H239463   0.296   5.483  19.878 -1.3957 -0.9977  1.4156
 5090TIP3   OH239464   3.332   2.717  20.017 -0.1469 -0.3563 -0.5541
 5090TIP3    H139465   3.399   2.653  19.997  0.2956  0.0999 -0.5417
 5090TIP3    H239466   3.298   2.692  20.103 -0.1418 -0.7105 -0.6568
 5091TIP3   OH239467   5.763   1.697  21.364 -0.2021 -0.0968  0.2251
 5091TIP3    H139468   5.669   1.717  21.363 -0.2190  0.0543  1.7464
 5091TIP3    H239469   5.769   1.610  21.326 -0.5909  1.0172 -2.6735
 5092TIP3   OH239470   5.372   2.722  17.986  0.2360 -0.4349 -0.8323
 5092TIP3    H139471   5.364   2.783  17.913 -1.6380 -0.3315 -0.5877
 5092TIP3    H239472   5.464   2.694  17.984  1.8809  3.9752  0.3600
 5093TIP3   OH239473   4.289   2.655  18.425 -0.3870  0.3153 -0.6411
 5093TIP3    H139474   4.291   2.618  18.337 -0.6323  1.8285 -1.3119
 5093TIP3    H239475   4.196   2.657  18.449 -0.3319  0.0268 -0.3951
 5094TIP3   OH239476   5.985   1.463  19.828  0.1314 -0.1608 -0.0562
 5094TIP3    H139477   6.062   1.514  19.803  0.1409 -0.3321 -0.3758
 5094TIP3    H239478   5.965   1.493  19.917 -0.1677  0.7688 -0.4186
 5095TIP3   OH239479   1.402   3.351  19.644  0.2230  0.0221 -0.4071
 5095TIP3    H139480   1.361   3.437  19.654  1.3268  0.7815 -1.9260
 5095TIP3    H239481   1.483   3.357  19.695  1.1404  0.5279 -1.8576
 5096TIP3   OH239482   2.430   1.573  20.104 -0.0499  0.0512 -0.1424
 5096TIP3    H139483   2.477   1.517  20.042 -1.1829 -1.0709 -0.0375
 5096TIP3    H239484   2.337   1.557  20.084 -0.4127  0.6780  0.9738
 5097TIP3   OH239485   3.506   0.551  20.662  0.1440  0.1571  0.1183
 5097TIP3    H139486   3.571   0.491  20.699 -0.6082 -1.7253 -1.4647
 5097TIP3    H239487   3.422   0.508  20.680 -0.2860 -0.5525 -3.1126
 5098TIP3   OH239488   5.111   4.692  21.365 -0.4435  0.0426 -0.1487
 5098TIP3    H139489   5.068   4.643  21.435  0.2549  1.7089  1.5110
 5098TIP3    H239490   5.204   4.691  21.388  0.1643 -1.2351 -2.2731
 5099TIP3   OH239491   1.620   6.107  19.923 -0.3449 -1.2794 -0.1282
 5099TIP3    H139492   1.555   6.114  19.853  0.4237  0.7453 -0.6830
 5099TIP3    H239493   1.641   6.013  19.926 -3.1355 -2.0008 -0.0157
 5100TIP3   OH239494   3.627   4.399  20.774  0.5500 -0.6338  0.0874
 5100TIP3    H139495   3.603   4.316  20.732 -0.9196 -0.3085  0.2456
 5100TIP3    H239496   3.649   4.375  20.864  0.8156 -0.9414 -0.0575
 5101TIP3   OH239497   3.539   0.445  18.314  0.5447  0.2441 -0.3847
 5101TIP3    H139498   3.588   0.527  18.322  0.6987  0.1076  0.0963
 5101TIP3    H239499   3.604   0.377  18.327  0.2000  0.0608  0.4679
 5102TIP3   OH239500   5.810   2.283  21.171  0.8581 -0.4592 -0.0868
 5102TIP3    H139501   5.762   2.201  21.160  0.8636 -0.4349 -0.2958
 5102TIP3    H239502   5.743   2.346  21.197  0.6102 -0.2160 -1.2415
 5103TIP3   OH239503   0.528   5.565  18.911  0.3087 -0.1053 -0.4237
 5103TIP3    H139504   0.510   5.658  18.920 -0.7272 -0.3855  0.7824
 5103TIP3    H239505   0.588   5.545  18.984  0.8293 -0.3125 -0.9036
 5104TIP3   OH239506   2.628   0.245  19.264 -0.3298 -0.3631 -0.4711
 5104TIP3    H139507   2.572   0.320  19.243 -0.8820 -1.2730 -2.4561
 5104TIP3    H239508   2.572   0.189  19.318 -0.0660  0.3828  0.6302
 5105TIP3   OH239509   1.819   3.469  19.394 -0.4463 -0.4941  0.2033
 5105TIP3    H139510   1.732   3.486  19.357 -0.7312 -1.3923  0.4518
 5105TIP3    H239511   1.816   3.509  19.481 -0.4931 -0.2364  0.0855
 5106TIP3   OH239512   4.849   2.420  18.491 -0.4643 -0.4890  0.1687
 5106TIP3    H139513   4.896   2.480  18.549  1.6190 -1.8643  0.0230
 5106TIP3    H239514   4.818   2.475  18.419 -0.6342  0.7742  1.1763
 5107TIP3   OH239515   3.627   3.874  18.892 -0.3351  0.4793  0.1855
 5107TIP3    H139516   3.641   3.798  18.836 -0.0008 -0.1381  1.0882
 5107TIP3    H239517   3.540   3.906  18.868  0.3556  1.0842 -1.6713
 5108TIP3   OH239518   0.708   3.459  19.943  0.5449 -0.4950 -0.4429
 5108TIP3    H139519   0.681   3.402  19.871 -2.5316  1.1616 -0.7766
 5108TIP3    H239520   0.777   3.514  19.905 -0.3083 -0.3494 -1.8667
 5109TIP3   OH239521   1.679   1.423  19.871 -0.6868  0.1858 -0.1196
 5109TIP3    H139522   1.641   1.503  19.835 -0.7003  0.5101  0.5944
 5109TIP3    H239523   1.603   1.368  19.892 -0.6489 -1.0298 -2.7740
 5110TIP3   OH239524   2.452   2.780  19.165  0.2319 -0.2187 -0.4712
 5110TIP3    H139525   2.381   2.782  19.228 -1.9776  1.8090 -2.7900
 5110TIP3    H239526   2.410   2.755  19.082  2.0609  1.5636 -2.0593
 5111TIP3   OH239527   2.081   0.834  21.193 -0.5734 -0.4894 -0.6856
 5111TIP3    H139528   2.089   0.841  21.098 -0.6113  1.9379 -0.5588
 5111TIP3    H239529   2.048   0.919  21.221 -2.7103 -1.8692  1.3271
 5112TIP3   OH239530   3.349   6.218  17.746  0.5056  0.3007 -0.3003
 5112TIP3    H139531   3.444   6.204  17.747  0.6360  0.9788 -1.3232
 5112TIP3    H239532   3.338   6.307  17.714 -0.4870  0.1002 -0.5682
 5113TIP3   OH239533   3.136   3.594  19.200  0.0701 -0.5195  0.0678
 5113TIP3    H139534   3.212   3.617  19.254 -0.5927  0.1474  0.7422
 5113TIP3    H239535   3.167   3.605  19.110  0.5598  0.5149  0.3399
 5114TIP3   OH239536   0.197   0.314  18.755 -0.6326 -0.3022  0.0273
 5114TIP3    H139537   0.206   0.225  18.722  0.0423 -0.5658  0.8878
 5114TIP3    H239538   0.280   0.333  18.798 -1.0017  0.5093  0.4186
 5115TIP3   OH239539   0.932   1.377  20.651 -0.1860  0.8016 -0.2078
 5115TIP3    H139540   0.951   1.341  20.564  0.8837  0.9461 -0.0520
 5115TIP3    H239541   0.937   1.471  20.639 -0.6214  0.8371 -0.1100
 5116TIP3   OH239542   5.803   5.711  18.334  0.2243 -0.5724 -0.3074
 5116TIP3    H139543   5.726   5.765  18.319 -0.9664 -2.4335 -1.3097
 5116TIP3    H239544   5.851   5.714  18.251  0.2633 -0.8744 -0.2969
 5117TIP3   OH239545   1.774   6.171  21.244 -0.2734  0.0349 -0.0721
 5117TIP3    H139546   1.811   6.201  21.160  2.1235 -3.0398 -0.2886
 5117TIP3    H239547   1.798   6.241  21.305  3.5144 -0.3272 -0.8503
 5118TIP3   OH239548   4.988   0.957  18.246  0.7170 -0.3942  0.4622
 5118TIP3    H139549   5.002   0.862  18.245  0.3564 -0.4543  1.0271
 5118TIP3    H239550   4.903   0.969  18.205 -0.3988 -0.5268  2.6290
 5119TIP3   OH239551   1.828   4.095  19.650 -0.1929  0.2446 -0.3525
 5119TIP3    H139552   1.908   4.079  19.699 -0.0940 -0.9878 -0.8823
 5119TIP3    H239553   1.761   4.046  19.698 -0.5492  0.8934 -0.1743
 5120TIP3   OH239554   2.185   2.617  18.299  0.4779  0.1331 -0.2879
 5120TIP3    H139555   2.124   2.592  18.368 -1.1644  1.2289 -1.2546
 5120TIP3    H239556   2.154   2.570  18.222  1.5802 -0.1810 -0.5606
 5121TIP3   OH239557   4.758   0.693  20.362  0.1482 -0.1453 -0.1110
 5121TIP3    H139558   4.714   0.630  20.305  0.8343 -1.1542  0.4498
 5121TIP3    H239559   4.743   0.777  20.319 -0.5466 -0.7076 -1.0305
 5122TIP3   OH239560   0.942   6.185  21.167  0.1379 -0.7365 -0.4595
 5122TIP3    H139561   0.941   6.232  21.084 -0.0085 -0.6027 -0.3826
 5122TIP3    H239562   1.033   6.189  21.196 -0.1811  1.0584  0.4339
 5123TIP3   OH239563   2.765   6.464  19.084  0.3653  0.9304  0.1528
 5123TIP3    H139564   2.817   6.522  19.029  1.0292  1.6063  1.4457
 5123TIP3    H239565   2.741   6.518  19.159 -0.6583  0.0877  0.4578
 5124TIP3   OH239566   1.603   2.554  19.480 -0.5201  0.0766  0.7964
 5124TIP3    H139567   1.683   2.566  19.430 -1.1217  0.2123 -0.1500
 5124TIP3    H239568   1.536   2.601  19.430 -1.3179 -0.5850  1.2272
 5125TIP3   OH239569   1.832   5.391  19.820  0.7689 -0.2151  0.0792
 5125TIP3    H139570   1.790   5.312  19.853 -3.4871  1.9173  0.5023
 5125TIP3    H239571   1.854   5.371  19.729  1.1239 -2.2857  0.5909
 5126TIP3   OH239572   6.163   4.949  18.827 -0.3138  0.6829  0.1511
 5126TIP3    H139573   6.139   4.884  18.893  1.0340 -1.4641 -1.3828
 5126TIP3    H239574   6.187   5.027  18.878 -1.2475 -0.2275  2.0732
 5127TIP3   OH239575   5.080   4.203  18.834  0.2689  0.2513 -0.0467
 5127TIP3    H139576   5.038   4.288  18.829  0.6307  0.5406  1.3829
 5127TIP3    H239577   5.101   4.181  18.743 -0.5421  1.3065 -0.5101
 5128TIP3   OH239578   6.033   3.904  19.270  0.8355 -0.1759 -0.5100
 5128TIP3    H139579   5.974   3.840  19.232  0.4885 -0.2359  0.1150
 5128TIP3    H239580   6.111   3.901  19.214 -0.3157  1.0148 -2.2611
 5129TIP3   OH239581   3.502   4.123  19.106 -0.2554  0.0874  0.2390
 5129TIP3    H139582   3.504   4.191  19.038  2.4903  1.3695  1.4798
 5129TIP3    H239583   3.569   4.060  19.079  0.3238  0.2091  1.3456
 5130TIP3   OH239584   1.505   1.114  21.031  0.0575 -0.0497  0.0521
 5130TIP3    H139585   1.417   1.106  21.069 -0.0302 -1.4881 -0.3688
 5130TIP3    H239586   1.490   1.160  20.948 -0.1080  0.8025  0.5388
 5131TIP3   OH239587   2.988   1.048  18.293 -1.0773 -0.5069 -0.3281
 5131TIP3    H139588   3.031   1.130  18.317 -0.9412 -0.3909 -0.9500
 5131TIP3    H239589   2.967   1.058  18.200  1.9356 -2.4472 -1.3921
 5132TIP3   OH239590   5.144   3.797  21.024  0.0342 -0.1631  0.0156
 5132TIP3    H139591   5.063   3.842  21.048 -0.1979 -0.6264  0.1231
 5132TIP3    H239592   5.170   3.751  21.103  2.3967  2.8164  1.1632
 5133TIP3   OH239593   5.014   5.347  19.973  0.0144 -0.1243  0.9738
 5133TIP3    H139594   4.981   5.436  19.984 -1.8812 -0.6131 -0.0963
 5133TIP3    H239595   5.106   5.357  19.952 -0.1061  1.5667  1.1283
 5134TIP3   OH239596   4.187   2.026  19.919 -0.3612 -0.6264 -0.2169
 5134TIP3    H139597   4.259   2.039  19.857  0.7581 -1.7381  0.7874
 5134TIP3    H239598   4.190   2.102  19.977 -0.8328 -0.0358 -0.9482
 5135TIP3   OH239599   5.058   5.578  19.415  0.0101  0.3513  0.3055
 5135TIP3    H139600   5.071   5.666  19.381 -0.9410 -0.1949 -1.6283
 5135TIP3    H239601   4.967   5.576  19.444  0.2763  0.2474  1.1589
 5136TIP3   OH239602   4.409   3.038  18.360 -0.9029 -0.0214 -0.2333
 5136TIP3    H139603   4.443   3.128  18.367 -0.3916  0.0680 -2.9005
 5136TIP3    H239604   4.316   3.046  18.384 -0.3376  0.7086  1.9706
 5137TIP3   OH239605   3.478   3.127  20.856  0.0701 -0.3211 -0.6446
 5137TIP3    H139606   3.489   3.056  20.793  1.5695 -0.9593  0.2962
 5137TIP3    H239607   3.559   3.178  20.850 -1.0043  1.4110 -1.3653
 5138TIP3   OH239608   3.589   5.807  20.018  0.2842 -0.5125  0.5365
 5138TIP3    H139609   3.551   5.835  20.101 -0.3886  2.3429 -0.6375
 5138TIP3    H239610   3.522   5.751  19.979 -0.6411  0.4747  0.6647
 5139TIP3   OH239611   6.287   4.204  20.132  0.2330  0.1895 -0.9243
 5139TIP3    H139612   6.209   4.157  20.104 -1.1831  1.6903  0.3263
 5139TIP3    H239613   6.325   4.148  20.201 -0.6707  0.2101 -0.3949
 5140TIP3   OH239614   0.238   4.403  18.809  0.0529  0.4768  0.1795
 5140TIP3    H139615   0.177   4.468  18.844 -0.0384 -0.3028  1.5493
 5140TIP3    H239616   0.196   4.319  18.825  0.6718  0.0166 -0.5438
 5141TIP3   OH239617   0.633   4.913  20.268 -0.1653 -0.3811 -0.3968
 5141TIP3    H139618   0.541   4.936  20.281 -0.2796 -0.9618 -0.1479
 5141TIP3    H239619   0.674   4.995  20.239 -0.7698 -0.1350 -0.5766
 5142TIP3   OH239620   4.683   3.004  18.251  0.3923 -0.6505  0.3461
 5142TIP3    H139621   4.667   2.943  18.179  0.5665 -2.3621  1.6745
 5142TIP3    H239622   4.601   3.005  18.300  0.1955  0.6851  0.0218
 5143TIP3   OH239623   3.560   1.663  19.692 -0.4165  0.0537 -0.4731
 5143TIP3    H139624   3.512   1.726  19.637 -1.6111  0.9722  1.5108
 5143TIP3    H239625   3.553   1.699  19.780  0.5564 -1.8989  0.4431
 5144TIP3   OH239626   5.990   5.942  19.215  0.3049 -0.3196  0.4621
 5144TIP3    H139627   5.984   5.976  19.125  0.0105 -1.5640 -0.0131
 5144TIP3    H239628   5.907   5.897  19.229  1.0525 -1.6617  0.7043
 5145TIP3   OH239629   2.094   4.105  19.829  0.1575  0.2673  0.2264
 5145TIP3    H139630   2.032   4.139  19.894  0.5557 -0.5003  1.0291
 5145TIP3    H239631   2.137   4.183  19.795  0.7620  0.6452  1.7359
 5146TIP3   OH239632   3.116   6.553  19.013 -0.3331 -0.5055  0.3007
 5146TIP3    H139633   3.082   6.601  19.088 -0.6561 -1.6530  0.9117
 5146TIP3    H239634   3.061   6.582  18.940 -2.5321 -2.0949  1.2020
 5147TIP3   OH239635   0.353   3.627  21.280 -0.3438  0.1598  0.3857
 5147TIP3    H139636   0.381   3.613  21.371 -1.5170 -2.2965  0.4458
 5147TIP3    H239637   0.432   3.611  21.228 -0.0913 -0.2568  0.8915
 5148TIP3   OH239638   3.488   2.219  18.442 -0.5999  0.4032 -0.0556
 5148TIP3    H139639   3.416   2.222  18.379 -0.4735  2.5049 -0.1675
 5148TIP3    H239640   3.478   2.299  18.494  1.1936  0.3374  0.4484
 5149TIP3   OH239641   0.335   2.234  21.111  0.3230  0.3891  0.1455
 5149TIP3    H139642   0.256   2.265  21.066 -0.1949 -1.6586 -0.4364
 5149TIP3    H239643   0.407   2.265  21.056 -0.0282  2.0407  0.5342
 5150TIP3   OH239644   2.560   5.403  20.469  0.8195  0.8216  0.2560
 5150TIP3    H139645   2.647   5.441  20.457  2.2760 -2.7838 -2.5443
 5150TIP3    H239646   2.507   5.443  20.400  0.9839  1.0965  0.2848
 5151TIP3   OH239647   2.354   0.725  19.837  0.0179  0.1934  0.6823
 5151TIP3    H139648   2.376   0.740  19.745  1.4529  1.9172  1.2390
 5151TIP3    H239649   2.312   0.807  19.865  1.7699  0.6588  2.1313
 5152TIP3   OH239650   1.491   6.367  20.329  0.3779  0.0683 -0.3602
 5152TIP3    H139651   1.509   6.274  20.344 -1.5827 -0.0801  1.4519
 5152TIP3    H239652   1.483   6.375  20.234  1.5874 -1.3836 -0.6215
 5153TIP3   OH239653   4.771   1.743  19.988  0.4585  0.3890 -0.0328
 5153TIP3    H139654   4.700   1.760  20.050  0.2620 -0.5728  0.0148
 5153TIP3    H239655   4.824   1.823  19.990  0.2341  0.5284  1.0834
 5154TIP3   OH239656   0.055   2.969  18.251 -0.0199  0.4389  1.0151
 5154TIP3    H139657   0.034   3.043  18.308  0.2063  0.5426  0.9632
 5154TIP3    H239658   0.069   3.008  18.165  0.5381  0.3935  1.0807
 5155TIP3   OH239659   6.209   3.557  19.268  0.2091  0.0568  0.0907
 5155TIP3    H139660   6.180   3.540  19.178 -0.7153  2.0816 -0.0440
 5155TIP3    H239661   6.190   3.475  19.315 -1.0639 -0.4045 -1.1517
 5156TIP3   OH239662   6.155   6.017  21.140 -0.5298  0.1072  0.6173
 5156TIP3    H139663   6.217   5.948  21.162  0.7221 -0.3760 -3.5868
 5156TIP3    H239664   6.197   6.098  21.169 -0.0312 -0.5400  1.7678
 5157TIP3   OH239665   1.383   0.624  20.681  0.3690  0.5340  0.3597
 5157TIP3    H139666   1.366   0.576  20.763 -1.3580 -1.8534 -1.2688
 5157TIP3    H239667   1.478   0.617  20.669  0.4452 -0.4533  1.3424
 5158TIP3   OH239668   0.410   3.314  17.918  0.5599 -0.2345  0.6977
 5158TIP3    H139669   0.464   3.380  17.960  0.2813  0.9840 -0.7689
 5158TIP3    H239670   0.320   3.341  17.936  0.4427 -0.6424  0.7392
 5159TIP3   OH239671   0.106   5.564  20.174 -0.4107  0.0104  0.2359
 5159TIP3    H139672   0.026   5.567  20.121 -1.1323  2.9292  1.2789
 5159TIP3    H239673   0.176   5.585  20.113 -0.6400 -0.9630 -0.3753
 5160TIP3   OH239674   5.186   0.592  21.298  0.0756 -0.0747  0.7024
 5160TIP3    H139675   5.257   0.552  21.247 -0.6042  0.1338 -0.4499
 5160TIP3    H239676   5.162   0.524  21.361  0.9278 -0.3507  0.7512
 5161TIP3   OH239677   2.785   2.491  18.128  0.2391  0.6214  0.3752
 5161TIP3    H139678   2.851   2.490  18.197  1.0313 -1.5337 -0.3304
 5161TIP3    H239679   2.821   2.436  18.059 -1.3282  1.2178 -1.0042
 5162TIP3   OH239680   4.245   3.290  17.828  0.3209  0.3172  0.2300
 5162TIP3    H139681   4.294   3.267  17.907  1.2639  0.4306 -0.3007
 5162TIP3    H239682   4.308   3.338  17.775  0.3142 -1.3677 -1.4056
 5163TIP3   OH239683   3.691   4.350  20.090  0.0423 -0.6600  0.2713
 5163TIP3    H139684   3.711   4.291  20.018 -1.5271 -0.7072 -0.1661
 5163TIP3    H239685   3.739   4.314  20.165  2.5158 -0.0374 -0.9148
 5164TIP3   OH239686   1.118   1.039  18.884 -0.2066 -0.2201  0.0786
 5164TIP3    H139687   1.080   1.112  18.932  0.1765 -0.4516  0.7495
 5164TIP3    H239688   1.199   1.018  18.932  1.1910  0.7445 -1.7172
 5165TIP3   OH239689   2.168   1.599  19.884 -0.1717  0.6669  0.5465
 5165TIP3    H139690   2.121   1.603  19.967  1.0481  0.0556  1.2978
 5165TIP3    H239691   2.183   1.505  19.869  0.8924  0.8416  0.4006
 5166TIP3   OH239692   2.073   1.296  19.620 -0.4118 -0.5028 -0.0508
 5166TIP3    H139693   1.989   1.272  19.658  0.0216 -2.5205 -0.2576
 5166TIP3    H239694   2.125   1.216  19.623  1.1807  0.4416 -0.8059
 5167TIP3   OH239695   1.684   3.219  19.071  0.2012 -0.5564  0.8510
 5167TIP3    H139696   1.737   3.169  19.134 -0.4072 -1.5557  0.6045
 5167TIP3    H239697   1.618   3.263  19.125  0.6420 -0.1366  1.0577
 5168TIP3   OH239698   0.084   2.742  19.784  0.3104  0.2545 -0.1588
 5168TIP3    H139699   0.159   2.698  19.744  0.7718 -0.4197  1.3912
 5168TIP3    H239700   0.024   2.757  19.710  1.5815  0.0410 -1.2835
 5169TIP3   OH239701   2.448   5.421  19.078  0.1697  0.0156  0.0997
 5169TIP3    H139702   2.428   5.458  18.992 -0.9353  0.3038  0.4608
 5169TIP3    H239703   2.513   5.480  19.116 -0.2753  0.6045 -0.0364
 5170TIP3   OH239704   3.381   5.878  18.197  0.6714 -0.8781 -0.3832
 5170TIP3    H139705   3.445   5.807  18.196  1.3780 -0.2408 -0.7580
 5170TIP3    H239706   3.376   5.908  18.107  0.2635 -0.5522 -0.2560
 5171TIP3   OH239707   4.240   3.334  17.310 -0.4200  0.0462  0.7144
 5171TIP3    H139708   4.257   3.281  17.232  0.0505  1.7578 -0.3992
 5171TIP3    H239709   4.326   3.347  17.350  0.0627  2.7801 -0.9683
 5172TIP3   OH239710   0.766   4.003  21.328 -0.5209 -0.5272 -0.1744
 5172TIP3    H139711   0.817   3.925  21.350  1.7649  0.4162 -1.7098
 5172TIP3    H239712   0.827   4.076  21.339 -1.7123  0.7447 -1.4872
 5173TIP3   OH239713   1.877   6.310  20.163  0.3277 -0.2754 -0.0700
 5173TIP3    H139714   1.821   6.362  20.106  0.5611  0.4713  0.3662
 5173TIP3    H239715   1.879   6.223  20.123 -0.3732 -0.0490 -0.5983
 5174TIP3   OH239716   3.152   6.095  18.618  0.3086  0.2417 -0.6468
 5174TIP3    H139717   3.189   6.020  18.665  0.6052  1.1936  0.6968
 5174TIP3    H239718   3.206   6.102  18.539  0.5318 -0.7141 -0.5916
 5175TIP3   OH239719   4.216   2.343  20.421  0.2581  0.1952 -0.4007
 5175TIP3    H139720   4.226   2.374  20.331  2.8869 -0.3638 -0.3607
 5175TIP3    H239721   4.277   2.396  20.472  1.0250 -1.5173  0.5292
 5176TIP3   OH239722   1.527   4.883  20.480  0.0168  0.2313 -0.6801
 5176TIP3    H139723   1.602   4.928  20.520  0.7808 -1.1258 -0.5173
 5176TIP3    H239724   1.457   4.948  20.480 -0.2037  0.2576  3.3029
 5177TIP3   OH239725   1.668   0.080  19.350  0.6202 -0.1398  0.2604
 5177TIP3    H139726   1.613   0.036  19.286  0.5530  0.0686  0.1743
 5177TIP3    H239727   1.754   0.087  19.308  0.9123 -1.1075  0.6696
 5178TIP3   OH239728   0.490   5.975  21.120 -0.0118 -0.4233 -0.3630
 5178TIP3    H139729   0.546   6.009  21.049 -0.7823  2.1634  0.1612
 5178TIP3    H239730   0.551   5.954  21.191  0.4483  1.2769 -0.2090
 5179TIP3   OH239731   1.087   4.320  18.378 -0.2208 -0.2342  0.3870
 5179TIP3    H139732   1.003   4.318  18.332  0.1807  0.3684 -0.3944
 5179TIP3    H239733   1.064   4.304  18.470 -0.8373 -3.6883 -0.2157
 5180TIP3   OH239734   6.353   3.039  18.924 -0.3033  0.5293  0.2781
 5180TIP3    H139735   6.301   3.073  18.997  0.0035  0.0059  0.7441
 5180TIP3    H239736   6.440   3.024  18.961 -0.0278  0.6620 -0.3048
 5181TIP3   OH239737   5.111   1.193  18.107  0.4553 -0.4469 -0.4446
 5181TIP3    H139738   5.147   1.163  18.024  0.3844 -0.5785 -0.4284
 5181TIP3    H239739   5.070   1.115  18.145 -1.1834  0.0246 -1.1645
 5182TIP3   OH239740   3.810   4.109  18.365  0.4180  0.4579  0.1365
 5182TIP3    H139741   3.751   4.158  18.422 -0.0650  0.5283 -0.4148
 5182TIP3    H239742   3.897   4.144  18.385  0.1135  1.3317 -0.0425
 5183TIP3   OH239743   4.321   0.718  18.966  0.5715  0.6828 -0.0673
 5183TIP3    H139744   4.390   0.652  18.967 -0.4047 -0.4975 -2.4659
 5183TIP3    H239745   4.360   0.793  18.921  1.1277  1.1160  1.0967
 5184TIP3   OH239746   5.218   0.588  19.911  1.0998  0.0381 -0.5910
 5184TIP3    H139747   5.217   0.537  19.991  0.3496 -0.4223 -0.8789
 5184TIP3    H239748   5.134   0.568  19.869  1.2445  0.6976 -1.2186
 5185TIP3   OH239749   3.570   3.627  18.716  0.5349 -0.0070 -0.0591
 5185TIP3    H139750   3.593   3.596  18.804  0.4655  0.7229  0.2185
 5185TIP3    H239751   3.493   3.575  18.692  0.9277 -0.6544  0.0482
 5186TIP3   OH239752   3.047   3.882  21.336 -0.5508 -0.0548 -0.5165
 5186TIP3    H139753   2.960   3.844  21.348 -0.0968 -1.3425 -1.0913
 5186TIP3    H239754   3.091   3.822  21.275  0.9743  0.1784  0.3128
 5187TIP3   OH239755   1.017   5.365  19.442  0.9936  0.2702  0.4390
 5187TIP3    H139756   1.100   5.390  19.482  0.8473  1.4728  0.0267
 5187TIP3    H239757   0.951   5.414  19.493  0.7876  1.6830 -1.1062
 5188TIP3   OH239758   6.365   5.847  20.347  0.0083 -0.2220 -0.0922
 5188TIP3    H139759   6.455   5.841  20.315  0.1725  0.8949  0.1401
 5188TIP3    H239760   6.372   5.895  20.430 -0.6323 -1.4416  0.7012
 5189TIP3   OH239761   5.591   0.344  21.333 -0.1157 -0.2963 -0.1056
 5189TIP3    H139762   5.523   0.278  21.328  0.1578 -1.0312  3.4214
 5189TIP3    H239763   5.544   0.426  21.347 -0.3405 -0.3371 -0.6057
 5190TIP3   OH239764   5.024   2.179  18.489 -0.4298 -0.1949  0.0027
 5190TIP3    H139765   4.949   2.237  18.499 -0.6159 -0.6139  1.2627
 5190TIP3    H239766   5.014   2.115  18.559  1.3633  0.0248  0.5101
 5191TIP3   OH239767   5.692   4.543  18.712  0.0092 -0.6735  0.2215
 5191TIP3    H139768   5.665   4.602  18.783  0.9617 -0.5603  0.5133
 5191TIP3    H239769   5.787   4.553  18.708  0.0715 -1.4168 -0.4264
 5192TIP3   OH239770   0.644   0.659  18.914 -0.4966 -0.2674  0.1469
 5192TIP3    H139771   0.616   0.672  19.004 -2.6417 -2.5400 -0.1067
 5192TIP3    H239772   0.626   0.743  18.871  0.9524  0.9816  1.8594
 5193TIP3   OH239773   2.412   3.933  19.674  0.2717  0.4486  0.5620
 5193TIP3    H139774   2.450   3.852  19.640  0.9832  0.5212  1.1526
 5193TIP3    H239775   2.319   3.916  19.681  0.5326 -0.6403  1.5736
 5194TIP3   OH239776   3.940   4.845  20.407 -0.1030  0.6155 -0.5224
 5194TIP3    H139777   4.025   4.887  20.420 -0.1939  0.5840  0.1989
 5194TIP3    H239778   3.882   4.917  20.381  0.0795  0.6840 -0.7477
 5195TIP3   OH239779   0.522   3.596  20.491 -0.1610  0.4029 -0.2147
 5195TIP3    H139780   0.544   3.677  20.445  0.9576 -0.9573 -2.2010
 5195TIP3    H239781   0.546   3.526  20.431 -1.7163 -1.4380  1.1594
 5196TIP3   OH239782   4.830   5.083  18.169  0.4890  0.0819 -0.1720
 5196TIP3    H139783   4.826   5.163  18.116 -0.1094  0.3441  0.2563
 5196TIP3    H239784   4.920   5.053  18.160 -0.1584 -1.2939 -3.3847
 5197TIP3   OH239785   2.378   4.169  19.454  0.4430 -0.0221 -0.0371
 5197TIP3    H139786   2.465   4.135  19.476  1.1889  1.6859 -0.1696
 5197TIP3    H239787   2.395   4.259  19.425 -1.3291  0.1755 -0.5324
 5198TIP3   OH239788   2.528   4.923  17.555  0.4381 -0.0835  0.2075
 5198TIP3    H139789   2.613   4.906  17.594  1.0307  3.4822  0.8645
 5198TIP3    H239790   2.548   4.963  17.470 -0.7005 -1.4141 -0.7435
 5199TIP3   OH239791   5.206   1.818  18.750 -0.2027  0.8765 -0.1815
 5199TIP3    H139792   5.238   1.809  18.660  0.3596  0.5368  0.0461
 5199TIP3    H239793   5.197   1.728  18.781  2.4975  0.9484  1.0856
 5200TIP3   OH239794   4.995   4.509  18.904 -0.7098  0.6704 -0.2468
 5200TIP3    H139795   4.963   4.522  18.815 -0.4376  0.8172 -0.3239
 5200TIP3    H239796   5.034   4.593  18.928 -0.5225  0.5428 -0.0978
 5201TIP3   OH239797   1.835   0.678  19.707  0.2682 -0.8217  0.5424
 5201TIP3    H139798   1.926   0.665  19.733  0.2083  0.5319  1.5555
 5201TIP3    H239799   1.792   0.710  19.786 -0.7628 -0.0761 -0.2925
 5202TIP3   OH239800   4.895   2.526  19.075  0.1172 -0.4725 -0.2814
 5202TIP3    H139801   4.814   2.492  19.111  0.5383  0.3834  1.5831
 5202TIP3    H239802   4.956   2.452  19.076  0.4857 -0.1968  2.0126
 5203TIP3   OH239803   0.559   5.358  19.667 -0.3796 -0.0833 -0.3326
 5203TIP3    H139804   0.511   5.435  19.637 -1.7929 -0.8709 -0.1961
 5203TIP3    H239805   0.496   5.310  19.721  0.8984 -0.6445  0.7140
 5204TIP3   OH239806   1.334   2.686  21.309  0.4057 -0.1790 -0.2986
 5204TIP3    H139807   1.314   2.607  21.359  0.0740 -0.2899 -0.6035
 5204TIP3    H239808   1.428   2.699  21.321  0.7877 -1.5213 -1.5222
 5205TIP3   OH239809   2.804   3.857  20.978 -0.3379  0.2075 -0.3244
 5205TIP3    H139810   2.834   3.891  20.894  3.1356  2.2012  1.4724
 5205TIP3    H239811   2.863   3.783  20.996  1.9696  2.3870  2.0085
 5206TIP3   OH239812   5.486   0.847  20.388  0.5951  0.4201  0.0373
 5206TIP3    H139813   5.538   0.783  20.436  0.1673 -1.2638 -1.6256
 5206TIP3    H239814   5.397   0.811  20.389  0.1564  1.4550 -0.1820
 5207TIP3   OH239815   1.811   4.856  19.782 -0.0548  0.2573 -0.0053
 5207TIP3    H139816   1.764   4.848  19.864 -0.3758  0.4123 -0.1735
 5207TIP3    H239817   1.763   4.923  19.733 -0.3267 -0.3858 -0.6343
 5208TIP3   OH239818   0.432   2.627  18.596  0.2418  0.0361  0.0552
 5208TIP3    H139819   0.468   2.570  18.528  1.3878 -1.4189  1.7974
 5208TIP3    H239820   0.508   2.654  18.648 -0.4697  1.9699  0.1811
 5209TIP3   OH239821   0.216   3.856  18.575 -0.4666  0.1394 -0.6253
 5209TIP3    H139822   0.135   3.878  18.620  0.2511  1.4467  0.0938
 5209TIP3    H239823   0.282   3.851  18.645  0.2332 -0.0492 -1.2827
 5210TIP3   OH239824   3.941   6.408  19.874  0.8683  0.4951 -0.1320
 5210TIP3    H139825   3.916   6.386  19.963  0.2975  0.2371 -0.3477
 5210TIP3    H239826   3.923   6.501  19.865  1.2101  0.5845  0.1134
 5211TIP3   OH239827   5.344   2.547  21.357 -0.3884  0.3408 -0.4034
 5211TIP3    H139828   5.345   2.539  21.453 -2.3574 -1.0162 -0.4400
 5211TIP3    H239829   5.366   2.639  21.341  1.5643  0.2384  1.2404
 5212TIP3   OH239830   2.855   3.842  19.751 -0.9581  0.5385 -0.8334
 5212TIP3    H139831   2.819   3.925  19.718  0.5342  0.4583 -2.8266
 5212TIP3    H239832   2.784   3.779  19.738 -1.3774  1.0925 -1.2928
 5213TIP3   OH239833   4.332   1.069  20.283 -0.1268  0.0408 -0.2035
 5213TIP3    H139834   4.282   1.095  20.360 -1.3630 -2.1356 -0.2039
 5213TIP3    H239835   4.423   1.065  20.314 -0.4962 -0.0039  0.9186
 5214TIP3   OH239836   5.161   3.113  18.421  0.4135 -0.2669 -0.5223
 5214TIP3    H139837   5.213   3.042  18.382  0.8696 -1.0025  1.3127
 5214TIP3    H239838   5.076   3.107  18.378  0.6595 -1.5086 -0.8841
 5215TIP3   OH239839   2.492   3.526  18.664 -0.2013  0.2706  0.2058
 5215TIP3    H139840   2.553   3.455  18.686  0.6530  1.1381  0.7240
 5215TIP3    H239841   2.424   3.521  18.731 -0.4711 -0.4185 -0.1078
 5216TIP3   OH239842   1.938   0.110  19.809 -0.2194  0.3017 -0.0535
 5216TIP3    H139843   1.883   0.032  19.799 -0.4926  0.4065  0.5858
 5216TIP3    H239844   1.887   0.180  19.767 -0.6033  0.4093  0.5860
 5217TIP3   OH239845   4.381   5.771  20.482 -0.7031  0.0415 -0.6865
 5217TIP3    H139846   4.408   5.862  20.496 -2.1707  0.2211  1.5238
 5217TIP3    H239847   4.318   5.775  20.411  0.4624  0.4719 -1.7342
 5218TIP3   OH239848   3.852   0.483  19.530 -0.5487  0.3218 -0.3252
 5218TIP3    H139849   3.766   0.440  19.535  0.4689 -2.1375 -2.0535
 5218TIP3    H239850   3.886   0.457  19.444  1.5053  2.1417 -0.1366
 5219TIP3   OH239851   0.437   1.767  20.086  0.2137  0.1403 -0.3688
 5219TIP3    H139852   0.480   1.682  20.099  0.5093  0.1245 -1.3931
 5219TIP3    H239853   0.344   1.748  20.094  0.1547 -0.6576 -2.3785
 5220TIP3   OH239854   0.394   2.673  21.392  0.4543  0.7484  0.5573
 5220TIP3    H139855   0.336   2.599  21.375  0.6129  0.5966  0.6624
 5220TIP3    H239856   0.470   2.658  21.335 -0.2448  1.7195 -0.6819
 5221TIP3   OH239857   1.266   6.601  20.071 -0.1943  0.2005  0.1289
 5221TIP3    H139858   1.360   6.615  20.075 -0.1875 -0.0443  1.0494
 5221TIP3    H239859   1.233   6.674  20.018  0.4347  0.6660  0.3646
 5222TIP3   OH239860   0.315   0.250  19.163  0.5143  0.1451 -0.5557
 5222TIP3    H139861   0.296   0.186  19.232 -0.0092  0.8177 -0.0672
 5222TIP3    H239862   0.237   0.247  19.107 -0.1345  1.3605  0.2521
 5223TIP3   OH239863   4.744   4.180  20.634 -0.0893 -0.1107  0.0667
 5223TIP3    H139864   4.735   4.261  20.684  0.1012  0.7233 -1.2131
 5223TIP3    H239865   4.790   4.206  20.554 -0.1167 -1.4635 -0.4151
 5224TIP3   OH239866   1.374   5.123  20.482 -0.5033  0.1198  0.0961
 5224TIP3    H139867   1.342   5.134  20.571 -1.0899  1.3137 -0.2467
 5224TIP3    H239868   1.331   5.192  20.432  0.8594  0.3346 -0.8350
 5225TIP3   OH239869   5.823   3.559  19.498  0.4484  0.0178  0.0679
 5225TIP3    H139870   5.781   3.551  19.412 -1.5725  1.3317  0.8442
 5225TIP3    H239871   5.758   3.524  19.559  0.9311  1.0784  1.2288
 5226TIP3   OH239872   5.198   4.631  20.852  0.1262  0.0444  0.1170
 5226TIP3    H139873   5.150   4.647  20.934 -2.3888 -0.0492 -1.2282
 5226TIP3    H239874   5.181   4.539  20.832  0.6476  0.0871 -0.5561
 5227TIP3   OH239875   1.897   3.318  20.184  0.3371  0.2150 -0.1589
 5227TIP3    H139876   1.878   3.405  20.220  1.9271  0.8699 -0.8276
 5227TIP3    H239877   1.992   3.315  20.178  0.3161 -1.6208 -0.0939
 5228TIP3   OH239878   5.381   5.545  21.033  0.2354  0.3273  0.4637
 5228TIP3    H139879   5.475   5.557  21.019  0.3037  0.5141  1.0539
 5228TIP3    H239880   5.339   5.600  20.967  0.5086 -1.8922 -1.6947
 5229TIP3   OH239881   2.432   3.054  20.664 -0.0569 -0.2127  0.7066
 5229TIP3    H139882   2.486   2.985  20.625  0.1035 -0.4268  1.2984
 5229TIP3    H239883   2.470   3.135  20.631  0.1569 -0.3849  0.5215
 5230TIP3   OH239884   0.759   1.502  18.873 -0.5138 -0.5001 -0.5347
 5230TIP3    H139885   0.707   1.583  18.873 -1.0632 -0.7391  2.6218
 5230TIP3    H239886   0.695   1.432  18.861 -0.6696 -0.6543  0.9784
 5231TIP3   OH239887   4.006   3.897  20.441 -0.3289  0.2459 -0.1743
 5231TIP3    H139888   4.049   3.902  20.355  0.5076 -2.1245  0.0122
 5231TIP3    H239889   3.940   3.828  20.431  1.7014 -2.1821  1.7211
 5232TIP3   OH239890   1.073   3.352  18.387 -0.1311 -0.3444 -0.2652
 5232TIP3    H139891   0.996   3.408  18.392 -0.2521 -0.5168 -0.1990
 5232TIP3    H239892   1.124   3.387  18.314 -0.4796 -0.4949 -0.5786
 5233TIP3   OH239893   2.482   6.230  20.397  0.6389 -0.3514  0.4403
 5233TIP3    H139894   2.499   6.272  20.481 -1.3931  0.1805  0.6573
 5233TIP3    H239895   2.426   6.155  20.418 -0.2653  0.0437 -0.4459
 5234TIP3   OH239896   1.027   2.054  21.247  0.4047 -0.3214 -0.2674
 5234TIP3    H139897   1.092   2.099  21.193  0.1816  0.1561 -0.1429
 5234TIP3    H239898   1.059   1.964  21.252  0.4428 -0.3677 -1.1692
 5235TIP3   OH239899   1.064   6.042  19.348 -0.3781 -0.0895  0.2460
 5235TIP3    H139900   0.995   6.089  19.301 -0.3206 -1.8045 -1.7334
 5235TIP3    H239901   1.084   5.967  19.292  1.8468 -0.6410  1.6343
 5236TIP3   OH239902   3.079   2.365  20.937  0.0483 -0.6069 -0.1929
 5236TIP3    H139903   3.086   2.413  20.854  3.0956 -0.9973 -0.2631
 5236TIP3    H239904   3.047   2.279  20.913 -1.8854  0.1589 -0.5353
 5237TIP3   OH239905   0.249   6.619  19.356  0.0788  0.3035  0.4370
 5237TIP3    H139906   0.178   6.582  19.304 -0.0696 -0.9870  1.4824
 5237TIP3    H239907   0.329   6.578  19.322 -0.1926 -2.0983  2.3664
 5238TIP3   OH239908   4.428   1.004  19.241 -0.2334  0.4737  0.0591
 5238TIP3    H139909   4.415   1.054  19.161  0.9679 -0.8654 -1.0298
 5238TIP3    H239910   4.522   0.988  19.245 -0.5785 -2.1961 -0.0536
 5239TIP3   OH239911   0.277   5.043  20.072  0.3230 -0.1389  0.2185
 5239TIP3    H139912   0.247   5.130  20.047  2.3631  0.9370  1.2400
 5239TIP3    H239913   0.242   5.029  20.160  1.8103  0.6554  0.9708
 5240TIP3   OH239914   1.817   3.442  20.762 -0.2757 -0.5891  0.2944
 5240TIP3    H139915   1.776   3.453  20.677 -1.0847 -1.0135  0.6268
 5240TIP3    H239916   1.907   3.416  20.742 -0.1973  0.2041 -0.4296
 5241TIP3   OH239917   6.112   3.212  20.649  0.7734  0.2641  0.0493
 5241TIP3    H139918   6.101   3.153  20.574  1.5636  0.5196 -0.2749
 5241TIP3    H239919   6.145   3.293  20.611  1.3329  0.3463  0.6847
 5242TIP3   OH239920   2.001   2.103  18.142  0.0002  0.8427  0.2655
 5242TIP3    H139921   1.977   2.022  18.186 -0.9907 -0.3806 -2.2689
 5242TIP3    H239922   2.082   2.132  18.184  1.7484 -2.7759 -0.2587
 5243TIP3   OH239923   4.504   1.056  18.291 -0.3406 -0.3760 -0.3233
 5243TIP3    H139924   4.474   1.141  18.258  0.4467  0.0756  0.1095
 5243TIP3    H239925   4.437   0.994  18.260 -1.6232  0.5724  0.4297
 5244TIP3   OH239926   4.888   6.284  20.418 -0.1750  0.0942  0.0926
 5244TIP3    H139927   4.963   6.240  20.458 -0.2373 -0.7790 -0.7131
 5244TIP3    H239928   4.830   6.305  20.491  1.4598  2.0443  0.9122
 5245TIP3   OH239929   6.367   6.540  19.108 -0.6168  0.0870  0.3010
 5245TIP3    H139930   6.293   6.569  19.055  0.3764  0.6035 -0.8748
 5245TIP3    H239931   6.344   6.453  19.138 -1.0472 -0.3881 -1.3517
 5246TIP3   OH239932   4.190   3.883  19.720  0.2780  0.0694 -0.4263
 5246TIP3    H139933   4.219   3.906  19.631  0.3710 -1.4785 -0.8272
 5246TIP3    H239934   4.142   3.801  19.709  1.0098 -0.5984  1.0710
 5247TIP3   OH239935   3.814   4.774  18.615 -0.0918 -0.5721 -0.6001
 5247TIP3    H139936   3.730   4.821  18.615 -0.6208 -1.4831 -0.9744
 5247TIP3    H239937   3.879   4.840  18.638 -0.9386  0.1114 -0.1314
 5248TIP3   OH239938   3.882   2.462  17.713 -0.4735 -0.7169  0.0252
 5248TIP3    H139939   3.949   2.440  17.778  1.2257  0.6870 -1.1331
 5248TIP3    H239940   3.808   2.405  17.733  0.7548 -1.7330  1.9040
 5249TIP3   OH239941   2.589   1.147  21.036 -0.6040  0.4653  0.0157
 5249TIP3    H139942   2.546   1.200  20.969  0.6162  2.2960  0.5792
 5249TIP3    H239943   2.518   1.112  21.088 -1.4946  1.3056 -0.5860
 5250TIP3   OH239944   1.288   2.778  19.017 -0.4972  0.1327 -0.2573
 5250TIP3    H139945   1.369   2.827  19.034 -0.6353  0.2127  0.1842
 5250TIP3    H239946   1.271   2.792  18.924 -1.1346  1.8583  0.0718
 5251TIP3   OH239947   5.879   6.555  20.826 -0.6003 -0.0266 -0.0847
 5251TIP3    H139948   5.906   6.581  20.915 -2.2471 -0.1564  0.4863
 5251TIP3    H239949   5.935   6.481  20.805  0.1224  0.2825  0.6638
 5252TIP3   OH239950   4.456   3.068  18.818 -0.0384 -0.4112 -0.9730
 5252TIP3    H139951   4.545   3.034  18.825 -0.1334 -0.3693  1.0548
 5252TIP3    H239952   4.401   2.990  18.809 -0.0443 -0.6979  1.1446
 5253TIP3   OH239953   0.222   4.619  19.193  0.2471  0.0393  0.4346
 5253TIP3    H139954   0.210   4.525  19.209 -3.0991  0.3732  0.6718
 5253TIP3    H239955   0.148   4.660  19.238  0.6421  2.6360 -1.1083
 5254TIP3   OH239956   6.251   1.557  20.347  0.0317 -0.1283  0.1293
 5254TIP3    H139957   6.344   1.547  20.328  0.0793  0.5293 -0.0329
 5254TIP3    H239958   6.235   1.651  20.337 -0.5647 -0.1797  0.5330
 5255TIP3   OH239959   0.223   1.884  19.094 -0.4609 -0.3189 -0.2390
 5255TIP3    H139960   0.271   1.961  19.063 -0.1885 -1.2022 -2.1200
 5255TIP3    H239961   0.132   1.911  19.094 -0.3033  0.2294 -0.1756
 5256TIP3   OH239962   2.039   0.298  18.342  0.5888 -0.3231 -0.5538
 5256TIP3    H139963   2.065   0.302  18.250 -0.1181  0.8814 -0.7165
 5256TIP3    H239964   1.963   0.355  18.348 -1.1732 -2.5938  0.1877
 5257TIP3   OH239965   2.240   2.172  18.300 -0.0889 -0.3003  0.3337
 5257TIP3    H139966   2.220   2.079  18.306 -0.0036 -0.5634 -2.5329
 5257TIP3    H239967   2.322   2.177  18.251  0.9244  1.2558  2.0362
 5258TIP3   OH239968   2.334   0.533  19.035 -0.2879 -0.0244 -0.6998
 5258TIP3    H139969   2.391   0.524  18.959 -0.3200  0.8918 -0.8393
 5258TIP3    H239970   2.253   0.487  19.009  0.3930 -1.4148 -0.4574
 5259TIP3   OH239971   1.138   0.804  21.098 -0.0980  0.7295  0.0530
 5259TIP3    H139972   1.099   0.724  21.062 -0.4730  1.3244 -0.9171
 5259TIP3    H239973   1.232   0.796  21.079  0.2435 -0.4918  1.9779
 5260TIP3   OH239974   6.544   3.633  20.716 -0.2638 -0.4398  0.1991
 5260TIP3    H139975   6.608   3.573  20.755 -1.6971  0.0779  3.7406
 5260TIP3    H239976   6.596   3.707  20.685  0.9922 -0.3194  2.3775
 5261TIP3   OH239977   5.458   0.767  20.913  0.5611  0.2584  0.1978
 5261TIP3    H139978   5.492   0.705  20.978  1.1890  0.0909 -0.2859
 5261TIP3    H239979   5.384   0.721  20.873  0.7841 -0.0240  0.1070
 5262TIP3   OH239980   5.212   2.915  18.223  0.7941 -0.0542 -0.0735
 5262TIP3    H139981   5.164   2.832  18.228 -0.5000  0.7105  0.6343
 5262TIP3    H239982   5.303   2.891  18.242 -0.0058 -0.9133  3.3946
 5263TIP3   OH239983   6.492   1.725  20.523 -0.3316  0.4441  0.2091
 5263TIP3    H139984   6.485   1.658  20.592  1.4287  0.5371  0.5302
 5263TIP3    H239985   6.401   1.750  20.505 -0.8950 -0.2209  1.8630
 5264TIP3   OH239986   5.654   3.159  19.219  0.6758 -0.3112  0.1836
 5264TIP3    H139987   5.647   3.144  19.313 -0.5617  0.2657  0.2131
 5264TIP3    H239988   5.612   3.083  19.179 -0.6928  0.4025  0.1847
 5265TIP3   OH239989   2.042   4.494  18.482  0.1756  0.0191 -0.5646
 5265TIP3    H139990   2.100   4.568  18.462 -0.5614  0.2158 -2.0945
 5265TIP3    H239991   1.960   4.534  18.509  0.7317 -0.2596  1.7694
 5266TIP3   OH239992   2.069   5.052  20.578  0.4148  0.0128  0.3480
 5266TIP3    H139993   2.097   4.987  20.514 -0.2813 -0.6365  0.6830
 5266TIP3    H239994   2.135   5.120  20.574  0.0041  0.3415 -1.5778
 5267TIP3   OH239995   0.535   1.713  20.466  0.0373  0.3114 -0.0816
 5267TIP3    H139996   0.576   1.777  20.408  0.2244  1.2821  1.0887
 5267TIP3    H239997   0.442   1.733  20.462  0.1600  1.1298  0.8051
 5268TIP3   OH239998   0.880   3.554  18.336 -0.5851 -0.1472 -0.0525
 5268TIP3    H139999   0.785   3.557  18.333 -0.6567  0.5104  1.6649
 5268TIP3    H240000   0.908   3.593  18.252 -1.8190  0.3948 -0.2327
 5269TIP3   OH240001   3.435   3.363  17.992  0.5989  0.0370  0.1508
 5269TIP3    H140002   3.527   3.337  17.995  1.0121  0.4791 -3.7989
 5269TIP3    H240003   3.427   3.419  17.915 -3.4237 -2.2834 -1.5065
 5270TIP3   OH240004   3.155   4.627  20.914  0.9203 -0.1809  0.3825
 5270TIP3    H140005   3.193   4.598  20.997  1.0818  1.0336  0.7599
 5270TIP3    H240006   3.083   4.685  20.940 -0.0655 -1.0453 -0.3308
 5271TIP3   OH240007   4.270   2.835  18.776  0.4540 -0.1705  0.2923
 5271TIP3    H140008   4.290   2.742  18.771  0.5070 -0.6372  4.8200
 5271TIP3    H240009   4.175   2.839  18.787  0.4860  0.2661  0.4232
 5272TIP3   OH240010   4.103   1.029  19.019 -0.5334  0.6822  0.1609
 5272TIP3    H140011   4.037   1.044  18.951 -0.7987 -0.8212  0.0567
 5272TIP3    H240012   4.105   0.934  19.030  1.2423  0.7265  0.5384
 5273TIP3   OH240013   3.663   0.243  20.128 -0.1586  0.2245  0.1688
 5273TIP3    H140014   3.612   0.288  20.061 -0.0325 -1.3731 -1.0502
 5273TIP3    H240015   3.654   0.150  20.107  2.0936 -0.1845  0.7726
 5274TIP3   OH240016   3.708   0.380  20.707  0.0582  0.3376 -0.0822
 5274TIP3    H140017   3.688   0.289  20.731  0.2451 -0.0397 -1.3058
 5274TIP3    H240018   3.783   0.373  20.648  0.1433  1.3023 -0.0974
 5275TIP3   OH240019   0.312   2.737  18.976  0.7611  0.2988 -0.0508
 5275TIP3    H140020   0.255   2.682  19.030 -0.8223  1.1701 -0.7656
 5275TIP3    H240021   0.282   2.721  18.887  1.7879  0.6446 -0.4677
 5276TIP3   OH240022   5.771   2.883  18.848  0.5018  0.3284  0.1518
 5276TIP3    H140023   5.763   2.884  18.944 -2.0415 -0.8063  0.0149
 5276TIP3    H240024   5.691   2.925  18.817  0.7838 -0.2990 -1.5042
 5277TIP3   OH240025   2.051   4.939  20.071 -0.1708 -0.6296 -0.6341
 5277TIP3    H140026   2.030   4.989  20.149 -0.7498 -0.7122 -0.7319
 5277TIP3    H240027   2.114   4.993  20.024  0.1533 -0.5647 -0.1285
 5278TIP3   OH240028   1.984   4.500  17.378  0.5367  0.1606 -0.5119
 5278TIP3    H140029   2.016   4.459  17.459 -0.5364  1.1871  0.4674
 5278TIP3    H240030   2.008   4.438  17.309  0.7388 -1.1506  0.6881
 5279TIP3   OH240031   2.572   0.401  17.660  0.2370 -0.3827 -0.2632
 5279TIP3    H140032   2.667   0.396  17.646  0.0640  0.5798 -2.1118
 5279TIP3    H240033   2.553   0.494  17.662 -0.6935 -0.5706 -0.0188
 5280TIP3   OH240034   6.338   5.544  21.375  0.1321 -0.0074  0.4565
 5280TIP3    H140035   6.313   5.470  21.432  2.4508  0.8008  2.7561
 5280TIP3    H240036   6.433   5.536  21.368 -0.0176  0.1397 -3.2325
 5281TIP3   OH240037   6.498   0.511  21.122 -0.3388  0.0228 -0.3634
 5281TIP3    H140038   6.432   0.448  21.090  1.8071 -1.3262 -2.4620
 5281TIP3    H240039   6.559   0.457  21.172  0.4730  0.8146 -0.4944
 5282TIP3   OH240040   4.513   2.482  21.054  0.5417  0.5919  0.2476
 5282TIP3    H140041   4.555   2.398  21.071 -0.7719 -0.0056  0.6294
 5282TIP3    H240042   4.511   2.526  21.138 -2.4132 -0.7351  1.0165
 5283TIP3   OH240043   2.723   4.646  19.853 -0.2086  0.4379 -0.1902
 5283TIP3    H140044   2.784   4.647  19.927 -1.6340  0.8566  1.0377
 5283TIP3    H240045   2.711   4.738  19.831  1.1366  0.2790 -1.8066
 5284TIP3   OH240046   1.540   1.158  18.936  0.2585  0.4959 -0.2411
 5284TIP3    H140047   1.530   1.069  18.903  1.6552  0.6120 -1.0551
 5284TIP3    H240048   1.511   1.214  18.864 -4.1368  0.8122  1.4367
 5285TIP3   OH240049   6.468   4.033  19.269  0.7710  0.2923  0.3351
 5285TIP3    H140050   6.541   3.984  19.306  0.9215  0.4226  0.2131
 5285TIP3    H240051   6.398   3.969  19.258  1.3906 -0.1741 -1.0393
 5286TIP3   OH240052   4.090   5.430  19.760  0.2375  0.3211 -0.1751
 5286TIP3    H140053   4.128   5.395  19.679 -0.1447  1.7620 -1.0033
 5286TIP3    H240054   4.109   5.523  19.758  0.3085  0.3846  1.4730
 5287TIP3   OH240055   3.594   2.221  20.212  0.0217 -0.3790 -0.1199
 5287TIP3    H140056   3.667   2.199  20.270  0.3122  0.1142 -0.2951
 5287TIP3    H240057   3.632   2.224  20.124 -0.3288 -0.6938 -0.2907
 5288TIP3   OH240058   4.811   5.687  20.942  0.4281 -0.3846 -0.1517
 5288TIP3    H140059   4.722   5.695  20.906  0.6377 -0.6890 -0.7498
 5288TIP3    H240060   4.820   5.763  20.999  0.1203  0.1672 -0.8218
 5289TIP3   OH240061   1.452   0.211  21.288 -0.3081 -0.4188 -0.2339
 5289TIP3    H140062   1.385   0.143  21.283 -1.0652  0.3759 -0.9328
 5289TIP3    H240063   1.535   0.162  21.283 -0.8097 -1.3928  0.5512
 5290TIP3   OH240064   1.146   0.699  18.240 -0.5879  0.2880 -0.7603
 5290TIP3    H140065   1.106   0.618  18.208 -0.1599 -0.0180 -0.5364
 5290TIP3    H240066   1.089   0.727  18.312 -0.8147  0.2626 -0.9292
 5291TIP3   OH240067   5.439   4.351  20.307  0.0540 -0.1941  0.1701
 5291TIP3    H140068   5.475   4.290  20.243 -0.1856  0.7019 -0.8372
 5291TIP3    H240069   5.498   4.426  20.306 -0.3465  0.1323  0.4806
 5292TIP3   OH240070   4.973   6.216  19.106  0.0042  0.3747  0.0696
 5292TIP3    H140071   4.968   6.152  19.177  1.1068 -0.6047 -0.6971
 5292TIP3    H240072   5.063   6.208  19.073 -0.3914  1.0360 -1.2218
 5293TIP3   OH240073   1.944   1.848  18.922  0.3655 -0.4175 -0.2330
 5293TIP3    H140074   2.021   1.902  18.940  0.3153 -0.5263  0.3150
 5293TIP3    H240075   1.903   1.836  19.007  0.5783 -1.6304 -0.2910
 5294TIP3   OH240076   3.632   2.552  18.198 -0.4351  0.6634 -0.6470
 5294TIP3    H140077   3.687   2.552  18.276  0.0527 -1.4126 -0.9308
 5294TIP3    H240078   3.635   2.462  18.166 -2.1910  1.0046 -1.9697
 5295TIP3   OH240079   2.022   2.251  21.220  0.0766  0.0184  1.0756
 5295TIP3    H140080   2.072   2.192  21.163  2.1638  0.6650  2.1408
 5295TIP3    H240081   1.969   2.303  21.160  2.4978  0.9725 -0.4212
 5296TIP3   OH240082   2.099   0.657  19.817 -0.7548 -0.4532 -0.6756
 5296TIP3    H140083   2.087   0.602  19.894 -0.5514 -1.5106 -1.3831
 5296TIP3    H240084   2.184   0.700  19.831 -1.7846  1.2599  0.8010
 5297TIP3   OH240085   2.790   1.610  19.818  0.2184  0.4337 -0.1247
 5297TIP3    H140086   2.873   1.576  19.850 -0.0435 -0.3052 -0.2188
 5297TIP3    H240087   2.813   1.666  19.744  0.6920  0.8644  0.3440
 5298TIP3   OH240088   3.837   4.218  21.190 -0.0456 -0.2330 -0.4796
 5298TIP3    H140089   3.910   4.219  21.252 -0.6068  3.4058  0.3903
 5298TIP3    H240090   3.866   4.161  21.119  2.0530 -1.8143  1.5104
 5299TIP3   OH240091   3.915   2.337  19.067  0.1584 -0.0083 -0.0054
 5299TIP3    H140092   4.010   2.345  19.079  0.4836 -0.5009 -1.9150
 5299TIP3    H240093   3.891   2.414  19.016 -0.4825  0.1329  0.5027
 5300TIP3   OH240094   0.573   6.619  21.344  0.4323 -0.5171 -0.1039
 5300TIP3    H140095   0.613   6.703  21.323 -1.6132  0.2780 -1.0374
 5300TIP3    H240096   0.481   6.639  21.360 -0.0297 -2.5260  0.0315
 5301TIP3   OH240097   2.567   1.345  20.849 -0.7675 -0.7342 -0.2354
 5301TIP3    H140098   2.581   1.327  20.756 -2.1503  1.0273 -0.8620
 5301TIP3    H240099   2.654   1.351  20.886 -0.1962 -2.0106 -1.3048
 5302TIP3   OH240100   3.482   4.613  17.225 -0.7960  0.2366  0.0169
 5302TIP3    H140101   3.406   4.599  17.282 -0.3275 -0.8335  0.3970
 5302TIP3    H240102   3.486   4.708  17.214 -0.5434  0.5427  2.2715
 5303TIP3   OH240103   5.856   3.782  17.667 -0.7154  0.0478 -0.2924
 5303TIP3    H140104   5.848   3.877  17.658 -1.5345 -0.0455 -0.6300
 5303TIP3    H240105   5.869   3.768  17.761  0.2884  0.5438 -0.3505
 5304TIP3   OH240106   2.660   1.922  18.949 -0.4955 -0.3474 -0.3164
 5304TIP3    H140107   2.706   1.970  19.018 -1.6486  1.0431 -0.4702
 5304TIP3    H240108   2.704   1.837  18.946  1.5887  0.6488  0.0158
 5305TIP3   OH240109   3.230   6.464  18.229  0.6830  0.2364 -0.4868
 5305TIP3    H140110   3.222   6.560  18.233  0.1680  0.2701 -1.8022
 5305TIP3    H240111   3.250   6.438  18.319  3.0444  1.7617 -0.4583
 5306TIP3   OH240112   2.759   6.369  18.557 -0.3222 -0.6331  0.1683
 5306TIP3    H140113   2.766   6.453  18.602 -1.3909 -0.9172  0.9043
 5306TIP3    H240114   2.758   6.304  18.628  1.4227 -1.3639 -0.4137
 5307TIP3   OH240115   3.660   2.879  18.689  0.1750 -0.3830  0.1703
 5307TIP3    H140116   3.684   2.799  18.736 -0.8297 -0.4356  0.6308
 5307TIP3    H240117   3.642   2.943  18.759 -1.6569 -0.5510 -0.0863
 5308TIP3   OH240118   1.550   5.277  19.610 -0.1188 -0.4094  0.1101
 5308TIP3    H140119   1.481   5.281  19.544 -1.1905  0.6325  1.2600
 5308TIP3    H240120   1.592   5.363  19.606 -1.0391  0.1383  1.6465
 5309TIP3   OH240121   2.756   4.178  19.012  0.1765  0.5780  0.2334
 5309TIP3    H140122   2.826   4.112  19.014  0.8106  1.2332  0.2196
 5309TIP3    H240123   2.680   4.134  19.049  0.9574  0.2429  1.4997
 5310TIP3   OH240124   5.937   3.335  17.970 -0.4740  0.1873 -0.1137
 5310TIP3    H140125   6.012   3.351  17.912 -1.4485  1.8338 -0.9925
 5310TIP3    H240126   5.907   3.247  17.946  0.5805 -0.1039 -0.4236
 5311TIP3   OH240127   5.840   5.182  19.599 -0.1018 -0.3362 -0.3828
 5311TIP3    H140128   5.866   5.145  19.514  0.3041 -1.0376  0.0375
 5311TIP3    H240129   5.917   5.231  19.627  0.5179 -1.7320  0.4801
 5312TIP3   OH240130   4.606   5.767  20.620  0.5719  0.4382 -0.1084
 5312TIP3    H140131   4.676   5.727  20.567  1.3178 -0.2363  1.3346
 5312TIP3    H240132   4.527   5.753  20.568  0.7767 -2.9114  0.2504
 5313TIP3   OH240133   5.465   6.024  20.931 -0.7839 -0.0292 -0.5262
 5313TIP3    H140134   5.526   5.998  21.000 -0.7027  0.5467 -0.3780
 5313TIP3    H240135   5.434   5.941  20.894  0.2753 -0.3251 -0.7758
 5314TIP3   OH240136   4.026   0.021  20.686  0.0204 -0.4262  0.7169
 5314TIP3    H140137   4.114   0.038  20.719 -0.4866 -0.1183  1.9811
 5314TIP3    H240138   4.037  -0.049  20.623  1.2139 -0.1822  0.6351
 5315TIP3   OH240139   6.029   2.455  19.210 -0.5147  0.1673 -0.0105
 5315TIP3    H140140   6.059   2.459  19.119  1.3235  0.7390  0.5754
 5315TIP3    H240141   6.063   2.372  19.243 -2.5836 -0.8434 -0.2560
 5316TIP3   OH240142   5.582   1.499  20.166 -0.1757  0.7117 -0.0252
 5316TIP3    H140143   5.526   1.562  20.211 -1.6226 -0.1495 -0.5574
 5316TIP3    H240144   5.552   1.413  20.197  0.8932  0.2212 -0.2910
 5317TIP3   OH240145   4.265   4.988  17.673  0.1745  0.3464  0.2289
 5317TIP3    H140146   4.360   4.996  17.666  0.2837 -0.7433  0.3646
 5317TIP3    H240147   4.231   5.052  17.611  1.0300 -1.6429 -2.4522
 5318TIP3   OH240148   3.839   4.224  20.286  0.1065 -0.0528 -0.2166
 5318TIP3    H140149   3.895   4.161  20.240  1.5499  0.5315  0.6555
 5318TIP3    H240150   3.862   4.213  20.378  0.8655  2.1376 -0.0870
 5319TIP3   OH240151   5.976   4.369  20.439  0.1478 -0.2059  0.1430
 5319TIP3    H140152   6.011   4.302  20.381  1.0048  1.6034 -1.5740
 5319TIP3    H240153   5.938   4.434  20.380  0.3372  1.3315  1.6270
 5320TIP3   OH240154   4.370   4.164  18.565  0.3225  0.0584  0.1184
 5320TIP3    H140155   4.341   4.074  18.575 -0.6194  0.4176  0.8442
 5320TIP3    H240156   4.466   4.159  18.570  0.2919 -0.9201 -0.0939
 5321TIP3   OH240157   2.179   4.860  19.333  0.4544  0.1143 -0.1938
 5321TIP3    H140158   2.248   4.877  19.397  0.4531 -0.6417  0.0180
 5321TIP3    H240159   2.221   4.808  19.265 -0.4775 -2.8281  1.2988
 5322TIP3   OH240160   2.074   1.963  19.142 -0.0672  0.3891  0.3849
 5322TIP3    H140161   2.143   1.973  19.077  0.5423 -2.3387  0.4730
 5322TIP3    H240162   2.083   2.038  19.199  0.9207  1.6118 -1.2890
 5323TIP3   OH240163   3.738   5.952  19.305 -0.6014  0.3311 -0.1751
 5323TIP3    H140164   3.753   5.965  19.399 -0.7712 -1.5247  0.1394
 5323TIP3    H240165   3.813   5.993  19.262 -1.2222  2.4748  0.6574
 5324TIP3   OH240166   4.570   4.902  19.346  0.5810  0.5385  0.0059
 5324TIP3    H140167   4.632   4.917  19.274  0.9323 -1.1707 -0.0752
 5324TIP3    H240168   4.487   4.939  19.313  0.9589  0.6271 -0.8861
 5325TIP3   OH240169   4.320   4.288  20.525  0.7516  0.3379  0.4273
 5325TIP3    H140170   4.366   4.304  20.608 -1.5712  1.1134  1.6363
 5325TIP3    H240171   4.296   4.196  20.528 -1.7610  0.9683  1.9971
 5326TIP3   OH240172   2.439   4.720  20.440  0.2859  0.4212 -0.0679
 5326TIP3    H140173   2.489   4.792  20.401 -0.1400  0.2880 -0.8902
 5326TIP3    H240174   2.501   4.647  20.444  0.1802  0.2542 -1.0873
 5327TIP3   OH240175   5.046   2.405  18.062 -0.8529  0.1153 -0.2630
 5327TIP3    H140176   5.029   2.374  17.973  0.5397 -0.3589 -0.3986
 5327TIP3    H240177   5.058   2.325  18.112  0.5199  0.3782 -0.1268
 5328TIP3   OH240178   0.401   3.270  19.742 -0.0151  0.0683  0.5404
 5328TIP3    H140179   0.404   3.176  19.760 -1.9966 -0.7211 -2.5533
 5328TIP3    H240180   0.492   3.293  19.723  0.6138 -1.0085  2.0591
 5329TIP3   OH240181   2.834   0.113  19.082  0.3003  0.2797  0.4970
 5329TIP3    H140182   2.898   0.178  19.054 -0.6565  0.0791 -2.5984
 5329TIP3    H240183   2.777   0.159  19.143  0.8053  1.7514 -0.1036
 5330TIP3   OH240184   0.207   2.329  18.937 -0.2443  0.2023 -0.2615
 5330TIP3    H140185   0.240   2.419  18.941  1.0662 -0.1913 -1.2673
 5330TIP3    H240186   0.120   2.336  18.898 -0.3857  1.0673  0.1857
 5331TIP3   OH240187   4.407   4.587  18.637  0.4736 -0.3978  0.1119
 5331TIP3    H140188   4.348   4.647  18.683  2.4226  1.4522  0.3366
 5331TIP3    H240189   4.494   4.608  18.671  1.4949 -1.7701 -1.5130
 5332TIP3   OH240190   6.427   5.930  20.586 -0.1694  0.1197 -0.3680
 5332TIP3    H140191   6.493   5.883  20.638 -2.2969 -0.4602  1.9981
 5332TIP3    H240192   6.364   5.962  20.650 -2.3381  0.4486 -2.5236
 5333TIP3   OH240193   6.350   3.765  20.214 -0.3209 -0.5088  0.6241
 5333TIP3    H140194   6.442   3.748  20.233  0.0640  0.7115 -0.0503
 5333TIP3    H240195   6.312   3.787  20.298  0.4875  1.0237  0.6113
 5334TIP3   OH240196   3.499   3.261  17.724 -0.4004  0.3803  0.6432
 5334TIP3    H140197   3.569   3.257  17.789 -0.2798  2.3251  0.7091
 5334TIP3    H240198   3.484   3.355  17.712 -0.8669  0.0514 -1.6786
 5335TIP3   OH240199   4.327   1.465  20.183  0.3671  0.1206 -0.2061
 5335TIP3    H140200   4.344   1.539  20.124 -0.0434  1.6364  1.4740
 5335TIP3    H240201   4.408   1.414  20.181  0.2650 -0.0716 -2.2729
 5336TIP3   OH240202   5.990   4.522  20.083  0.7306  0.3845  0.5151
 5336TIP3    H140203   5.985   4.427  20.081  1.1164  0.3605  0.5919
 5336TIP3    H240204   5.916   4.549  20.136 -3.0024  0.4656 -4.1029
 5337TIP3   OH240205   0.624   0.469  21.469  0.0449  0.0173 -0.4484
 5337TIP3    H140206   0.562   0.407  21.432 -0.0886 -0.1624  0.0730
 5337TIP3    H240207   0.654   0.428  21.550  2.9213 -1.2086 -1.9967
 5338TIP3   OH240208   3.730   3.706  19.529 -0.1283 -0.0333 -0.0297
 5338TIP3    H140209   3.746   3.636  19.465  0.0638 -1.3731  1.4401
 5338TIP3    H240210   3.736   3.787  19.477  0.7672 -1.0227 -1.5620
 5339TIP3   OH240211   0.680   1.685  19.425 -0.4410  0.7499  0.6188
 5339TIP3    H140212   0.738   1.753  19.458 -1.5155  0.9020  2.3471
 5339TIP3    H240213   0.696   1.610  19.482 -2.1051  0.9094  1.3908
 5340TIP3   OH240214   0.168   2.032  18.091  0.3438 -0.3477  0.7754
 5340TIP3    H140215   0.106   2.064  18.157 -0.1416  0.5504 -0.0990
 5340TIP3    H240216   0.248   2.083  18.108 -0.4252  1.4315 -0.6093
 5341TIP3   OH240217   3.199   6.047  21.051  0.5534  0.3977 -0.6274
 5341TIP3    H140218   3.156   6.129  21.075 -1.1227 -0.2684 -1.2054
 5341TIP3    H240219   3.210   6.052  20.956 -0.5900 -0.4766 -0.8331
 5342TIP3   OH240220   5.026   4.231  21.152  0.4586  0.2260 -0.4467
 5342TIP3    H140221   5.004   4.172  21.224 -0.6009  1.6633  0.4628
 5342TIP3    H240222   5.108   4.274  21.180 -1.2612  2.6836  1.2232
 5343TIP3   OH240223   4.760   1.597  20.612 -0.0347 -0.4114 -0.0394
 5343TIP3    H140224   4.742   1.618  20.703 -0.8680 -1.4284  0.0528
 5343TIP3    H240225   4.675   1.599  20.569  0.3389 -0.0188 -0.7909
 5344TIP3   OH240226   5.413   3.581  19.154 -0.8879  0.1770 -0.4018
 5344TIP3    H140227   5.468   3.553  19.227  0.7249  0.4561 -1.4577
 5344TIP3    H240228   5.407   3.504  19.098 -1.6641  0.1247 -0.2508
 5345TIP3   OH240229   4.451   4.640  17.479  0.3337  0.2742 -0.2719
 5345TIP3    H140230   4.428   4.557  17.436 -1.7017  0.4943  0.3024
 5345TIP3    H240231   4.540   4.658  17.449  0.1456 -1.1791 -1.8845
 5346TIP3   OH240232   5.315   1.466  19.462  0.1363  0.4025  0.1909
 5346TIP3    H140233   5.364   1.524  19.520 -1.1214  1.4485  0.2519
 5346TIP3    H240234   5.377   1.397  19.439  0.7578  0.1188  2.5122
 5347TIP3   OH240235   1.203   5.673  18.685 -0.4138  0.1173 -0.0934
 5347TIP3    H140236   1.158   5.691  18.602  1.6055  2.5048 -0.7787
 5347TIP3    H240237   1.246   5.756  18.708  1.0188 -1.1384  2.1369
 5348TIP3   OH240238   3.529   0.933  19.055  0.0393 -0.1286 -0.0958
 5348TIP3    H140239   3.487   0.848  19.068  1.1592 -0.6261  0.3901
 5348TIP3    H240240   3.623   0.914  19.055  0.2880  0.9819 -0.9516
 5349TIP3   OH240241   1.702   1.059  20.075 -0.0418 -0.4356  0.1565
 5349TIP3    H140242   1.703   1.071  20.170  0.2526 -0.9767  0.2230
 5349TIP3    H240243   1.770   0.994  20.057 -0.6997 -1.0162 -0.3255
 5350TIP3   OH240244   0.517   3.219  21.466  0.3717 -0.7417 -0.0656
 5350TIP3    H140245   0.484   3.134  21.493  1.4714 -0.8403  1.0999
 5350TIP3    H240246   0.570   3.249  21.541 -2.7082  2.5322  1.1013
 5351TIP3   OH240247   1.891   5.411  20.793  0.1431  0.0117 -0.5846
 5351TIP3    H140248   1.901   5.318  20.813  2.1843  0.4171  0.5509
 5351TIP3    H240249   1.812   5.437  20.840  0.2836 -0.8750  0.1721
 5352TIP3   OH240250   5.571   4.942  21.111 -0.2013  0.9454  0.0981
 5352TIP3    H140251   5.483   4.969  21.086  0.3884  1.3115 -1.7039
 5352TIP3    H240252   5.628   5.011  21.079  0.7685  0.6044  1.0457
 5353TIP3   OH240253   1.528   6.357  18.595 -0.4717  0.5063  0.4924
 5353TIP3    H140254   1.507   6.379  18.505  0.6901  2.3859  0.6425
 5353TIP3    H240255   1.607   6.303  18.589  0.7604  2.2325  0.4206
 5354TIP3   OH240256   5.275   6.446  21.212 -0.2745  0.3032  0.4431
 5354TIP3    H140257   5.305   6.409  21.129  1.5421 -1.5650  1.8184
 5354TIP3    H240258   5.205   6.387  21.241 -2.0315  1.8460 -0.4059
 5355TIP3   OH240259   5.889   4.828  18.970 -0.2311  0.1829 -0.7862
 5355TIP3    H140260   5.871   4.901  19.028  1.6974 -0.4500  0.7462
 5355TIP3    H240261   5.973   4.792  19.002 -0.9563 -2.5162 -1.6098
 5356TIP3   OH240262   2.593   6.387  18.879  0.2515 -0.1679 -0.0875
 5356TIP3    H140263   2.516   6.442  18.867 -1.4480 -2.1601  1.1263
 5356TIP3    H240264   2.634   6.421  18.959 -0.6742 -0.5109  0.5466
 5357TIP3   OH240265   6.457   0.929  19.543 -0.1118 -0.5237 -0.2761
 5357TIP3    H140266   6.445   0.841  19.510  0.1368 -1.1793  1.2806
 5357TIP3    H240267   6.535   0.923  19.600 -0.4717  0.5342  0.3665
 5358TIP3   OH240268   3.889   3.049  18.614 -0.2198  0.2090 -0.1668
 5358TIP3    H140269   3.812   3.015  18.660  0.7770  0.0849  1.4991
 5358TIP3    H240270   3.853   3.113  18.553 -1.6817 -0.0900  0.3274
 5359TIP3   OH240271   4.619   6.449  18.876  0.1659  0.4060  0.9037
 5359TIP3    H140272   4.526   6.428  18.874  0.4848 -1.0953 -0.5826
 5359TIP3    H240273   4.662   6.368  18.902  1.1482  0.5501 -0.1473
 5360TIP3   OH240274   0.546   6.576  19.497  1.0850  0.1562 -0.0581
 5360TIP3    H140275   0.561   6.549  19.406 -0.8105 -2.4235  0.2791
 5360TIP3    H240276   0.480   6.514  19.529 -0.4239  2.7721  2.2304
 5361TIP3   OH240277   2.403   2.694  20.711  0.3387 -0.0612 -0.4112
 5361TIP3    H140278   2.437   2.606  20.726  1.1545  0.5475  1.8751
 5361TIP3    H240279   2.479   2.745  20.685  0.0854  0.1742 -0.6882
 5362TIP3   OH240280   2.162   0.798  18.204 -0.2762  0.4256 -0.0013
 5362TIP3    H140281   2.175   0.726  18.142  1.3875 -0.9671  1.8155
 5362TIP3    H240282   2.077   0.779  18.245 -1.0353  0.9525 -1.2840
 5363TIP3   OH240283   1.209   1.338  21.434 -0.1043 -0.3870  0.1444
 5363TIP3    H140284   1.281   1.374  21.383 -0.9800  1.3909  0.0873
 5363TIP3    H240285   1.210   1.387  21.517 -0.7858 -0.8599  0.4500
 5364TIP3   OH240286   3.651   1.442  19.955 -0.3538  0.0530 -0.4028
 5364TIP3    H140287   3.569   1.492  19.958 -0.9785 -0.9755  0.3434
 5364TIP3    H240288   3.706   1.483  20.022 -0.6247  0.1393 -0.2315
 5365TIP3   OH240289   0.457   5.802  20.196 -0.2285  0.5021 -1.0099
 5365TIP3    H140290   0.531   5.861  20.185 -0.5862  0.8557 -1.6179
 5365TIP3    H240291   0.436   5.806  20.289  1.1420 -0.3864 -0.6517
 5366TIP3   OH240292   0.356   2.898  19.370 -0.8054 -0.5185 -0.3121
 5366TIP3    H140293   0.276   2.847  19.380  0.4420 -2.8990 -1.5172
 5366TIP3    H240294   0.423   2.832  19.350  1.0318  1.5918 -1.4731
 5367TIP3   OH240295   0.443   6.338  18.929  0.1081  0.2956 -0.1965
 5367TIP3    H140296   0.526   6.291  18.915 -0.0238 -0.0084  0.0224
 5367TIP3    H240297   0.463   6.429  18.908  0.6351  0.3090  0.3504
 5368TIP3   OH240298   4.053   6.369  18.560  0.6458 -0.0523  1.2023
 5368TIP3    H140299   4.042   6.393  18.468  0.6472 -0.3750  1.1130
 5368TIP3    H240300   4.119   6.429  18.593  1.6488 -0.8053  0.6281
 5369TIP3   OH240301   2.861   1.044  18.611 -0.0437  0.5811 -0.3174
 5369TIP3    H140302   2.923   1.094  18.559  1.9034  0.4387  1.7169
 5369TIP3    H240303   2.882   0.953  18.592  1.7563  0.4743  1.6848
 5370TIP3   OH240304   0.198   5.498  19.599 -0.0303  0.1190 -0.1504
 5370TIP3    H140305   0.197   5.474  19.507  0.7640 -0.8610  0.0777
 5370TIP3    H240306   0.161   5.586  19.601 -1.8423 -0.5517 -1.1793
 5371TIP3   OH240307   5.641   5.283  18.599 -0.3125  0.5250  0.2548
 5371TIP3    H140308   5.666   5.362  18.552 -0.8574  0.5670  0.0325
 5371TIP3    H240309   5.621   5.314  18.688 -0.4125  0.6142  0.2006
 5372TIP3   OH240310   2.310   1.724  18.151 -0.1639  0.3248 -0.7932
 5372TIP3    H140311   2.340   1.802  18.104 -1.0307  0.7863 -0.6041
 5372TIP3    H240312   2.214   1.731  18.150 -0.2191  0.2655  0.8856
 5373TIP3   OH240313   4.690   5.245  19.335  0.4038  0.1798  0.2895
 5373TIP3    H140314   4.770   5.195  19.350  1.3791  1.9292  1.3109
 5373TIP3    H240315   4.642   5.239  19.418  1.0666  1.7816  0.8258
 5374TIP3   OH240316   5.618   1.668  21.081  0.0487 -0.8687 -0.7151
 5374TIP3    H140317   5.540   1.650  21.028 -1.4655 -0.5352  1.2852
 5374TIP3    H240318   5.615   1.603  21.151  0.6210  0.2039  0.3408
 5375TIP3   OH240319   2.245   1.261  19.050 -0.1709 -0.2884  0.1190
 5375TIP3    H140320   2.182   1.235  18.983  0.5519  0.9227 -1.0941
 5375TIP3    H240321   2.209   1.227  19.132 -1.4783 -1.1442 -0.7763
 5376TIP3   OH240322   6.278   3.340  19.666  0.4263  0.5531  0.4081
 5376TIP3    H140323   6.351   3.335  19.728  0.2937 -0.1697  0.5085
 5376TIP3    H240324   6.215   3.275  19.697  1.0394 -0.9940 -1.3829
 5377TIP3   OH240325   2.091   3.839  20.265  0.1424  0.2068 -0.6955
 5377TIP3    H140326   2.052   3.920  20.232  0.5780  0.5483 -0.3916
 5377TIP3    H240327   2.103   3.785  20.188 -0.3902  0.3257 -0.8696
 5378TIP3   OH240328   3.269   3.283  20.992 -0.2639  0.1720  0.1700
 5378TIP3    H140329   3.225   3.310  20.911  0.4867  0.2480 -0.2241
 5378TIP3    H240330   3.340   3.227  20.962  0.3421  0.6264  0.7369
 5379TIP3   OH240331   4.135   0.934  21.190 -0.5300 -0.6411  0.1674
 5379TIP3    H140332   4.197   0.866  21.162  1.7211  0.4720  2.1184
 5379TIP3    H240333   4.055   0.886  21.211  0.2152 -2.3653 -0.7440
 5380TIP3   OH240334   2.477   6.573  20.968 -0.2074 -0.0418  0.1809
 5380TIP3    H140335   2.483   6.608  21.056 -0.4618 -0.0102  0.1857
 5380TIP3    H240336   2.545   6.505  20.965 -1.5479 -1.4913  1.0795
 5381TIP3   OH240337   2.169   3.523  19.588  0.0952 -0.0547 -0.5875
 5381TIP3    H140338   2.195   3.614  19.576  0.1147  0.0802  0.3952
 5381TIP3    H240339   2.076   3.521  19.569 -0.0275  0.2896 -0.0261
 5382TIP3   OH240340   2.037   5.613  21.090 -0.4290  0.1009  0.2910
 5382TIP3    H140341   2.108   5.631  21.151  0.9880  0.1781 -1.2978
 5382TIP3    H240342   1.957   5.630  21.140  0.6719  0.7718  1.9013
 5383TIP3   OH240343   3.706   2.223  17.808 -0.1698  0.2146  0.7622
 5383TIP3    H140344   3.672   2.209  17.720 -2.0375  1.5371  1.2171
 5383TIP3    H240345   3.688   2.141  17.854  0.7140 -0.4428 -0.0147
 5384TIP3   OH240346   0.511   5.128  19.126 -0.5273  0.4417 -0.6346
 5384TIP3    H140347   0.586   5.101  19.073 -0.7933 -0.1682 -0.7033
 5384TIP3    H240348   0.547   5.138  19.214 -0.2390  0.7559 -0.7827
 5385TIP3   OH240349   0.547   2.287  20.308 -0.4312 -0.3219  0.2330
 5385TIP3    H140350   0.568   2.264  20.399 -0.3203  0.8760  0.5381
 5385TIP3    H240351   0.559   2.207  20.259  1.6941 -0.4855  0.9295
 5386TIP3   OH240352   3.997   5.927  17.960 -0.3947  0.2891 -0.1073
 5386TIP3    H140353   3.967   5.948  17.871  0.9589 -1.3108 -1.0088
 5386TIP3    H240354   3.916   5.926  18.012 -1.8704 -2.5680 -2.1486
 5387TIP3   OH240355   5.250   1.833  19.602  0.2906 -0.1101 -0.6483
 5387TIP3    H140356   5.246   1.909  19.659  1.7325  1.7143 -2.7997
 5387TIP3    H240357   5.160   1.819  19.573  0.0387  0.9529 -0.4210
 5388TIP3   OH240358   3.074   0.286  19.039  0.2572 -0.1923  0.2391
 5388TIP3    H140359   3.142   0.224  19.065 -0.0577 -0.6684 -0.0563
 5388TIP3    H240360   3.122   0.367  19.019  0.9497 -0.9873 -1.5447
 5389TIP3   OH240361   4.299   6.579  19.328 -0.1303 -0.0258 -0.4332
 5389TIP3    H140362   4.302   6.641  19.401 -0.3330 -0.5894  0.0634
 5389TIP3    H240363   4.391   6.565  19.305 -0.1003  0.7896 -0.8400
 5390TIP3   OH240364   6.018   0.377  20.295  0.0796 -0.0179 -0.6989
 5390TIP3    H140365   6.075   0.316  20.249  0.3018 -1.0420  0.8367
 5390TIP3    H240366   6.053   0.379  20.385 -1.7140  0.0682  0.0341
 5391TIP3   OH240367   4.368   0.264  11.177 -0.1642  0.4362 -0.8128
 5391TIP3    H140368   4.428   0.338  11.165 -0.5895  0.8707 -0.3450
 5391TIP3    H240369   4.285   0.305  11.201 -0.3988 -0.1988 -0.5211
 5392TIP3   OH240370   4.337   3.241  11.564  0.2917  0.1006 -0.6051
 5392TIP3    H140371   4.371   3.155  11.590  0.0880  0.4441  0.9161
 5392TIP3    H240372   4.406   3.303  11.591 -0.1796  0.5325 -0.3883
 5393TIP3   OH240373   3.686   1.906  11.924  0.1580 -0.6803 -0.2188
 5393TIP3    H140374   3.779   1.908  11.901 -0.0362  0.2798 -0.9945
 5393TIP3    H240375   3.645   1.851  11.858 -0.0484  0.1630 -0.8062
 5394TIP3   OH240376   2.051   6.232  11.123 -0.2246 -0.0798 -0.3731
 5394TIP3    H140377   2.092   6.242  11.209  0.1774 -2.8062 -0.1425
 5394TIP3    H240378   2.074   6.143  11.097 -2.8350 -0.3661 -1.9816
 5395TIP3   OH240379   6.365   6.391  11.234 -0.3738 -0.2856 -0.0564
 5395TIP3    H140380   6.372   6.483  11.260 -2.5073 -0.0030 -0.3242
 5395TIP3    H240381   6.417   6.384  11.154  2.5535 -0.1294  1.6971
 5396TIP3   OH240382   3.156   5.559  11.942 -0.4952  0.7850 -0.4220
 5396TIP3    H140383   3.089   5.574  12.009 -0.1553 -0.8011  0.3346
 5396TIP3    H240384   3.109   5.563  11.859 -1.1584  1.5345 -0.0279
 5397TIP3   OH240385   2.077   4.794  12.812 -0.5371  0.2803 -0.8536
 5397TIP3    H140386   2.038   4.750  12.887 -0.5199  0.9967 -0.4069
 5397TIP3    H240387   2.090   4.885  12.842  0.5826  0.2911 -1.3070
 5398TIP3   OH240388   1.286   6.128  11.185 -0.3768  0.0624 -0.3755
 5398TIP3    H140389   1.273   6.083  11.269 -0.1129  1.3902  0.4025
 5398TIP3    H240390   1.241   6.212  11.195  2.2693  1.5960 -0.3551
 5399TIP3   OH240391   6.511   6.216   9.424  0.4101  0.5288  0.3978
 5399TIP3    H140392   6.578   6.266   9.376  0.3439 -0.7895 -1.1648
 5399TIP3    H240393   6.433   6.270   9.417  0.3375  0.2807 -1.2687
 5400TIP3   OH240394   4.998   3.949  11.129 -0.1663 -0.8244  0.4081
 5400TIP3    H140395   5.031   3.868  11.091  1.2028  0.1228 -0.5217
 5400TIP3    H240396   4.926   3.975  11.071 -1.1464 -1.7570  1.1710
 5401TIP3   OH240397   3.815   5.767  10.235 -0.5820  0.2451  0.2244
 5401TIP3    H140398   3.831   5.777  10.329 -2.8165  3.0419  0.4365
 5401TIP3    H240399   3.867   5.836  10.194 -0.5707 -0.1740 -0.4792
 5402TIP3   OH240400   5.512   2.029  10.771 -0.0716 -0.1277 -0.4329
 5402TIP3    H140401   5.427   2.016  10.813  1.5468 -0.5999  3.1172
 5402TIP3    H240402   5.537   1.941  10.741  0.0242 -0.4287  0.4805
 5403TIP3   OH240403   6.068   3.909   9.834 -0.1676 -0.4327  0.5505
 5403TIP3    H140404   6.154   3.917   9.792 -0.2155  0.5996  0.6274
 5403TIP3    H240405   6.079   3.837   9.896 -0.0607 -1.9248 -1.0898
 5404TIP3   OH240406   5.731   1.402  11.384 -0.1623  0.2416  0.1781
 5404TIP3    H140407   5.772   1.341  11.323  0.6561 -0.2265  1.1608
 5404TIP3    H240408   5.745   1.488  11.344  0.5000 -0.0369 -0.2186
 5405TIP3   OH240409   1.562   0.657  11.439  0.1658  0.3267 -0.1377
 5405TIP3    H140410   1.595   0.578  11.482  0.8678 -0.8584 -2.6675
 5405TIP3    H240411   1.556   0.633  11.346  1.6221  3.5978 -1.2251
 5406TIP3   OH240412   3.080   0.019   9.976 -0.1158  0.6592 -0.1568
 5406TIP3    H140413   3.117   0.107   9.985  0.5121  0.4216 -0.3390
 5406TIP3    H240414   3.144  -0.038  10.019 -0.2043  0.2245 -0.5952
 5407TIP3   OH240415   5.942   5.631  13.203 -0.0038 -0.0093  0.1606
 5407TIP3    H140416   5.909   5.558  13.150 -0.6645 -0.9900  1.8336
 5407TIP3    H240417   6.037   5.624  13.198 -0.0630 -0.6438 -0.1323
 5408TIP3   OH240418   0.013   4.554  12.150  0.5911 -0.0051 -0.2022
 5408TIP3    H140419  -0.083   4.556  12.143  0.4941 -1.2566  0.5314
 5408TIP3    H240420   0.036   4.641  12.181 -0.4846 -0.2194  1.3410
 5409TIP3   OH240421   5.425   3.667  10.262  0.4265  0.1407  0.1756
 5409TIP3    H140422   5.415   3.674  10.167  0.9407 -0.3069  0.0849
 5409TIP3    H240423   5.509   3.707  10.281 -1.0359  3.1728  0.8586
 5410TIP3   OH240424   2.741   5.619  11.350  0.3990 -0.0290 -0.8453
 5410TIP3    H140425   2.814   5.566  11.382 -0.3848 -0.6198  0.0188
 5410TIP3    H240426   2.780   5.704  11.329  1.1648 -0.0290  0.4934
 5411TIP3   OH240427   5.236   1.863  11.688  0.1987  0.3330 -0.2258
 5411TIP3    H140428   5.329   1.840  11.699 -0.1914 -1.3547 -0.1965
 5411TIP3    H240429   5.238   1.945  11.639  1.7302  1.0879  0.9886
 5412TIP3   OH240430   1.311   5.272   9.764  0.2334  0.0101  0.0054
 5412TIP3    H140431   1.242   5.273   9.698  0.6745  2.3401 -0.5189
 5412TIP3    H240432   1.271   5.314   9.840  0.7818  0.5452  0.0045
 5413TIP3   OH240433   0.538   1.116  10.201 -0.6700 -0.1434  0.2188
 5413TIP3    H140434   0.482   1.177  10.250 -0.4454  0.5418 -0.3648
 5413TIP3    H240435   0.504   1.119  10.112 -1.0137 -1.3121  0.2954
 5414TIP3   OH240436   0.826   1.352  11.271  0.1561 -0.2296  0.0713
 5414TIP3    H140437   0.882   1.353  11.193 -0.3647  0.3008 -0.3023
 5414TIP3    H240438   0.858   1.277  11.322  1.2006  0.0546 -0.1366
 5415TIP3   OH240439   5.492   2.317  10.768 -0.1484  0.3004 -0.4020
 5415TIP3    H140440   5.491   2.222  10.756 -0.5815  0.2684 -0.1195
 5415TIP3    H240441   5.545   2.349  10.695  0.9157 -0.2355  0.1103
 5416TIP3   OH240442   0.621   3.520  11.792  0.2071 -0.7528 -0.0418
 5416TIP3    H140443   0.609   3.579  11.718  0.0406 -0.1327  0.4680
 5416TIP3    H240444   0.662   3.443  11.755 -0.2922 -0.6336 -0.8567
 5417TIP3   OH240445   5.118   5.957  12.399 -0.1643  0.4019 -0.1852
 5417TIP3    H140446   5.090   6.033  12.347 -0.1802  1.2213  0.9919
 5417TIP3    H240447   5.140   5.993  12.485  0.7161 -0.8007  0.1228
 5418TIP3   OH240448   3.168   4.398  12.329 -0.1789 -0.3253  0.9737
 5418TIP3    H140449   3.131   4.330  12.384 -0.2593 -2.2765 -1.3136
 5418TIP3    H240450   3.263   4.383  12.333 -0.1365 -0.0329  1.1056
 5419TIP3   OH240451   4.495   6.294  11.250 -0.0989 -0.5000  0.3302
 5419TIP3    H140452   4.518   6.387  11.260  1.8290 -0.7381 -1.3604
 5419TIP3    H240453   4.571   6.255  11.208 -1.0813 -2.7784  0.5668
 5420TIP3   OH240454   1.827   3.412  10.284 -0.1899 -0.1583  0.5981
 5420TIP3    H140455   1.802   3.343  10.223  2.4499 -0.9735  0.2831
 5420TIP3    H240456   1.853   3.366  10.364 -1.7014  0.7595  1.6689
 5421TIP3   OH240457   1.248   2.349  13.566  0.5896  0.2367  0.2966
 5421TIP3    H140458   1.301   2.426  13.545  0.6693  0.2747  0.6328
 5421TIP3    H240459   1.248   2.297  13.486 -0.2591  1.0477 -0.2550
 5422TIP3   OH240460   2.569   4.254  10.986  0.7750 -0.0929 -0.0603
 5422TIP3    H140461   2.524   4.321  11.039  0.4846 -0.4160  0.1061
 5422TIP3    H240462   2.642   4.301  10.946  2.3883 -0.3059  2.4066
 5423TIP3   OH240463   6.111   2.198  10.144 -0.4937  0.3917  0.0037
 5423TIP3    H140464   6.054   2.243  10.206 -0.0988  1.1141 -0.1467
 5423TIP3    H240465   6.052   2.159  10.080 -0.8128  1.5532 -0.4377
 5424TIP3   OH240466   6.593   4.070  11.567  0.8163  0.0402 -0.5824
 5424TIP3    H140467   6.637   4.034  11.644 -1.0009  0.3667  0.6659
 5424TIP3    H240468   6.502   4.078  11.593  0.4057  1.5445 -2.2885
 5425TIP3   OH240469   2.515   3.615  10.035  0.0763 -0.3213 -0.4995
 5425TIP3    H140470   2.462   3.621  10.115  1.1027  2.7666  0.0950
 5425TIP3    H240471   2.453   3.635   9.965 -0.0873  0.9250 -0.0351
 5426TIP3   OH240472   5.431   2.781   9.478 -0.3596  0.2529  0.2745
 5426TIP3    H140473   5.374   2.775   9.401  0.6069 -0.6832 -0.4042
 5426TIP3    H240474   5.394   2.852   9.530 -2.1511 -0.3442 -0.1098
 5427TIP3   OH240475   6.268   1.613  10.474 -0.0119  0.7730  0.1243
 5427TIP3    H140476   6.239   1.609  10.565 -1.7393 -1.4301 -0.4575
 5427TIP3    H240477   6.258   1.706  10.451  0.5010  1.3946  2.1375
 5428TIP3   OH240478   2.968   3.022  11.051 -0.0077 -0.3700  0.4201
 5428TIP3    H140479   2.873   3.020  11.060 -0.0427  0.2530  0.1929
 5428TIP3    H240480   2.998   3.073  11.125 -0.0322  1.5193 -0.8085
 5429TIP3   OH240481   3.991   6.119  11.989 -0.1287 -0.3867 -0.5837
 5429TIP3    H140482   4.061   6.105  12.052  0.9544 -0.6010 -1.8152
 5429TIP3    H240483   3.925   6.169  12.038  0.5113 -0.8628  0.8138
 5430TIP3   OH240484   4.584   2.210  10.120  0.2217  0.3429 -0.1802
 5430TIP3    H140485   4.604   2.145  10.053 -1.1188  0.7418 -1.0360
 5430TIP3    H240486   4.492   2.233  10.103 -0.0682  0.6663  1.6365
 5431TIP3   OH240487   1.299   1.475  10.132 -0.1777  0.1989 -0.3648
 5431TIP3    H140488   1.338   1.397  10.171 -1.2395 -1.1024 -1.7843
 5431TIP3    H240489   1.373   1.532  10.111  0.6827 -0.7931 -0.0851
 5432TIP3   OH240490   1.546   5.895  12.071  0.5329 -0.6278 -0.0547
 5432TIP3    H140491   1.536   5.806  12.037  1.9616 -1.3323  1.2577
 5432TIP3    H240492   1.640   5.912  12.065  0.0948  1.5659 -2.0536
 5433TIP3   OH240493   3.453   6.446  11.446  0.1686 -0.0324 -0.1158
 5433TIP3    H140494   3.505   6.462  11.525 -0.3923 -0.5144  0.3621
 5433TIP3    H240495   3.385   6.514  11.448 -1.9285 -2.0302  1.6652
 5434TIP3   OH240496   0.734   3.842  12.559 -0.2906 -0.0987  0.4695
 5434TIP3    H140497   0.787   3.802  12.491 -1.2444  0.2006 -0.4717
 5434TIP3    H240498   0.662   3.780  12.573  0.5427 -0.7570  2.1072
 5435TIP3   OH240499   2.054   1.552  11.036  0.0824  0.5829  0.7893
 5435TIP3    H140500   1.993   1.495  11.083 -1.3877  0.7902 -0.7930
 5435TIP3    H240501   2.123   1.493  11.005 -1.0790 -0.2631 -0.2665
 5436TIP3   OH240502   6.038   5.871  12.167  0.1276 -0.1094 -0.0437
 5436TIP3    H140503   6.066   5.961  12.157  0.3811 -0.4182 -2.8374
 5436TIP3    H240504   6.119   5.822  12.184  0.3898 -0.1275 -1.2668
 5437TIP3   OH240505   4.297   2.693   9.594  0.2500 -0.0247  0.0435
 5437TIP3    H140506   4.366   2.725   9.652 -0.4363  0.5308  0.5689
 5437TIP3    H240507   4.280   2.766   9.534 -1.9383  1.0225  1.7991
 5438TIP3   OH240508   0.633   1.304  10.956  0.0260  0.4117 -0.0382
 5438TIP3    H140509   0.725   1.314  10.932  0.5430  1.5716  2.0799
 5438TIP3    H240510   0.619   1.210  10.961  1.2887  0.2177  0.2269
 5439TIP3   OH240511   1.103   3.580  12.673  0.4912  0.4625  0.0668
 5439TIP3    H140512   1.160   3.657  12.667 -0.8479  1.4613 -0.3755
 5439TIP3    H240513   1.075   3.579  12.765  0.0043  0.8855 -0.0758
 5440TIP3   OH240514   5.774   1.859  10.200 -0.3135  0.0864 -0.8808
 5440TIP3    H140515   5.756   1.953  10.205 -0.7183 -0.0538  1.0295
 5440TIP3    H240516   5.688   1.818  10.199 -0.1386 -0.2874 -0.9368
 5441TIP3   OH240517   2.110   5.713  10.773  0.3420 -0.1957  0.3502
 5441TIP3    H140518   2.119   5.696  10.867  1.6667 -1.6398  0.0209
 5441TIP3    H240519   2.050   5.644  10.743  0.8999 -0.5150 -0.0438
 5442TIP3   OH240520   3.547   2.635  12.604  0.0882 -0.1000 -0.0927
 5442TIP3    H140521   3.522   2.551  12.566  0.3914  0.4196 -1.5199
 5442TIP3    H240522   3.634   2.652  12.569  0.3869  0.4057  0.8740
 5443TIP3   OH240523   0.813   5.260  10.739  0.2279 -0.0123 -0.4179
 5443TIP3    H140524   0.773   5.198  10.678 -0.0052 -0.6608  0.3686
 5443TIP3    H240525   0.897   5.220  10.762  0.0791 -0.0438  0.0863
 5444TIP3   OH240526   5.220   6.141  10.532  0.2971 -0.1534 -0.0440
 5444TIP3    H140527   5.259   6.084  10.465  2.8780  2.6060 -1.1189
 5444TIP3    H240528   5.269   6.121  10.612  1.5866  0.8743 -0.5529
 5445TIP3   OH240529   1.633   2.087  12.211 -0.9508  0.3036 -0.0400
 5445TIP3    H140530   1.703   2.151  12.228 -2.1388  1.6162  0.0703
 5445TIP3    H240531   1.552   2.135  12.229 -1.8716 -1.7481  1.7727
 5446TIP3   OH240532   2.452   1.100  11.378 -0.1884  0.4972  0.1702
 5446TIP3    H140533   2.463   1.040  11.451  0.3596  1.3548  0.8043
 5446TIP3    H240534   2.463   1.045  11.300 -2.7612 -0.8331  0.6485
 5447TIP3   OH240535   5.706   3.047  11.330  0.2378  0.3493  0.3408
 5447TIP3    H140536   5.714   3.142  11.340 -0.9698  0.3764  1.2270
 5447TIP3    H240537   5.677   3.016  11.416  0.3925 -0.7951 -0.0060
 5448TIP3   OH240538   5.998   2.292  11.144 -0.5208  0.1339 -0.3315
 5448TIP3    H140539   6.059   2.247  11.202  1.7915 -0.0776 -2.7644
 5448TIP3    H240540   5.977   2.228  11.076 -2.6018  0.5988 -0.1935
 5449TIP3   OH240541   3.537   1.871  12.154 -0.5838  0.4393  0.1197
 5449TIP3    H140542   3.512   1.779  12.149  0.5784 -0.0159  1.9584
 5449TIP3    H240543   3.590   1.886  12.076  2.7246 -1.6482  1.7363
 5450TIP3   OH240544   2.579   2.080  12.473  0.7261 -0.1997 -0.0939
 5450TIP3    H140545   2.529   2.010  12.513  2.6676 -1.4750  0.2038
 5450TIP3    H240546   2.630   2.117  12.544 -1.2590  2.5480  0.0719
 5451TIP3   OH240547   4.990   0.975  11.699  0.2033  0.1764  0.1045
 5451TIP3    H140548   5.058   0.940  11.757  0.4755 -2.4948 -1.6499
 5451TIP3    H240549   4.908   0.939  11.736  0.0748  0.7288  0.3671
 5452TIP3   OH240550   4.303   0.042  11.328  0.2535 -0.2022  0.4076
 5452TIP3    H140551   4.395   0.020  11.314  0.8424  1.6219  1.1404
 5452TIP3    H240552   4.289   0.121  11.274 -1.7090 -2.0537 -2.0253
 5453TIP3   OH240553   2.853   4.002  11.973  0.2106  0.4893  0.2291
 5453TIP3    H140554   2.797   4.074  12.001  0.4942  0.9004 -0.2384
 5453TIP3    H240555   2.930   4.044  11.935 -0.4901 -0.0080 -1.8872
 5454TIP3   OH240556   0.435   2.219  12.493 -0.0293 -0.9846  0.4673
 5454TIP3    H140557   0.456   2.271  12.571  0.6738 -2.0058  1.0010
 5454TIP3    H240558   0.518   2.213  12.446 -0.3020 -0.9073 -0.0197
 5455TIP3   OH240559   0.885   1.141  12.019  0.1194  0.4249 -0.1564
 5455TIP3    H140560   0.968   1.101  12.045 -0.1680 -0.0843  0.0092
 5455TIP3    H240561   0.909   1.216  11.965  0.7087  1.0302  0.9307
 5456TIP3   OH240562   5.338   2.278  11.997 -0.0587 -0.2452  0.0286
 5456TIP3    H140563   5.383   2.204  12.037  0.2029  0.9503  2.0688
 5456TIP3    H240564   5.277   2.309  12.064 -1.4196  0.3448 -1.4016
 5457TIP3   OH240565   0.281   4.131  10.050 -0.2235 -0.0788  0.3126
 5457TIP3    H140566   0.236   4.056  10.011  0.0929 -0.6032  0.9426
 5457TIP3    H240567   0.294   4.106  10.142  0.4391  0.4901  0.3764
 5458TIP3   OH240568   1.444   0.866  11.690  0.1607 -0.2307 -0.0371
 5458TIP3    H140569   1.420   0.774  11.677  2.2046 -0.6833 -1.0197
 5458TIP3    H240570   1.503   0.865  11.765  0.2217  0.2887 -0.0743
 5459TIP3   OH240571   0.992   1.691  10.879 -0.1065  0.4717  0.4797
 5459TIP3    H140572   1.030   1.711  10.965 -0.3129 -1.1927  1.0075
 5459TIP3    H240573   0.898   1.678  10.897 -0.8363  3.5062 -0.6268
 5460TIP3   OH240574   5.695   6.516  10.463 -0.7086  0.5918  0.5766
 5460TIP3    H140575   5.642   6.437  10.453 -0.0814  0.3423 -1.1488
 5460TIP3    H240576   5.651   6.582  10.411  0.4774  0.4552 -0.6510
 5461TIP3   OH240577   3.049   4.166  12.472  0.1704  0.0505 -0.1388
 5461TIP3    H140578   2.971   4.141  12.424  0.7593 -2.4506  0.0530
 5461TIP3    H240579   3.018   4.185  12.561 -0.1979 -1.4144  0.0688
 5462TIP3   OH240580   4.322   6.088  11.865  0.6840 -0.2034  0.2516
 5462TIP3    H140581   4.250   6.059  11.809 -0.0118 -0.3982  1.2238
 5462TIP3    H240582   4.279   6.125  11.942  1.5977  1.2530  0.1051
 5463TIP3   OH240583   2.042   0.013  13.325  0.2334 -0.0049 -0.1821
 5463TIP3    H140584   2.064   0.077  13.257  1.4427  0.0485  0.2342
 5463TIP3    H240585   1.959   0.044  13.360  0.7463  1.3024 -0.0547
 5464TIP3   OH240586   1.429   5.775   9.939 -0.1926  0.6728 -0.7312
 5464TIP3    H140587   1.461   5.704   9.995 -1.1201  1.7220  1.2686
 5464TIP3    H240588   1.479   5.767   9.858  1.2968 -0.8987  0.2781
 5465TIP3   OH240589   2.064   4.772  11.324 -0.7430  0.1061 -0.6103
 5465TIP3    H140590   2.055   4.856  11.279 -1.9519  0.6537  0.5675
 5465TIP3    H240591   2.035   4.790  11.414  0.3347 -1.2525  0.0352
 5466TIP3   OH240592   0.436   4.854  11.732  0.7644  0.3302 -0.1323
 5466TIP3    H140593   0.522   4.889  11.706  2.0552 -3.0842 -0.9581
 5466TIP3    H240594   0.380   4.874  11.657  1.8410 -0.5742 -1.2338
 5467TIP3   OH240595   5.829   5.619  10.174 -0.0044  0.3670  0.2826
 5467TIP3    H140596   5.855   5.527  10.166 -0.9782  0.1242 -0.2616
 5467TIP3    H240597   5.889   5.666  10.117  0.2671  0.0205  0.2827
 5468TIP3   OH240598   3.941   0.984  10.376  0.0826 -0.5188 -0.0332
 5468TIP3    H140599   3.864   0.988  10.320 -0.2138 -1.0416  0.3316
 5468TIP3    H240600   4.008   0.941  10.323 -0.8227 -2.9944  0.6815
 5469TIP3   OH240601   2.521   3.768  11.493  0.0283 -0.4240  0.0880
 5469TIP3    H140602   2.602   3.718  11.485 -0.3421 -1.1155  0.5751
 5469TIP3    H240603   2.550   3.858  11.511  0.6861 -0.8842  1.4470
 5470TIP3   OH240604   0.043   4.608   9.688  0.1389  0.3304 -0.0164
 5470TIP3    H140605   0.075   4.555   9.614  0.4911 -0.2903  0.5742
 5470TIP3    H240606   0.019   4.692   9.648  0.5289  0.0798 -0.8051
 5471TIP3   OH240607   1.048   1.619   9.851  0.1081  0.5733  0.1854
 5471TIP3    H140608   1.055   1.603   9.945 -1.0014  0.3006  0.2408
 5471TIP3    H240609   1.138   1.624   9.821  0.4865  0.0229  1.1628
 5472TIP3   OH240610   0.806   3.226  11.521  0.0891 -0.1798 -0.1073
 5472TIP3    H140611   0.796   3.292  11.589 -1.0734 -0.9975  0.5729
 5472TIP3    H240612   0.898   3.202  11.523  0.5636  1.4934 -0.4758
 5473TIP3   OH240613   6.380   2.399  11.309 -0.0837 -0.0544  0.3127
 5473TIP3    H140614   6.461   2.401  11.360  0.4867  0.9375 -0.5845
 5473TIP3    H240615   6.392   2.328  11.246  1.1137  1.5439 -1.3614
 5474TIP3   OH240616   2.903   1.206  12.972 -0.3012  0.1249 -0.5829
 5474TIP3    H140617   2.843   1.150  12.923 -0.1288  0.4735 -1.2034
 5474TIP3    H240618   2.895   1.292  12.931  2.3276 -0.3250 -2.2577
 5475TIP3   OH240619   3.682   1.157  10.360  0.7028 -0.5631  0.4462
 5475TIP3    H140620   3.604   1.213  10.349 -0.6364 -2.4475 -0.1232
 5475TIP3    H240621   3.756   1.216  10.342 -0.7336  0.3020 -3.7754
 5476TIP3   OH240622   1.826   5.742  10.850  0.3163  0.2246 -0.1147
 5476TIP3    H140623   1.734   5.737  10.826  0.5174  0.7950 -1.0510
 5476TIP3    H240624   1.866   5.799  10.784  1.2219  0.5047  0.6404
 5477TIP3   OH240625   3.007   6.096  11.414  0.7301  0.4097  0.3007
 5477TIP3    H140626   2.948   6.134  11.349  1.2580 -0.0218 -0.4390
 5477TIP3    H240627   3.083   6.154  11.414  1.6163 -0.6901 -0.9578
 5478TIP3   OH240628   4.694   4.045   9.921 -0.1013  0.2806 -0.0109
 5478TIP3    H140629   4.654   3.958   9.933  1.5473 -0.3823  0.9904
 5478TIP3    H240630   4.752   4.055   9.996  0.5033  1.8389 -0.6504
 5479TIP3   OH240631   0.238   0.731  10.484  0.1433 -0.7730 -0.2066
 5479TIP3    H140632   0.191   0.814  10.475 -0.7485 -0.9743  1.9464
 5479TIP3    H240633   0.171   0.664  10.471  0.3672 -1.1074  0.3293
 5480TIP3   OH240634   0.149   1.925  10.974  0.1470 -0.3273  0.0198
 5480TIP3    H140635   0.196   2.001  10.939  1.2525 -0.8966  0.1923
 5480TIP3    H240636   0.135   1.869  10.898 -1.8541  0.6092 -0.3478
 5481TIP3   OH240637   3.101   5.130  11.018 -0.2067 -0.4098  0.9153
 5481TIP3    H140638   3.117   5.214  10.975 -0.3051 -0.4279  0.8441
 5481TIP3    H240639   3.139   5.140  11.105 -0.6804 -0.1121  1.0901
 5482TIP3   OH240640   5.918   1.479  10.686  0.1808  0.1472 -0.6842
 5482TIP3    H140641   5.898   1.448  10.774  0.8238  0.0295 -0.5780
 5482TIP3    H240642   5.834   1.476  10.640  0.1562 -1.4959 -0.5987
 5483TIP3   OH240643   3.400   4.592  10.727 -0.1647  0.0036  0.4468
 5483TIP3    H140644   3.483   4.606  10.682  0.2822 -2.9057  0.1534
 5483TIP3    H240645   3.333   4.614  10.663  0.4462 -0.9740 -0.5620
 5484TIP3   OH240646   4.941   2.929  11.633 -0.8900  0.1744  0.1751
 5484TIP3    H140647   4.908   2.998  11.576 -1.1377  0.0407  0.1570
 5484TIP3    H240648   4.863   2.884  11.664 -0.7244 -0.1489  0.1250
 5485TIP3   OH240649   1.025   1.419  11.089 -0.8356 -0.0786 -0.2306
 5485TIP3    H140650   1.028   1.513  11.108  0.4683 -0.2526  0.5427
 5485TIP3    H240651   1.106   1.385  11.127 -0.3188 -1.1975 -2.2294
 5486TIP3   OH240652   3.850   1.130   9.392 -0.2707 -0.0154 -0.5704
 5486TIP3    H140653   3.832   1.141   9.485  1.6096  2.9884 -0.4264
 5486TIP3    H240654   3.823   1.040   9.373 -2.6698 -0.0847  2.3426
 5487TIP3   OH240655   5.629   6.078  11.640 -0.2280 -0.2000 -0.3331
 5487TIP3    H140656   5.703   6.035  11.682  0.1512 -1.9749 -2.6299
 5487TIP3    H240657   5.619   6.033  11.556 -2.1798  1.8173 -1.2947
 5488TIP3   OH240658   0.438   2.248  12.142 -0.4564 -0.4735 -0.0039
 5488TIP3    H140659   0.395   2.313  12.198  1.0187  1.8177 -1.3667
 5488TIP3    H240660   0.518   2.291  12.111  1.2259 -3.3908 -0.1075
 5489TIP3   OH240661   0.526   4.159  11.747  0.1452 -0.3889  0.1321
 5489TIP3    H140662   0.597   4.157  11.682 -0.6259  0.0456 -0.7481
 5489TIP3    H240663   0.568   4.134  11.829  1.3817  0.1709 -0.3075
 5490TIP3   OH240664   4.843   4.021  10.932 -0.3952 -0.3461  0.0618
 5490TIP3    H140665   4.893   4.067  10.865  0.2326  0.3653  0.9876
 5490TIP3    H240666   4.793   3.956  10.884  0.0804  0.1057 -1.0875
 5491TIP3   OH240667   1.682   0.394  12.315 -0.1238  0.1822 -0.0398
 5491TIP3    H140668   1.728   0.341  12.250  1.6102  1.0355  0.4395
 5491TIP3    H240669   1.600   0.347  12.330  0.0762 -0.7997 -1.7531
 5492TIP3   OH240670   4.429   3.266  10.636 -0.1397  0.3892 -0.3668
 5492TIP3    H140671   4.479   3.347  10.642  0.7709 -0.2238  0.7737
 5492TIP3    H240672   4.340   3.290  10.661  0.3032  0.8875  0.7693
 5493TIP3   OH240673   3.672   6.407   9.898  0.6736  0.8350  0.4452
 5493TIP3    H140674   3.648   6.412   9.991 -0.0885  1.1964  0.2366
 5493TIP3    H240675   3.713   6.492   9.880  0.0032  1.1299  0.2435
 5494TIP3   OH240676   0.931   2.535  11.057  0.3299  0.6228 -0.1200
 5494TIP3    H140677   0.995   2.466  11.041 -2.5710 -1.8244 -2.2952
 5494TIP3    H240678   0.948   2.599  10.988  1.1109  0.5784  0.0158
 5495TIP3   OH240679   6.038   2.211  12.017  0.1086  0.2227  0.1420
 5495TIP3    H140680   5.942   2.213  12.020 -0.1348 -3.8056  1.4122
 5495TIP3    H240681   6.065   2.224  12.108  0.7244  0.6302 -0.0931
 5496TIP3   OH240682   0.567   6.018  11.912  0.0124  0.5851 -0.3570
 5496TIP3    H140683   0.542   6.111  11.914 -0.7496  0.5118 -2.5586
 5496TIP3    H240684   0.556   5.994  11.820  1.5259 -1.3538 -0.0770
 5497TIP3   OH240685   3.368   1.581   9.382  0.2592 -0.3461 -0.4600
 5497TIP3    H140686   3.439   1.624   9.429 -0.5578 -0.5017  0.9583
 5497TIP3    H240687   3.372   1.490   9.410 -1.0835 -0.1638  0.3894
 5498TIP3   OH240688   5.146   2.642   9.652  0.1581 -0.2379  0.0428
 5498TIP3    H140689   5.103   2.710   9.600  0.4636 -0.2704 -0.2599
 5498TIP3    H240690   5.076   2.604   9.705  0.2606  1.4337  1.4635
 5499TIP3   OH240691   5.879   3.537  11.269 -0.0363 -0.1776 -0.8252
 5499TIP3    H140692   5.841   3.600  11.207  0.0335  1.4721  0.7504
 5499TIP3    H240693   5.886   3.585  11.351  0.4810 -2.1193  0.3215
 5500TIP3   OH240694   3.062   4.559  10.395  0.0542  0.1354 -0.1821
 5500TIP3    H140695   3.007   4.547  10.318  0.3471  3.0595 -0.9297
 5500TIP3    H240696   3.140   4.603  10.363  0.7774  0.2580  1.6068
 5501TIP3   OH240697   6.344   5.721   9.596 -0.4004  0.3397 -0.1692
 5501TIP3    H140698   6.388   5.795   9.555 -1.4253  1.1435  0.1576
 5501TIP3    H240699   6.365   5.728   9.689  0.6103 -0.5713 -0.3104
 5502TIP3   OH240700   0.122   2.697  10.989 -0.1002  0.7222  0.0792
 5502TIP3    H140701   0.129   2.760  11.062 -0.2154 -1.3742  2.0046
 5502TIP3    H240702   0.042   2.648  11.007  0.9184 -1.1786 -0.3327
 5503TIP3   OH240703   1.670   3.618  12.277  0.0700 -0.0423 -0.3231
 5503TIP3    H140704   1.763   3.596  12.288  0.0400 -0.0211 -0.0072
 5503TIP3    H240705   1.666   3.663  12.193  0.5127  0.8967  0.1433
 5504TIP3   OH240706   4.974   0.423  11.958  0.7756  0.2981  0.8738
 5504TIP3    H140707   4.910   0.431  12.029  0.3121 -0.0876  0.5116
 5504TIP3    H240708   4.927   0.454  11.880  0.4010 -1.6246  0.2633
 5505TIP3   OH240709   6.500   3.605  11.015  0.3648 -0.1945 -0.0845
 5505TIP3    H140710   6.405   3.610  11.030  0.6203 -1.8796  2.7228
 5505TIP3    H240711   6.519   3.512  11.012  2.0764  0.1085  0.3841
 5506TIP3   OH240712   5.236   3.398  11.401 -0.0242 -0.1394 -0.3888
 5506TIP3    H140713   5.329   3.376  11.408 -0.0646 -0.3328 -0.4470
 5506TIP3    H240714   5.216   3.391  11.308 -0.0502  0.1009 -0.4034
 5507TIP3   OH240715   2.205   2.275  10.618 -0.2213  0.3922 -0.7627
 5507TIP3    H140716   2.123   2.246  10.657  0.2881 -0.2440 -0.1546
 5507TIP3    H240717   2.270   2.264  10.688  0.5794 -0.1308 -1.5749
 5508TIP3   OH240718   2.621   5.552  12.386  0.0602  0.3397 -0.2186
 5508TIP3    H140719   2.629   5.462  12.417  0.0216  0.4439  0.0989
 5508TIP3    H240720   2.548   5.588  12.436 -0.5581  0.2557 -1.0322
 5509TIP3   OH240721   1.445   5.829  12.573 -0.6425  0.4014 -0.1787
 5509TIP3    H140722   1.505   5.891  12.532  0.3761 -0.1588  0.4102
 5509TIP3    H240723   1.466   5.833  12.666  0.6929 -2.0590 -0.3025
 5510TIP3   OH240724   3.208   5.657  10.839  0.0433 -0.3217  0.5643
 5510TIP3    H140725   3.143   5.646  10.908 -0.0286 -0.6343  0.4471
 5510TIP3    H240726   3.160   5.692  10.765 -0.2393 -1.6726  0.0767
 5511TIP3   OH240727   2.538   4.497  12.175  0.2086 -0.1020  0.0222
 5511TIP3    H140728   2.542   4.443  12.253  1.3347  0.7599  0.5891
 5511TIP3    H240729   2.576   4.581  12.201 -0.9164  0.7709 -0.9952
 5512TIP3   OH240730   1.112   1.191  11.571 -0.2776 -0.4186  0.2254
 5512TIP3    H140731   1.035   1.217  11.521 -0.0278  1.4817  0.7446
 5512TIP3    H240732   1.104   1.096  11.580 -2.3655 -0.3152 -0.0268
 5513TIP3   OH240733   5.446   5.620  10.162  0.1036  0.5430  0.0224
 5513TIP3    H140734   5.534   5.657  10.152  0.5143 -0.9880 -3.5249
 5513TIP3    H240735   5.391   5.672  10.104 -1.0904  0.6175  1.1829
 5514TIP3   OH240736   1.178   4.129  11.551 -0.0942 -0.2754  0.2417
 5514TIP3    H140737   1.094   4.153  11.512 -0.7616 -0.5459  1.4442
 5514TIP3    H240738   1.230   4.208  11.547 -1.2555  0.6058  1.6006
 5515TIP3   OH240739   3.643   4.419  12.013  0.3134 -0.3352 -0.1487
 5515TIP3    H140740   3.629   4.325  12.000 -0.7322 -0.1614 -0.3896
 5515TIP3    H240741   3.557   4.458  11.997  0.5737  0.5931  0.6122
 5516TIP3   OH240742   0.700   2.544  11.230 -1.0710 -0.1815  0.2091
 5516TIP3    H140743   0.792   2.549  11.204 -0.2700  0.5327  2.8760
 5516TIP3    H240744   0.652   2.577  11.154  0.9879  0.9387 -0.6794
 5517TIP3   OH240745   4.973   5.669  20.294  0.8252  0.0917  0.2793
 5517TIP3    H140746   4.948   5.732  20.226 -1.0063  0.4372  1.2117
 5517TIP3    H240747   4.893   5.619  20.310  1.5725 -0.8088  1.3170
 5518TIP3   OH240748   6.379   5.543  11.094  0.0768 -0.0597 -0.0890
 5518TIP3    H140749   6.331   5.519  11.014 -0.3823 -0.6480  0.3546
 5518TIP3    H240750   6.441   5.609  11.065 -1.8860  1.7256 -0.4574
 5519TIP3   OH240751   1.229   6.218   9.873  0.0978 -0.0889 -0.8175
 5519TIP3    H140752   1.276   6.138   9.896  1.1496  0.2317 -1.7826
 5519TIP3    H240753   1.297   6.281   9.851 -0.6767  1.3562  0.6846
 5520TIP3   OH240754   4.291   0.986  10.648 -0.4652  0.1643 -0.6013
 5520TIP3    H140755   4.305   0.974  10.554 -2.8189  2.9332 -1.4351
 5520TIP3    H240756   4.197   0.972  10.660  0.0587 -2.1396  1.8085
 5521TIP3   OH240757   4.670   4.369  11.683  0.5330 -0.3700 -0.0359
 5521TIP3    H140758   4.588   4.392  11.639  0.3641  0.6621  0.7573
 5521TIP3    H240759   4.642   4.329  11.766  0.8280 -0.2650  0.1148
 5522TIP3   OH240760   6.403   5.719  10.745 -0.0400 -0.0797 -0.2088
 5522TIP3    H140761   6.349   5.778  10.796 -1.8803  0.1200 -2.2694
 5522TIP3    H240762   6.432   5.771  10.670  0.6462 -0.9963 -0.6021
 5523TIP3   OH240763   2.475   3.131  11.280 -0.2093 -0.5963 -0.7181
 5523TIP3    H140764   2.407   3.095  11.338 -1.2053 -1.2997 -2.2578
 5523TIP3    H240765   2.461   3.226  11.285 -1.9647 -0.7519 -1.6959
 5524TIP3   OH240766   5.477   0.583  10.450  0.2218 -0.0816  0.6516
 5524TIP3    H140767   5.440   0.526  10.382  1.4156 -1.2127  0.9124
 5524TIP3    H240768   5.571   0.563  10.450  0.5674  1.3970  1.2381
 5525TIP3   OH240769   1.818   4.692  10.584  0.1778 -0.1158 -0.2833
 5525TIP3    H140770   1.822   4.606  10.625 -0.2679 -1.4866 -2.8892
 5525TIP3    H240771   1.781   4.749  10.651  2.1576 -1.4834  2.1571
 5526TIP3   OH240772   5.920   5.333   9.622 -0.2731 -0.0317  0.2699
 5526TIP3    H140773   5.964   5.296   9.699 -1.1721 -0.1307  0.7518
 5526TIP3    H240774   5.990   5.373   9.571  0.6424 -1.8425  0.0500
 5527TIP3   OH240775   2.311   1.752   9.466  0.1641  0.5149  0.5090
 5527TIP3    H140776   2.367   1.829   9.452 -1.9289  2.3438  1.4865
 5527TIP3    H240777   2.353   1.682   9.416  1.4252  2.6367 -1.6193
 5528TIP3   OH240778   5.498   1.776  11.674  0.5092 -0.3309 -0.4834
 5528TIP3    H140779   5.493   1.763  11.580  1.2233  0.7407 -0.6909
 5528TIP3    H240780   5.588   1.802  11.690  1.1400 -3.0151  0.8643
 5529TIP3   OH240781   1.859   2.249  20.217  0.3760 -0.3557 -0.1159
 5529TIP3    H140782   1.909   2.221  20.293  1.8707 -0.1349 -0.9905
 5529TIP3    H240783   1.850   2.343  20.227  0.4615 -0.3438 -0.1520
 5530TIP3   OH240784   1.396   3.648  11.118 -0.2266 -0.9213 -0.4129
 5530TIP3    H140785   1.369   3.652  11.209  2.1981  0.5345  0.3321
 5530TIP3    H240786   1.431   3.735  11.099  2.1951 -2.0740 -1.7262
 5531TIP3   OH240787   1.978   6.302  12.206 -0.2200 -0.2755  0.2651
 5531TIP3    H140788   1.981   6.373  12.142  0.6378 -0.5154  0.0214
 5531TIP3    H240789   2.067   6.296  12.239  0.2418 -2.5015 -1.1414
 5532TIP3   OH240790   4.923   1.889  10.322 -0.0215 -0.8624 -0.3763
 5532TIP3    H140791   4.858   1.940  10.371  0.4013 -2.3520  1.8800
 5532TIP3    H240792   4.989   1.953  10.296 -1.1093  0.2534 -0.5205
 5533TIP3   OH240793   0.026   0.462  10.119  0.2966  0.3740 -0.4387
 5533TIP3    H140794  -0.053   0.408  10.121 -0.0023  0.7196 -1.7353
 5533TIP3    H240795   0.080   0.424  10.049  0.0614  1.7220 -1.4011
 5534TIP3   OH240796   0.171   4.344  12.753 -0.1450 -0.4355 -0.8540
 5534TIP3    H140797   0.088   4.376  12.786  0.3206 -0.4037  0.3190
 5534TIP3    H240798   0.212   4.420  12.711 -0.7861 -0.5083 -1.6413
 5535TIP3   OH240799   1.862   4.702  11.683  0.5872 -0.0455  0.1589
 5535TIP3    H140800   1.869   4.774  11.746  0.1614  0.6306 -0.5621
 5535TIP3    H240801   1.770   4.698  11.660  0.9442  0.6692 -1.5155
 5536TIP3   OH240802   5.146   1.312  10.402 -0.9067 -0.1536  0.2889
 5536TIP3    H140803   5.078   1.257  10.362  0.0133 -0.0631 -1.4548
 5536TIP3    H240804   5.159   1.384  10.341  1.6746 -0.8502 -0.0932
 5537TIP3   OH240805   0.195   1.393  10.171  0.6099  0.1057 -0.7504
 5537TIP3    H140806   0.287   1.415  10.156  0.9328 -1.4896 -1.3128
 5537TIP3    H240807   0.173   1.437  10.253  2.5201 -1.1763  0.5349
 5538TIP3   OH240808   2.838   0.572   9.934 -0.0943  0.1994 -0.5071
 5538TIP3    H140809   2.781   0.563   9.858 -1.0913 -1.9355  0.4376
 5538TIP3    H240810   2.779   0.571  10.010  0.9607  1.1603  0.3776
 5539TIP3   OH240811   2.314   5.210  11.535 -0.1592  0.6287  0.1504
 5539TIP3    H140812   2.270   5.161  11.605  1.7181 -0.1228  0.8689
 5539TIP3    H240813   2.283   5.169  11.454  0.6046 -1.1357  0.6991
 5540TIP3   OH240814   6.571   6.038  10.917 -0.2291 -0.1688  0.5556
 5540TIP3    H140815   6.540   6.025  10.828  1.0058 -1.1781  0.2475
 5540TIP3    H240816   6.657   6.080  10.907  1.2613 -2.8391  1.0860
 5541TIP3   OH240817   0.309   4.379  10.855  0.8423 -0.7076  0.2337
 5541TIP3    H140818   0.332   4.337  10.772  1.0973 -0.5690  0.2304
 5541TIP3    H240819   0.286   4.469  10.830  3.5995  0.1940  0.5755
 5542TIP3   OH240820   0.475   3.356   9.317 -0.2956  0.1997 -0.3232
 5542TIP3    H140821   0.380   3.353   9.309 -0.3686  1.4757 -0.1036
 5542TIP3    H240822   0.506   3.372   9.228 -0.4556  2.4207 -0.0273
 5543TIP3   OH240823   3.256   3.254  12.525 -0.5357  0.3471  0.5914
 5543TIP3    H140824   3.336   3.306  12.531  0.3714 -0.9257 -0.2705
 5543TIP3    H240825   3.194   3.311  12.479 -0.1423  1.3219  1.2308
 5544TIP3   OH240826   1.292   5.843  12.325  0.0289  0.1038 -0.0867
 5544TIP3    H140827   1.339   5.849  12.242  1.2476  0.7632  0.6089
 5544TIP3    H240828   1.360   5.821  12.389 -1.1559 -2.0967  0.5154
 5545TIP3   OH240829   5.714   3.238  11.685 -0.2114  0.0963  0.2174
 5545TIP3    H140830   5.657   3.168  11.654  1.2373 -1.8141  1.6532
 5545TIP3    H240831   5.775   3.253  11.612 -1.6119  1.2305 -0.8014
 5546TIP3   OH240832   2.045   1.640   9.460  0.3670  0.0364 -0.3634
 5546TIP3    H140833   2.124   1.694   9.460  1.3107 -1.3017 -0.2404
 5546TIP3    H240834   2.038   1.606   9.370  0.0750 -0.0533 -0.3105
 5547TIP3   OH240835   0.252   4.147  12.300  0.0003 -0.3560 -0.0560
 5547TIP3    H140836   0.201   4.178  12.375 -0.8824 -0.4184 -0.6149
 5547TIP3    H240837   0.287   4.062  12.328 -2.5217 -1.6699 -0.6052
 5548TIP3   OH240838   4.438   2.556   9.923 -0.2357  0.0242 -0.1040
 5548TIP3    H140839   4.349   2.544   9.955  0.1451 -1.4956  0.4787
 5548TIP3    H240840   4.494   2.542  10.000  0.5661 -0.5156 -0.7657
 5549TIP3   OH240841   6.226   1.516   9.677  0.1469 -0.2596  0.2659
 5549TIP3    H140842   6.187   1.431   9.658 -0.7837  0.2647 -0.2541
 5549TIP3    H240843   6.317   1.507   9.649 -0.3964 -0.5182 -1.5352
 5550TIP3   OH240844   0.546   0.117  10.715 -0.5022  0.2180  0.0458
 5550TIP3    H140845   0.479   0.070  10.765 -1.4034 -0.4080 -1.6747
 5550TIP3    H240846   0.627   0.069  10.733 -0.8829 -0.2389  0.5739
 5551TIP3   OH240847   2.671   3.578   9.398  0.1342  0.2431  0.2156
 5551TIP3    H140848   2.662   3.657   9.345  0.0707 -0.7977 -1.3767
 5551TIP3    H240849   2.765   3.562   9.401  0.1200  0.1516  0.1821
 5552TIP3   OH240850   3.006   4.853  12.462  0.4126  0.1805 -0.5562
 5552TIP3    H140851   2.946   4.908  12.411 -0.9629 -0.2161  0.5792
 5552TIP3    H240852   2.971   4.855  12.551  0.5514 -2.1966 -0.3921
 5553TIP3   OH240853   1.787   0.238  10.590 -0.1674  0.3398 -0.2446
 5553TIP3    H140854   1.867   0.185  10.586 -0.0444  0.5187 -0.1820
 5553TIP3    H240855   1.717   0.178  10.565 -0.5075 -0.8564  3.0706
 5554TIP3   OH240856   2.013   6.506  11.983  0.4171 -0.2345  0.0091
 5554TIP3    H140857   2.108   6.497  11.991  0.4436  1.2585  2.4997
 5554TIP3    H240858   2.000   6.599  11.963 -0.5366 -0.3111  0.2458
 5555TIP3   OH240859   0.594   5.114  10.045 -0.1728 -0.3559  0.2260
 5555TIP3    H140860   0.661   5.070  10.097  1.8303  0.3661 -1.5586
 5555TIP3    H240861   0.520   5.054  10.045  1.1217 -2.0359  0.8535
 5556TIP3   OH240862   4.194   3.967   9.848  0.0902 -0.5134  0.4632
 5556TIP3    H140863   4.127   4.019   9.804 -1.5300 -1.8532  1.2110
 5556TIP3    H240864   4.277   4.002   9.817 -0.7744 -2.2537 -4.8847
 5557TIP3   OH240865   2.719   5.708  12.188 -0.6840  0.6551 -0.6276
 5557TIP3    H140866   2.676   5.788  12.220 -0.2037  0.3196  0.9092
 5557TIP3    H240867   2.707   5.644  12.258  1.4563  0.2478 -0.5719
 5558TIP3   OH240868   6.271   4.353  11.763 -0.0280  0.4773 -0.2237
 5558TIP3    H140869   6.248   4.404  11.841  2.2630 -0.7928  1.3943
 5558TIP3    H240870   6.304   4.419  11.701 -1.9409  1.5147 -0.1999
 5559TIP3   OH240871   4.099   1.849   9.524  0.1761  0.0872 -0.7549
 5559TIP3    H140872   4.183   1.842   9.479  1.0668  1.8776  0.5343
 5559TIP3    H240873   4.075   1.941   9.518 -0.9266 -0.1023  0.2646
 5560TIP3   OH240874   2.434   4.513  11.039 -0.4935 -0.1487  0.0112
 5560TIP3    H140875   2.363   4.528  10.977 -0.2790 -1.8667 -0.7330
 5560TIP3    H240876   2.501   4.577  11.015 -1.1182  0.3777 -0.3723
 5561TIP3   OH240877   0.605   1.110  12.156  0.5094  0.5048 -0.2291
 5561TIP3    H140878   0.649   1.112  12.241  0.3351 -1.7452 -0.0340
 5561TIP3    H240879   0.676   1.106  12.092  0.6763 -1.3420  0.0099
 5562TIP3   OH240880   0.997   3.089  12.261  0.1074  0.1111 -0.7390
 5562TIP3    H140881   0.995   3.184  12.252 -2.0320  0.1498 -0.2507
 5562TIP3    H240882   0.960   3.056  12.179  1.0659 -0.3455 -1.0111
 5563TIP3   OH240883   4.116   0.510   9.915 -0.4131 -0.0983 -0.6333
 5563TIP3    H140884   4.190   0.570   9.924 -0.0185 -0.5517 -0.8233
 5563TIP3    H240885   4.039   0.566   9.923 -0.0595  0.2872  0.2077
 5564TIP3   OH240886   1.300   6.385  13.745 -0.1366 -0.5594 -0.6468
 5564TIP3    H140887   1.290   6.465  13.797 -0.4116 -1.2258  0.3571
 5564TIP3    H240888   1.306   6.315  13.810  3.3087 -1.0833 -1.3525
 5565TIP3   OH240889   2.194   5.603  10.422  0.1906  0.3646  0.0787
 5565TIP3    H140890   2.141   5.665  10.371 -0.8789 -0.2904  0.3603
 5565TIP3    H240891   2.132   5.563  10.482  1.1734  0.1308  0.9647
 5566TIP3   OH240892   4.983   2.135  11.496  0.6198  0.3746 -0.1329
 5566TIP3    H140893   5.053   2.199  11.498  0.0321  1.0965 -1.3627
 5566TIP3    H240894   4.942   2.147  11.410 -1.0478  0.0222  0.5753
 5567TIP3   OH240895   2.851   4.104  10.552  0.4213  0.5698 -0.2955
 5567TIP3    H140896   2.770   4.149  10.529  0.4679  0.3235 -0.9486
 5567TIP3    H240897   2.915   4.175  10.563  0.0233  0.7997  0.6779
 5568TIP3   OH240898   2.149   4.261  10.936  0.3476 -0.0876  0.0868
 5568TIP3    H140899   2.174   4.169  10.941 -0.5101 -0.4095 -1.1786
 5568TIP3    H240900   2.056   4.262  10.958  0.1000  0.3281 -0.9290
 5569TIP3   OH240901   1.991   1.190  12.630  0.6213 -0.0192 -0.2449
 5569TIP3    H140902   2.085   1.180  12.644  0.2885 -0.9849  1.5716
 5569TIP3    H240903   1.959   1.229  12.711 -0.3567  1.7498 -1.4201
 5570TIP3   OH240904   0.706   6.360  10.970  0.2560 -0.6438 -0.4454
 5570TIP3    H140905   0.780   6.311  10.934  0.8270 -1.4024  1.6120
 5570TIP3    H240906   0.654   6.294  11.016 -0.6815  0.2100 -0.2484
 5571TIP3   OH240907   2.247   0.098  10.453 -0.3510 -0.2445  0.5822
 5571TIP3    H140908   2.182   0.034  10.422  0.9960 -0.8054 -1.2680
 5571TIP3    H240909   2.330   0.065  10.419  0.9165  0.5603  2.7162
 5572TIP3   OH240910   5.161   0.930  10.414  0.2978  0.0583  0.6430
 5572TIP3    H140911   5.213   0.951  10.337  1.4931  1.9249  1.8719
 5572TIP3    H240912   5.212   0.864  10.460  0.9368  0.9003  1.1633
 5573TIP3   OH240913   4.611   2.724  11.071 -0.6104 -0.3432  0.6289
 5573TIP3    H140914   4.634   2.817  11.074 -1.8963  0.1260 -1.6670
 5573TIP3    H240915   4.521   2.721  11.102 -0.6856 -0.7687  0.3705
 5574TIP3   OH240916   1.944   5.534  12.359  0.3519 -0.2879 -0.0738
 5574TIP3    H140917   1.996   5.585  12.421 -0.5568  1.2901 -0.5447
 5574TIP3    H240918   1.866   5.508  12.408 -0.0081  0.3093 -0.3136
 5575TIP3   OH240919   4.330   1.890  11.408 -0.5376  0.1283 -0.1250
 5575TIP3    H140920   4.400   1.838  11.449  1.4269  0.7206 -2.5098
 5575TIP3    H240921   4.250   1.849  11.439  0.8235 -1.0299  2.2004
 5576TIP3   OH240922   0.732   1.652  12.857 -0.1081  0.1399 -0.5646
 5576TIP3    H140923   0.683   1.593  12.915  2.0450 -1.7515 -0.4910
 5576TIP3    H240924   0.747   1.600  12.778  0.4236  1.2402 -1.2069
 5577TIP3   OH240925   5.486   4.797  10.345  0.3125 -0.2786 -0.1826
 5577TIP3    H140926   5.434   4.844  10.280  0.4448 -0.1291 -0.1812
 5577TIP3    H240927   5.527   4.866  10.397  0.8174 -0.3936 -0.4265
 5578TIP3   OH240928   2.239   5.279  11.156 -0.0044 -0.0175 -0.3337
 5578TIP3    H140929   2.319   5.315  11.118 -1.0718  1.7045 -1.0607
 5578TIP3    H240930   2.257   5.185  11.166  1.2408 -0.0850 -2.6804
 5579TIP3   OH240931   6.482   1.419  10.394  0.0635 -0.2586  0.1846
 5579TIP3    H140932   6.523   1.486  10.340 -0.7805 -0.8915 -1.2764
 5579TIP3    H240933   6.408   1.462  10.436  0.2034  0.0068  0.1581
 5580TIP3   OH240934   0.183   4.413  13.317 -0.5568 -0.1555 -0.3688
 5580TIP3    H140935   0.231   4.491  13.289 -0.8489  0.3916  0.5954
 5580TIP3    H240936   0.228   4.340  13.275 -0.3436  0.5361 -1.3836
 5581TIP3   OH240937   3.844   0.385  10.130 -0.0297 -0.2390  0.4989
 5581TIP3    H140938   3.831   0.353  10.041 -2.8016  0.7395  0.4591
 5581TIP3    H240939   3.823   0.478  10.126  0.1153 -0.1033  2.1234
 5582TIP3   OH240940   0.312   3.640  11.424  0.5205  0.4308 -0.7304
 5582TIP3    H140941   0.359   3.676  11.499 -0.4075 -0.2496  0.2134
 5582TIP3    H240942   0.363   3.564  11.397 -1.0613 -1.6840  1.7115
 5583TIP3   OH240943   2.163   0.494  11.163 -0.5271 -0.2050 -0.1360
 5583TIP3    H140944   2.150   0.411  11.209  1.3443 -1.2195 -1.3014
 5583TIP3    H240945   2.083   0.507  11.113 -0.5249 -1.7386 -0.5699
 5584TIP3   OH240946   4.020   2.244   9.970  0.0254  0.1460 -0.5218
 5584TIP3    H140947   3.986   2.155   9.979  0.7727  0.0403  1.7846
 5584TIP3    H240948   3.949   2.300  10.001 -0.4702  0.4227 -2.0338
 5585TIP3   OH240949   0.928   3.747  11.048 -0.1840  0.6051 -0.5181
 5585TIP3    H140950   0.950   3.767  11.139  0.8726 -0.6020 -0.4782
 5585TIP3    H240951   0.932   3.832  11.004  0.5627  1.0257  0.3202
 5586TIP3   OH240952   0.053   1.723  12.609 -0.6144  0.5703 -0.2602
 5586TIP3    H140953   0.085   1.693  12.523 -2.2659 -0.6069 -0.5208
 5586TIP3    H240954   0.065   1.647  12.666  0.3339  1.3028  0.5411
 5587TIP3   OH240955   4.805   4.968  11.186  0.0590  0.3062  0.0823
 5587TIP3    H140956   4.760   4.887  11.210 -1.0621  0.7764 -0.3718
 5587TIP3    H240957   4.867   4.983  11.257 -2.6311  1.2724  2.3752
 5588TIP3   OH240958   5.294   4.851   9.350  0.4834 -0.2758 -0.3972
 5588TIP3    H140959   5.296   4.757   9.367  0.7912 -0.3382 -0.7507
 5588TIP3    H240960   5.286   4.858   9.255  0.4261  0.0570 -0.3709
 5589TIP3   OH240961   2.743   3.979   9.498  0.1841  0.3271 -0.4809
 5589TIP3    H140962   2.718   3.902   9.447  0.1434  0.1137 -0.1379
 5589TIP3    H240963   2.818   4.016   9.450 -0.4218  0.6550 -1.2023
 5590TIP3   OH240964   3.018   2.194  10.936 -0.0153  0.4801 -0.0196
 5590TIP3    H140965   3.060   2.280  10.934  0.8159  0.0609 -1.5496
 5590TIP3    H240966   2.976   2.190  11.022 -2.0604  3.3399 -0.7495
 5591TIP3   OH240967   5.759   5.741  12.711 -0.4510  0.1012 -0.9822
 5591TIP3    H140968   5.813   5.729  12.790 -0.4171  0.6811 -0.9180
 5591TIP3    H240969   5.819   5.778  12.646 -0.2797 -1.0992 -1.5360
 5592TIP3   OH240970   0.087   4.170  12.539  0.0261 -0.0806  0.4925
 5592TIP3    H140971   0.109   4.235  12.605  0.1892 -0.5032  0.8596
 5592TIP3    H240972  -0.003   4.191  12.514  0.3409  0.7625  0.0305
 5593TIP3   OH240973   4.388   4.012  11.566 -0.2293 -0.1156  0.1395
 5593TIP3    H140974   4.480   4.034  11.580  0.4707 -1.6595 -1.5090
 5593TIP3    H240975   4.363   3.960  11.642  0.9031 -1.3388 -0.2864
 5594TIP3   OH240976   4.085   1.285  11.227 -0.0491  0.2895  0.1231
 5594TIP3    H140977   4.086   1.265  11.134  0.9988  0.3531  0.1033
 5594TIP3    H240978   4.172   1.259  11.258 -0.7676 -0.8095  1.3182
 5595TIP3   OH240979   1.518   4.881  13.333  0.4072 -0.4150 -0.3305
 5595TIP3    H140980   1.454   4.949  13.354 -0.0061 -1.0053  0.3704
 5595TIP3    H240981   1.601   4.928  13.321  0.0800  0.2283 -0.0837
 5596TIP3   OH240982   5.452   4.996  13.699  0.4698  0.1665  0.9224
 5596TIP3    H140983   5.467   4.911  13.740 -0.3523 -0.4743 -0.0586
 5596TIP3    H240984   5.440   4.977  13.606  0.0438  1.3224  0.7133
 5597TIP3   OH240985   1.958   2.349   9.255  0.0542  0.4837  0.1145
 5597TIP3    H140986   2.036   2.404   9.251 -0.4398  1.5024  2.6086
 5597TIP3    H240987   1.889   2.404   9.217 -0.1052  0.9649  1.0725
 5598TIP3   OH240988   0.650   1.543   9.487  0.1980  0.0278 -0.1229
 5598TIP3    H140989   0.596   1.595   9.427  1.5583  1.9207  0.2336
 5598TIP3    H240990   0.718   1.603   9.517  0.8403 -1.5013  1.6435
 5599TIP3   OH240991   2.883   2.041  12.127 -0.5829 -0.2415 -0.3162
 5599TIP3    H140992   2.854   2.093  12.052  0.5557 -0.3092 -0.8359
 5599TIP3    H240993   2.880   1.951  12.096  0.9780 -0.1968 -0.7198
 5600TIP3   OH240994   4.381   3.396   9.289 -0.0520 -0.1129 -0.2720
 5600TIP3    H140995   4.432   3.473   9.315  1.9356 -1.2439 -0.6450
 5600TIP3    H240996   4.399   3.385   9.196 -0.0854 -1.1774 -0.1692
 5601TIP3   OH240997   5.966   4.806  10.187 -0.5171 -0.1951 -0.2615
 5601TIP3    H140998   6.060   4.788  10.190 -0.4043  0.4156 -0.0257
 5601TIP3    H240999   5.943   4.802  10.095  0.1199  1.5360 -0.5283
 5602TIP3   OH241000   2.806   5.383  10.199  0.3575 -0.1596 -0.5488
 5602TIP3    H141001   2.879   5.397  10.139  0.5490 -0.1178 -0.3094
 5602TIP3    H241002   2.744   5.453  10.180 -0.3069 -1.0354 -1.7703
 5603TIP3   OH241003   0.571   6.493  11.262  0.8169  0.2076 -0.1878
 5603TIP3    H141004   0.596   6.546  11.186  2.0105  0.1139  0.1186
 5603TIP3    H241005   0.541   6.410  11.224  0.5838  0.4790 -0.5974
 5604TIP3   OH241006   2.784   4.874  10.804 -0.5788 -0.4909  0.0587
 5604TIP3    H141007   2.864   4.841  10.843 -0.7689 -1.1630 -0.1122
 5604TIP3    H241008   2.810   4.956  10.761 -0.3816  0.3057  1.6377
 5605TIP3   OH241009   2.887   4.163  11.452 -0.0013 -0.3160 -0.0039
 5605TIP3    H141010   2.967   4.144  11.502  1.4492 -0.2870 -2.1909
 5605TIP3    H241011   2.875   4.258  11.463  0.5594 -0.2330 -0.0624
 5606TIP3   OH241012   6.389   2.809  10.695 -0.3547 -0.5338 -0.2349
 5606TIP3    H141013   6.483   2.801  10.676  0.0478  1.1894  0.7809
 5606TIP3    H241014   6.385   2.871  10.768 -2.4268  1.3021 -1.7744
 5607TIP3   OH241015   0.955   0.753  13.628  0.0795 -0.0801 -0.2879
 5607TIP3    H141016   0.880   0.795  13.585  1.3352 -0.9000 -3.5364
 5607TIP3    H241017   1.029   0.811  13.609  1.0945 -1.6606 -1.3655
 5608TIP3   OH241018   6.025   4.351  12.835  0.1473  0.3208 -0.2128
 5608TIP3    H141019   6.101   4.319  12.884  0.2700  1.6421  0.4964
 5608TIP3    H241020   5.951   4.341  12.895  0.1559  1.1789 -0.0538
 5609TIP3   OH241021   3.201   2.806  11.886 -0.3274  0.1878 -0.7030
 5609TIP3    H141022   3.139   2.844  11.948 -0.6484 -1.1773 -0.1450
 5609TIP3    H241023   3.148   2.749  11.830  0.3185 -0.5419 -0.5997
 5610TIP3   OH241024   2.270   6.232  10.305 -0.2391 -0.3031 -0.0958
 5610TIP3    H141025   2.341   6.288  10.271  0.2523 -1.5142 -1.1128
 5610TIP3    H241026   2.249   6.271  10.390  2.2394 -0.3602  0.6492
 5611TIP3   OH241027   5.949   3.586  10.985 -0.0319  0.6935  0.4686
 5611TIP3    H141028   5.895   3.506  10.982 -1.3353  1.5285  0.7751
 5611TIP3    H241029   5.885   3.657  10.985  1.1177  1.8143 -1.3331
 5612TIP3   OH241030   2.214   1.893  11.730 -0.5241 -0.2187 -0.0801
 5612TIP3    H141031   2.253   1.887  11.817 -0.2114  1.0257 -0.1182
 5612TIP3    H241032   2.142   1.956  11.740  0.5868  1.2764 -1.0641
 5613TIP3   OH241033   4.129   0.326  11.304 -0.0708  0.3263  0.6184
 5613TIP3    H141034   4.066   0.264  11.341 -0.6637  0.3927 -0.2679
 5613TIP3    H241035   4.081   0.409  11.298  0.2561  0.5034  0.4141
 5614TIP3   OH241036   0.482   1.408  11.163 -0.3161 -0.0389  0.5882
 5614TIP3    H141037   0.549   1.384  11.099 -0.5729  2.1879 -0.6247
 5614TIP3    H241038   0.416   1.340  11.155 -0.3858  0.2126 -1.6247
 5615TIP3   OH241039   5.135   5.157  11.539  0.3266 -0.3797 -0.4332
 5615TIP3    H141040   5.211   5.106  11.566  1.0090  0.8279  0.0045
 5615TIP3    H241041   5.104   5.198  11.619  0.2133  0.4183 -0.8740
 5616TIP3   OH241042   2.562   4.414  10.088  0.3573 -0.5566  0.0359
 5616TIP3    H141043   2.498   4.406  10.159  1.1899 -3.6551  0.5949
 5616TIP3    H241044   2.536   4.346  10.025  1.4596  0.0290 -1.0883
 5617TIP3   OH241045   0.874   3.333  11.161  0.8252 -0.0949 -0.2872
 5617TIP3    H141046   0.902   3.267  11.098  1.2444  0.5946 -0.8293
 5617TIP3    H241047   0.945   3.397  11.163 -0.0285  0.8879 -0.5396
 5618TIP3   OH241048   0.072   0.328   9.882 -0.3837  0.3056 -0.4255
 5618TIP3    H141049   0.125   0.368   9.813 -1.0953  1.3570 -0.3835
 5618TIP3    H241050  -0.017   0.358   9.865 -0.4529  1.3296  1.4496
 5619TIP3   OH241051   3.132   4.553  11.253  0.3246 -0.0920 -0.0097
 5619TIP3    H141052   3.190   4.549  11.177  1.4308 -0.6106  0.8277
 5619TIP3    H241053   3.152   4.474  11.302  0.7834  0.9826  1.6157
 5620TIP3   OH241054   4.004   6.426   9.694  0.7908 -0.4996  0.0564
 5620TIP3    H141055   4.031   6.518   9.690 -0.9597  0.1005  1.1687
 5620TIP3    H241056   3.909   6.428   9.689  0.7145 -2.2805 -0.0280
 5621TIP3   OH241057   6.539   6.134  12.687  0.1184  0.0209  0.5613
 5621TIP3    H141058   6.505   6.052  12.722 -0.9434  0.2353  0.0834
 5621TIP3    H241059   6.616   6.109  12.637  0.8373 -0.4549  1.8821
 5622TIP3   OH241060   0.290   5.346  11.165  0.4488 -0.3490  0.3157
 5622TIP3    H141061   0.314   5.436  11.186  2.1180 -0.5857 -0.4065
 5622TIP3    H241062   0.315   5.336  11.073 -1.9220 -0.8564 -0.3231
 5623TIP3   OH241063   3.127   1.447  11.867  0.5167  0.1466 -0.1737
 5623TIP3    H141064   3.219   1.419  11.860  0.1049 -1.1214 -0.8777
 5623TIP3    H241065   3.078   1.382  11.816 -0.7975  0.7093  0.3220
 5624TIP3   OH241066   5.884   0.430  11.164  0.1143  0.0490  0.6434
 5624TIP3    H141067   5.801   0.465  11.198 -0.3143  1.4032 -1.6304
 5624TIP3    H241068   5.939   0.508  11.150  1.6733 -0.7963  1.7363
 5625TIP3   OH241069   2.973   1.037  11.893 -0.3804 -0.2208  0.2036
 5625TIP3    H141070   3.066   1.017  11.879 -0.0959  1.0635  0.1383
 5625TIP3    H241071   2.968   1.064  11.984 -0.3679  1.3334 -0.2345
 5626TIP3   OH241072   2.058   5.439  11.270  0.2574 -0.1193  0.1391
 5626TIP3    H141073   2.144   5.399  11.254  0.8620  1.1350  0.1040
 5626TIP3    H241074   2.027   5.398  11.351  0.7022 -0.8686 -0.0572
 5627TIP3   OH241075   5.735   0.144   9.421 -0.1784  0.2415  0.3734
 5627TIP3    H141076   5.756   0.099   9.503 -0.3536  2.6087  1.8135
 5627TIP3    H241077   5.820   0.169   9.385  0.0156 -2.3565 -1.2122
 5628TIP3   OH241078   5.319   2.587  10.805 -0.3392 -0.3704 -0.5319
 5628TIP3    H141079   5.246   2.532  10.834  0.3015 -0.7857  0.3685
 5628TIP3    H241080   5.385   2.524  10.775  0.6508 -0.1736  1.0942
 5629TIP3   OH241081   6.325   2.893  12.148 -0.9163  0.2327  0.4253
 5629TIP3    H141082   6.368   2.882  12.063  0.2002  1.2016  0.8459
 5629TIP3    H241083   6.376   2.839  12.208 -0.5869  0.9824  0.8295
 5630TIP3   OH241084   1.968   5.521  10.600 -0.3706 -0.3045  0.2515
 5630TIP3    H141085   1.911   5.512  10.676 -1.0366  0.2260 -0.1672
 5630TIP3    H241086   1.917   5.573  10.538  0.1648 -0.7111 -0.5516
 5631TIP3   OH241087   3.182   4.555   9.602  0.4027 -0.2297 -0.0070
 5631TIP3    H141088   3.152   4.582   9.515 -0.0227 -0.5451  0.0366
 5631TIP3    H241089   3.124   4.482   9.625  0.5192 -0.1534  0.5346
 5632TIP3   OH241090   1.621   3.584  11.978 -0.1841  0.4026 -0.1003
 5632TIP3    H141091   1.563   3.632  11.919 -0.9003 -0.1459  0.1303
 5632TIP3    H241092   1.589   3.493  11.973 -1.1560  0.5708  2.1496
 5633TIP3   OH241093   3.220   5.482   9.917 -0.1427 -0.4348  0.2840
 5633TIP3    H141094   3.308   5.481   9.956 -0.5700  0.2645  1.3246
 5633TIP3    H241095   3.215   5.400   9.867  1.0739 -0.5139  0.2416
 5634TIP3   OH241096   5.436   5.862  10.011  0.5793  0.2237 -0.1072
 5634TIP3    H141097   5.403   5.949   9.987  1.6655  0.5522 -0.4464
 5634TIP3    H241098   5.531   5.871  10.010  0.7004 -0.7608  0.6574
 5635TIP3   OH241099   1.662   6.010  11.387 -0.1339 -0.3436 -0.7891
 5635TIP3    H141100   1.712   5.933  11.413  0.3671 -0.8188 -2.9323
 5635TIP3    H241101   1.585   6.010  11.444 -0.1732 -2.4738 -0.7705
 5636TIP3   OH241102   0.538   1.900  10.921 -0.4483  0.6037  0.3457
 5636TIP3    H141103   0.561   1.960  10.992  1.4198  1.4880 -0.9155
 5636TIP3    H241104   0.491   1.956  10.858 -0.6177  0.2190  0.1298
 5637TIP3   OH241105   1.588   4.692  11.608  0.5622  0.0575  0.9174
 5637TIP3    H141106   1.567   4.784  11.591  0.5701 -0.2893 -1.2213
 5637TIP3    H241107   1.513   4.660  11.658 -0.7424  0.5829 -0.6114
 5638TIP3   OH241108   2.597   1.784  12.630  0.1926 -0.0266  0.2425
 5638TIP3    H141109   2.537   1.773  12.556 -0.8646 -0.5433  1.1416
 5638TIP3    H241110   2.555   1.735  12.701  1.5514 -0.1546  0.9755
 5639TIP3   OH241111   0.488   1.357  12.190  0.2067  0.1433 -0.2248
 5639TIP3    H141112   0.485   1.426  12.124 -1.0746  0.2203 -0.1191
 5639TIP3    H241113   0.514   1.278  12.142 -0.9539  0.1461 -0.8778
 5640TIP3   OH241114   4.784   6.335  11.758  0.6081  0.1687  0.6008
 5640TIP3    H141115   4.824   6.255  11.724 -0.0323  0.6717 -1.5327
 5640TIP3    H241116   4.690   6.324  11.739  0.1730  0.4550  2.4094
 5641TIP3   OH241117   3.665   6.499  12.571  0.1881 -0.5260  0.0786
 5641TIP3    H141118   3.738   6.558  12.555  0.6695 -1.0398  0.3308
 5641TIP3    H241119   3.590   6.541  12.529  0.3717  0.5828  0.8214
 5642TIP3   OH241120   4.744   3.010  10.349 -0.4350 -0.1424 -0.1161
 5642TIP3    H141121   4.772   2.939  10.406 -0.5681  0.1688  0.3477
 5642TIP3    H241122   4.824   3.040  10.306  0.0286  0.9297  1.4205
 5643TIP3   OH241123   5.648   3.303  12.656  0.4177  0.0817 -0.5496
 5643TIP3    H141124   5.655   3.386  12.702  0.5731 -0.1300 -0.1799
 5643TIP3    H241125   5.709   3.310  12.583  0.8656  0.0716 -0.1772
 5644TIP3   OH241126   2.831   1.887   9.348 -0.3620 -0.0049 -0.4936
 5644TIP3    H141127   2.925   1.867   9.344  0.3891  2.7668  0.9254
 5644TIP3    H241128   2.802   1.884   9.257  1.7135  1.4280 -1.2827
 5645TIP3   OH241129   1.661   3.236  12.239 -0.7323  0.4984  0.2213
 5645TIP3    H141130   1.668   3.204  12.329 -0.6303 -1.7430 -0.5251
 5645TIP3    H241131   1.567   3.233  12.220 -0.5558 -1.7320 -0.5904
 5646TIP3   OH241132   5.461   3.275  11.524 -0.2352 -0.8581 -0.1508
 5646TIP3    H141133   5.535   3.317  11.481 -0.7782 -0.5537 -0.7990
 5646TIP3    H241134   5.491   3.186  11.543  0.4017 -0.6372 -0.1134
 5647TIP3   OH241135   1.567   3.412  11.098 -0.1673 -0.1430 -0.1461
 5647TIP3    H141136   1.508   3.487  11.095 -0.5923 -0.4985 -1.0509
 5647TIP3    H241137   1.531   3.350  11.035  0.6762 -0.7446 -0.0626
 5648TIP3   OH241138   1.066   5.710  12.273  0.1307  0.2009 -0.0045
 5648TIP3    H141139   1.153   5.742  12.296  0.0422 -0.5717  1.5630
 5648TIP3    H241140   1.006   5.772  12.315 -0.0349 -1.2501  2.0869
 5649TIP3   OH241141   2.239   1.613  12.319  0.0795 -0.0148 -0.5952
 5649TIP3    H141142   2.183   1.668  12.373  1.8555  0.9195  0.3574
 5649TIP3    H241143   2.262   1.668  12.244  0.8163  0.0982 -0.2918
 5650TIP3   OH241144   2.428   6.248  10.660  0.0137  0.1694  0.3523
 5650TIP3    H141145   2.347   6.251  10.609  1.1997  0.9942 -1.6194
 5650TIP3    H241146   2.482   6.182  10.615  0.4065 -0.4740  1.7182
 5651TIP3   OH241147   1.539   4.830  11.210 -0.0973 -0.4607  0.5903
 5651TIP3    H141148   1.624   4.799  11.179 -0.1979 -0.1747  0.0141
 5651TIP3    H241149   1.525   4.912  11.163 -0.3662 -0.1416  1.2226
 5652TIP3   OH241150   5.652   2.969  10.134  0.2590  0.2413 -0.2449
 5652TIP3    H141151   5.721   2.931  10.079 -0.1575  0.1212 -0.6946
 5652TIP3    H241152   5.573   2.923  10.107 -0.1916  1.1635 -0.5219
 5653TIP3   OH241153   1.389   0.705  11.203 -0.5409 -0.3278  0.4455
 5653TIP3    H141154   1.436   0.624  11.185  0.7066  0.5060 -0.2586
 5653TIP3    H241155   1.337   0.720  11.124 -1.7245 -1.0373  1.0611
 5654TIP3   OH241156   2.551   6.495  10.672  0.3158 -0.3137 -0.0945
 5654TIP3    H141157   2.502   6.414  10.685  0.9794 -0.6286  0.5127
 5654TIP3    H241158   2.640   6.473  10.699 -0.1478  1.5352  3.4031
 5655TIP3   OH241159   4.334   0.228  11.657 -0.1190 -0.8397 -0.0727
 5655TIP3    H141160   4.354   0.272  11.740  3.4940  1.2785 -1.7840
 5655TIP3    H241161   4.260   0.276  11.621  0.8880  1.0100  0.1892
 5656TIP3   OH241162   1.879   4.804  12.184 -0.3524  0.0423  0.2730
 5656TIP3    H141163   1.924   4.766  12.259 -2.3073 -1.5705  0.7225
 5656TIP3    H241164   1.798   4.840  12.220 -1.7137 -1.4764 -1.1278
 5657TIP3   OH241165   0.818   2.693  10.856  0.1723 -0.1286 -0.1610
 5657TIP3    H141166   0.799   2.761  10.790  3.0474  0.4719 -0.5244
 5657TIP3    H241167   0.835   2.742  10.936  1.0066 -0.4801 -0.1084
 5658TIP3   OH241168   5.639   5.018   9.573  0.4272 -0.3062 -0.1513
 5658TIP3    H141169   5.728   4.983   9.573  0.1783 -0.9518  0.4109
 5658TIP3    H241170   5.651   5.112   9.588  0.9708 -0.5188  0.8271
 5659TIP3   OH241171   2.333   4.249   9.709 -0.3841  0.5331  0.2183
 5659TIP3    H141172   2.388   4.210   9.642 -0.8394  0.5100 -0.1463
 5659TIP3    H241173   2.245   4.216   9.691 -0.4598  0.2600  1.0321
 5660TIP3   OH241174   5.109   4.294  12.646  0.0687 -0.3517 -0.1566
 5660TIP3    H141175   5.042   4.253  12.701  1.0154  0.8427  2.0607
 5660TIP3    H241176   5.064   4.366  12.603 -0.6180 -1.0675 -0.6581
 5661TIP3   OH241177   4.895   4.242  12.797  0.2175 -0.3589 -0.2858
 5661TIP3    H141178   4.823   4.192  12.758  0.4069 -0.0233 -1.0806
 5661TIP3    H241179   4.852   4.308  12.851 -0.0389 -1.8061  1.3709
 5662TIP3   OH241180   0.389   5.312  10.260  0.7310  0.0978  0.4497
 5662TIP3    H141181   0.339   5.324  10.180 -0.5326  0.0638  1.2177
 5662TIP3    H241182   0.358   5.230  10.297  1.6584 -0.1443  0.7342
 5663TIP3   OH241183   4.071   1.370   9.696 -0.2125  0.1504 -0.0610
 5663TIP3    H141184   4.156   1.410   9.714 -1.3422  2.1666  1.1529
 5663TIP3    H241185   4.078   1.282   9.732  1.6473 -0.0929 -0.8621
 5664TIP3   OH241186   0.092   6.609  13.214 -0.1663  0.0565  0.3536
 5664TIP3    H141187   0.087   6.569  13.301  1.3845 -1.8547 -0.3408
 5664TIP3    H241188   0.063   6.539  13.155  1.2783  0.4018 -0.8237
 5665TIP3   OH241189   4.697   3.720  12.636 -0.0689 -0.1417 -0.3145
 5665TIP3    H141190   4.634   3.649  12.624  0.8344 -0.8726 -0.9752
 5665TIP3    H241191   4.657   3.796  12.594 -0.7322 -0.4509 -0.2539
 5666TIP3   OH241192   0.668   2.103  13.426  0.5509  0.8586 -0.2593
 5666TIP3    H141193   0.655   2.120  13.519  0.9626 -2.0818  0.4466
 5666TIP3    H241194   0.580   2.107  13.389  0.3182  1.5484  0.3480
 5667TIP3   OH241195   1.503   5.599  10.127  0.6835 -0.4685 -0.5398
 5667TIP3    H141196   1.542   5.601  10.215 -0.6091 -2.0203  0.1170
 5667TIP3    H241197   1.557   5.536  10.079 -0.0111 -1.3950 -0.1241
 5668TIP3   OH241198   5.724   3.696  11.116  0.0465 -0.6482  0.3701
 5668TIP3    H141199   5.723   3.745  11.199  0.2965  1.4413 -0.7949
 5668TIP3    H241200   5.632   3.691  11.090  0.1767  1.6631 -0.8067
 5669TIP3   OH241201   1.413   5.698  11.019 -0.5127  0.1432 -0.3290
 5669TIP3    H141202   1.458   5.618  11.044  0.8470  1.2211  0.8798
 5669TIP3    H241203   1.424   5.704  10.924 -0.0118 -0.7374 -0.3347
 5670TIP3   OH241204   5.346   4.422   9.632  0.3418  1.1000  0.6246
 5670TIP3    H141205   5.275   4.361   9.615 -0.0730  1.7103  0.1052
 5670TIP3    H241206   5.347   4.432   9.727 -1.1953  2.1386  0.5569
 5671TIP3   OH241207   1.811   4.445  10.680  0.3644  0.0092 -0.0927
 5671TIP3    H141208   1.833   4.375  10.619 -1.4977 -0.2714 -0.5195
 5671TIP3    H241209   1.764   4.400  10.751  0.6456  0.6129  0.4798
 5672TIP3   OH241210   1.103   4.077   9.559 -0.5552  1.1562 -0.2896
 5672TIP3    H141211   1.045   4.118   9.624 -1.8973  2.5740 -2.2572
 5672TIP3    H241212   1.191   4.086   9.596 -1.4298 -0.5112  2.5274
 5673TIP3   OH241213   3.443   0.390  10.353 -0.0004  0.0624  0.2763
 5673TIP3    H141214   3.384   0.319  10.379  0.1476 -0.3999 -0.6037
 5673TIP3    H241215   3.418   0.464  10.408 -0.0038 -0.7311  1.3756
 5674TIP3   OH241216   3.962   3.042  12.177 -0.4580 -0.8806  0.2714
 5674TIP3    H141217   3.924   2.982  12.242  0.4022 -0.4583  1.1839
 5674TIP3    H241218   3.942   3.129  12.211  0.3658 -0.6570  0.1891
 5675TIP3   OH241219   1.334   2.693  10.046 -0.0608 -0.1054  0.1859
 5675TIP3    H141220   1.396   2.626  10.076 -0.8650 -0.3620  1.3293
 5675TIP3    H241221   1.277   2.646   9.985 -0.1343 -0.2755  0.3831
 5676TIP3   OH241222   0.872   6.451  11.189  0.2375  0.0470  0.2678
 5676TIP3    H141223   0.803   6.454  11.122 -0.2075 -0.7735  0.6662
 5676TIP3    H241224   0.910   6.539  11.189 -0.4214  0.3421 -0.3701
 5677TIP3   OH241225   4.476   6.040  10.069  0.6395  0.0627 -0.8675
 5677TIP3    H141226   4.548   6.102  10.074  0.3594  0.3487 -0.2996
 5677TIP3    H241227   4.410   6.082  10.014 -0.4449  1.2154  1.2079
 5678TIP3   OH241228   3.501   0.722  12.190 -0.4332  0.4637  0.2297
 5678TIP3    H141229   3.441   0.684  12.254  1.5511 -0.4031  1.6519
 5678TIP3    H241230   3.508   0.814  12.215  0.4128  0.1065  1.3572
 5679TIP3   OH241231   5.379   4.814  12.435 -0.2582 -0.0409  0.0508
 5679TIP3    H141232   5.391   4.904  12.403 -0.4471  0.7363  2.0380
 5679TIP3    H241233   5.317   4.823  12.507 -0.3713 -1.8072  0.2072
 5680TIP3   OH241234   5.589   6.569  11.908  0.0831 -0.3758  0.4820
 5680TIP3    H141235   5.684   6.555  11.916  0.4803  1.8309  0.3197
 5680TIP3    H241236   5.550   6.509  11.971  1.4924 -2.1629 -0.2522
 5681TIP3   OH241237   3.734   0.418  11.102  0.3515  0.2689  0.3779
 5681TIP3    H141238   3.819   0.443  11.066 -0.2386  0.8461 -0.6640
 5681TIP3    H241239   3.701   0.352  11.041 -0.4167  0.8482  0.1469
 5682TIP3   OH241240   0.298   4.540  11.176 -0.6571 -0.0215 -0.5467
 5682TIP3    H141241   0.289   4.497  11.091  0.6802 -1.2618 -0.0889
 5682TIP3    H241242   0.312   4.632  11.155 -1.2363 -0.1656 -1.6233
 5683TIP3   OH241243   0.551   5.809  12.723  0.1682 -0.0320 -0.6957
 5683TIP3    H141244   0.559   5.857  12.806 -0.7385 -0.0612 -0.5748
 5683TIP3    H241245   0.634   5.764  12.713  0.6207  0.6881 -0.2503
 5684TIP3   OH241246   1.644   6.081  10.111  0.2176 -0.3078 -0.0468
 5684TIP3    H141247   1.587   6.108  10.183  1.3688  1.2124  0.3492
 5684TIP3    H241248   1.717   6.037  10.154  0.8167  0.4419 -0.2802
 5685TIP3   OH241249   4.658   4.308   9.875  0.2464 -0.0769 -0.0618
 5685TIP3    H141250   4.634   4.294   9.783 -0.9833 -0.7861  0.3369
 5685TIP3    H241251   4.708   4.231   9.899  0.0729 -0.1614  0.0258
 5686TIP3   OH241252   5.591   2.144  10.314 -0.1384  0.0059 -0.2151
 5686TIP3    H141253   5.544   2.092  10.379  1.4331  1.1614  1.9643
 5686TIP3    H241254   5.543   2.130  10.233 -1.6178 -2.2893  0.9534
 5687TIP3   OH241255   3.043   5.617  11.047 -0.3120  0.3482 -0.5038
 5687TIP3    H141256   2.952   5.631  11.073 -0.4045  3.5796 -2.1221
 5687TIP3    H241257   3.089   5.602  11.130 -1.7393  2.6052  0.7953
 5688TIP3   OH241258   2.929   5.017  13.089  0.1832  0.4072 -0.2666
 5688TIP3    H141259   2.987   4.965  13.145  1.5237  0.9574 -1.0960
 5688TIP3    H241260   2.841   4.995  13.119  0.7911 -0.8281  0.7072
 5689TIP3   OH241261   2.829   5.473   9.789 -0.3081  0.2050 -0.6687
 5689TIP3    H141262   2.854   5.547   9.844 -1.1317  0.6352 -0.8568
 5689TIP3    H241263   2.894   5.405   9.810 -0.1189  0.6372  0.2223
 5690TIP3   OH241264   6.193   5.105  11.399  0.2996 -0.1853 -0.4587
 5690TIP3    H141265   6.249   5.182  11.409 -1.1411  1.2702 -2.6484
 5690TIP3    H241266   6.104   5.137  11.417 -0.1972 -1.6660 -0.1139
 5691TIP3   OH241267   3.682   4.441  10.465  0.5958  0.0182  0.1874
 5691TIP3    H141268   3.767   4.472  10.433  0.9448  0.3480  1.3820
 5691TIP3    H241269   3.655   4.507  10.529 -0.3345 -0.3352  0.1780
 5692TIP3   OH241270   5.354   1.595   9.375 -0.5937  0.2412  0.1132
 5692TIP3    H141271   5.345   1.689   9.362 -1.9753  0.4002  1.8453
 5692TIP3    H241272   5.447   1.582   9.394 -0.3569  1.2207 -0.3408
 5693TIP3   OH241273   2.318   4.209  11.331  0.4683  0.2584  0.1048
 5693TIP3    H141274   2.278   4.281  11.283 -0.7092 -0.7244 -0.4477
 5693TIP3    H241275   2.351   4.150  11.263 -0.2323 -0.6174  0.5050
 5694TIP3   OH241276   4.207   1.611   9.391 -0.2503 -0.5088 -0.1675
 5694TIP3    H141277   4.289   1.564   9.409  0.1441  0.4893  0.6942
 5694TIP3    H241278   4.233   1.701   9.376 -1.1624 -0.2436 -0.2211
 5695TIP3   OH241279   0.612   1.577  10.601  0.8653  0.6771  0.0933
 5695TIP3    H141280   0.705   1.560  10.588  1.2174  2.9109 -0.8614
 5695TIP3    H241281   0.595   1.657  10.551 -1.5976  0.3007  0.1735
 5696TIP3   OH241282   3.013   0.599   2.307  0.9414 -0.3322  0.2377
 5696TIP3    H141283   2.953   0.559   2.370  1.4355 -1.6533 -0.0890
 5696TIP3    H241284   3.046   0.677   2.351 -0.7276  0.2297  0.5543
 5697TIP3   OH241285   3.012   5.808  12.677  0.7189 -0.6902 -0.1384
 5697TIP3    H141286   2.994   5.743  12.609  0.8525 -0.6004 -0.2604
 5697TIP3    H241287   2.985   5.891  12.638  1.3460 -0.5610 -0.3067
 5698TIP3   OH241288   2.272   4.854  10.282  0.4533 -0.0535 -0.0022
 5698TIP3    H141289   2.273   4.830  10.190 -0.7936 -1.4837  0.3212
 5698TIP3    H241290   2.355   4.821  10.317  0.6309 -0.1014 -0.4644
 5699TIP3   OH241291   3.645   4.771  12.282  0.4855 -0.3970 -0.3777
 5699TIP3    H141292   3.723   4.716  12.295 -0.4987 -1.2881  2.5351
 5699TIP3    H241293   3.580   4.734  12.342 -1.7986  1.0806 -1.8234
 5700TIP3   OH241294   6.562   5.268  12.316  0.3304  0.4537  0.6058
 5700TIP3    H141295   6.588   5.352  12.279  0.6367  0.0874 -0.0321
 5700TIP3    H241296   6.638   5.211  12.303 -0.7461 -0.6640 -1.3424
 5701TIP3   OH241297   2.625   3.967  10.719  0.5407 -0.0988  0.0484
 5701TIP3    H141298   2.659   3.954  10.807  0.6391 -1.9899 -0.2247
 5701TIP3    H241299   2.546   4.019  10.730  0.3279 -0.6589  1.3038
 5702TIP3   OH241300   4.580   5.621  10.407  0.3775 -0.0159  0.4109
 5702TIP3    H141301   4.654   5.648  10.352  0.1973  0.3793  0.3618
 5702TIP3    H241302   4.559   5.698  10.459  0.4087 -0.3251  0.8843
 5703TIP3   OH241303   6.351   2.083   9.985  0.2567 -0.1665 -1.4476
 5703TIP3    H141304   6.339   2.033  10.066  1.2602 -0.6767 -1.5986
 5703TIP3    H241305   6.262   2.107   9.959 -0.0001  2.3743  1.2286
 5704TIP3   OH241306   0.913   4.865  10.694 -0.1798 -0.2400 -0.2342
 5704TIP3    H141307   0.839   4.910  10.733 -1.4886 -1.7488 -0.8524
 5704TIP3    H241308   0.916   4.780  10.739  0.1557 -0.8215 -1.3141
 5705TIP3   OH241309   0.993   2.183   9.744 -0.6042  0.3546  0.1564
 5705TIP3    H141310   0.973   2.114   9.681 -1.3167  1.0519 -0.3970
 5705TIP3    H241311   1.088   2.193   9.739 -0.5681 -0.1387 -0.2264
 5706TIP3   OH241312   6.110   0.765  12.646  0.2018  0.3708 -0.1013
 5706TIP3    H141313   6.062   0.815  12.712 -0.6050 -0.5483  0.0331
 5706TIP3    H241314   6.063   0.682  12.639  1.1418 -0.1338 -0.7719
 5707TIP3   OH241315   3.437   0.181  11.318  0.4527  0.5364  0.2327
 5707TIP3    H141316   3.397   0.150  11.236 -1.3120  0.6810  0.9822
 5707TIP3    H241317   3.414   0.274  11.322 -1.4794  0.0693  1.9108
 5708TIP3   OH241318   4.311   6.482   9.879 -0.0984 -0.0379 -0.2909
 5708TIP3    H141319   4.283   6.534   9.955 -1.2369 -0.5926 -0.3208
 5708TIP3    H241320   4.288   6.537   9.804  0.0552  0.0468 -0.2775
 5709TIP3   OH241321   1.834   1.068  11.552 -0.5061  0.7956  0.1966
 5709TIP3    H141322   1.785   1.135  11.504 -1.5421 -1.3460 -1.9483
 5709TIP3    H241323   1.817   0.987  11.504  3.5574 -0.4628  0.5418
 5710TIP3   OH241324   2.838   0.043  10.635  0.0864 -0.2482  0.3316
 5710TIP3    H141325   2.814  -0.043  10.670 -0.3841 -1.4456 -2.6538
 5710TIP3    H241326   2.756   0.092  10.636 -0.2870 -0.8304 -0.5020
 5711TIP3   OH241327   0.994   4.095   9.315  0.1242  0.0117  0.1581
 5711TIP3    H141328   1.035   4.079   9.230 -0.1462 -0.0664  0.0425
 5711TIP3    H241329   1.060   4.069   9.378  1.2095  2.1556  0.0101
 5712TIP3   OH241330   6.332   1.028  11.860  0.4123  0.0691  0.0016
 5712TIP3    H141331   6.402   0.982  11.908  0.3928 -0.1900 -0.2195
 5712TIP3    H241332   6.348   1.120  11.878  2.1646  0.1987 -1.8217
 5713TIP3   OH241333   2.338   3.662  10.255  0.5756 -0.1742 -0.6256
 5713TIP3    H141334   2.372   3.666  10.344  0.8073 -0.3191 -0.7063
 5713TIP3    H241335   2.243   3.666  10.265  0.4925 -2.2066 -0.2252
 5714TIP3   OH241336   0.963   3.402  12.332 -0.6437  0.2245 -0.6059
 5714TIP3    H141337   0.972   3.446  12.247 -1.4644  0.6246 -0.4927
 5714TIP3    H241338   0.935   3.471  12.392  0.4411  0.0509  0.1161
 5715TIP3   OH241339   0.773   1.087  10.006 -0.0221  0.2889 -0.0947
 5715TIP3    H141340   0.708   1.035  10.054  0.7929  0.2894  1.0616
 5715TIP3    H241341   0.857   1.055  10.038  0.5405  0.6464 -1.1903
 5716TIP3   OH241342   3.866   2.192  10.326 -0.0518  0.2165  0.0343
 5716TIP3    H141343   3.802   2.220  10.391  1.0221  1.4691  0.5866
 5716TIP3    H241344   3.943   2.166  10.376 -0.7578 -3.4169 -0.4629
 5717TIP3   OH241345   3.386   2.068  11.014  0.2565 -0.2664 -0.2111
 5717TIP3    H141346   3.433   2.144  11.047 -0.9740  0.4591 -0.0859
 5717TIP3    H241347   3.388   2.005  11.086 -0.9859  0.6723  0.6653
 5718TIP3   OH241348   5.126   3.788  10.731  0.3453  0.5718 -0.1512
 5718TIP3    H141349   5.134   3.809  10.638 -1.9418  0.2412 -0.4942
 5718TIP3    H241350   5.042   3.826  10.757  1.5537  1.8828  2.1760
 5719TIP3   OH241351   5.438   0.844   9.823  0.2760 -0.1143  0.5474
 5719TIP3    H141352   5.414   0.932   9.796  1.3276  0.3449  1.0706
 5719TIP3    H241353   5.409   0.788   9.751 -1.4532  0.4973  0.7163
 5720TIP3   OH241354   5.745   6.277  11.457  0.4951 -0.2198 -0.0186
 5720TIP3    H141355   5.734   6.242  11.545  1.3500 -0.2842  0.0638
 5720TIP3    H241356   5.737   6.201  11.399  2.5283 -0.6260  0.1683
 5721TIP3   OH241357   1.235   2.334  12.768  0.7450  0.1649 -0.3576
 5721TIP3    H141358   1.208   2.269  12.703 -0.7236  0.0972  0.2848
 5721TIP3    H241359   1.279   2.283  12.836 -0.1858 -0.1409  0.0262
 5722TIP3   OH241360   6.180   0.912  12.890 -0.3581 -0.3380 -0.0309
 5722TIP3    H141361   6.232   0.836  12.863  1.0791  1.0629 -1.4203
 5722TIP3    H241362   6.204   0.925  12.982  1.7875  0.2307 -0.6194
 5723TIP3   OH241363   1.591   6.172  13.533 -0.2634 -0.1407  0.0943
 5723TIP3    H141364   1.616   6.165  13.625  1.2172  5.9027  0.5576
 5723TIP3    H241365   1.673   6.169  13.485 -0.7061 -0.2060 -0.6763
 5724TIP3   OH241366   3.295   4.465  11.976  0.0382 -0.5984 -0.5717
 5724TIP3    H141367   3.329   4.497  12.059 -1.2364 -1.0816  0.1643
 5724TIP3    H241368   3.306   4.538  11.915  1.7418 -0.5236 -0.2171
 5725TIP3   OH241369   2.062   4.671   9.440 -0.0400 -0.4351  0.0845
 5725TIP3    H141370   2.057   4.752   9.491  1.2511 -0.4762  0.2927
 5725TIP3    H241371   2.010   4.608   9.491  0.4710 -0.2288  0.8736
 5726TIP3   OH241372   0.551   0.694  13.204  0.1545  0.3523  0.2122
 5726TIP3    H141373   0.584   0.782  13.217 -0.6421  0.7342 -0.2465
 5726TIP3    H241374   0.614   0.653  13.145  0.1873  0.8359 -0.0943
 5727TIP3   OH241375   3.503   0.666  10.478  0.2174  0.0730  0.0492
 5727TIP3    H141376   3.521   0.717  10.399 -1.2368 -2.7287 -2.3012
 5727TIP3    H241377   3.586   0.624  10.500  0.7189  1.1544  0.2543
 5728TIP3   OH241378   1.119   4.841  11.369 -0.2979  0.1691  0.4838
 5728TIP3    H141379   1.195   4.792  11.400  0.2669  0.3551 -0.5421
 5728TIP3    H241380   1.081   4.879  11.448 -0.3177 -1.3019  1.2115
 5729TIP3   OH241381   3.591   2.968  12.566  0.4320 -0.0506 -0.0846
 5729TIP3    H141382   3.662   2.945  12.626  1.3040  0.0312 -1.0779
 5729TIP3    H241383   3.527   2.897  12.577  0.3465  0.2118  1.2875
 5730TIP3   OH241384   2.988   6.101   9.948 -0.5560  0.8147  0.3795
 5730TIP3    H141385   2.989   6.196   9.952  1.8490  0.8069  1.7105
 5730TIP3    H241386   3.076   6.077   9.919 -1.7103 -0.9958 -1.9685
 5731TIP3   OH241387   1.363   4.660  12.698  0.6849  0.5051  0.0362
 5731TIP3    H141388   1.325   4.577  12.725  2.2673 -0.4229 -0.5258
 5731TIP3    H241389   1.354   4.717  12.775 -0.8006  0.0017  0.2787
 5732TIP3   OH241390   0.752   0.775  12.232 -0.0383 -0.2266 -0.0587
 5732TIP3    H141391   0.752   0.775  12.136 -0.8739 -0.1080 -0.0598
 5732TIP3    H241392   0.667   0.738  12.256  0.2409 -0.4256  0.6404
 5733TIP3   OH241393   0.501   3.903  10.990 -0.6221 -0.3162 -0.2585
 5733TIP3    H141394   0.473   3.965  11.058  0.7628  0.0828 -0.0092
 5733TIP3    H241395   0.552   3.838  11.037  0.0639 -0.2274 -0.8627
 5734TIP3   OH241396   2.888   2.464  12.212 -0.0912 -0.8763 -0.1195
 5734TIP3    H141397   2.885   2.491  12.304  2.1915  0.3096 -0.3213
 5734TIP3    H241398   2.803   2.423  12.196 -0.0859 -2.2880  2.8479
 5735TIP3   OH241399   4.494   0.530  11.654 -0.2185 -0.2870  0.3214
 5735TIP3    H141400   4.545   0.543  11.574 -0.8154  0.2373  0.0177
 5735TIP3    H241401   4.523   0.445  11.687  0.0421 -0.5054 -0.4452
 5736TIP3   OH241402   6.221   2.809  10.023 -0.6403 -0.1712  0.0685
 5736TIP3    H141403   6.241   2.889  10.072 -2.8952  1.1520 -1.0228
 5736TIP3    H241404   6.216   2.837   9.931  0.4724 -1.9919 -0.6135
 5737TIP3   OH241405   1.657   2.825   9.141 -0.4415  0.0269  0.3017
 5737TIP3    H141406   1.565   2.824   9.166 -0.1284 -0.3698  1.5356
 5737TIP3    H241407   1.670   2.910   9.100 -1.0769  0.6281  1.2924
 5738TIP3   OH241408   5.276   6.329  11.743 -0.1033  0.1073  0.1673
 5738TIP3    H141409   5.187   6.349  11.772  0.1096  0.9002  0.3145
 5738TIP3    H241410   5.272   6.331  11.648 -0.2764 -0.0140  0.1726
 5739TIP3   OH241411   0.819   5.528  11.485 -0.2095 -0.2586  0.1088
 5739TIP3    H141412   0.765   5.457  11.522 -0.9798  0.5220  0.5255
 5739TIP3    H241413   0.844   5.580  11.561  3.1046 -1.8174  0.2804
 5740TIP3   OH241414   4.335   3.699  10.472  0.1189 -0.2474  0.0119
 5740TIP3    H141415   4.273   3.651  10.417 -0.6810  0.2450  0.4707
 5740TIP3    H241416   4.367   3.770  10.415  0.7703 -0.8926 -0.4378
 5741TIP3   OH241417   1.792   1.645  10.247  0.2380  0.2642  0.3977
 5741TIP3    H141418   1.841   1.667  10.168 -0.3904 -0.0478 -0.0902
 5741TIP3    H241419   1.838   1.570  10.284 -0.0153 -0.1915 -0.1967
 5742TIP3   OH241420   0.683   5.428  12.222  0.7849 -0.2554 -0.0524
 5742TIP3    H141421   0.694   5.516  12.185 -1.9937  0.1134 -0.2308
 5742TIP3    H241422   0.653   5.443  12.312 -1.1104 -0.9045 -0.5184
 5743TIP3   OH241423   1.969   2.482  20.359  0.2524  0.0535  0.4850
 5743TIP3    H141424   2.065   2.487  20.358  0.3093 -0.8737 -0.7604
 5743TIP3    H241425   1.946   2.492  20.451  1.6061 -0.6287  0.9328
 5744TIP3   OH241426   0.457   4.732  12.181 -0.1188 -0.1960  0.1045
 5744TIP3    H141427   0.408   4.706  12.103 -0.1539 -0.9760  0.3711
 5744TIP3    H241428   0.390   4.740  12.249 -0.0956  0.5357  0.0535
 5745TIP3   OH241429   1.783   1.261  12.438  0.5699 -0.3266  0.1121
 5745TIP3    H141430   1.845   1.214  12.496  2.3752  0.0540 -1.4069
 5745TIP3    H241431   1.787   1.213  12.356  0.7249  1.1541 -0.7696
 5746TIP3   OH241432   2.606   3.398  11.490 -0.5157  0.2860  0.2270
 5746TIP3    H141433   2.641   3.309  11.489 -0.3878  0.3369  0.2120
 5746TIP3    H241434   2.514   3.388  11.467 -1.0727 -0.1110  2.4149
 5747TIP3   OH241435   3.173   4.344  10.802  0.0021 -0.1435  0.0621
 5747TIP3    H141436   3.151   4.432  10.830 -0.2331  0.1020 -0.8531
 5747TIP3    H241437   3.257   4.325  10.842  0.4775  0.8423 -0.4508
 5748TIP3   OH241438   0.120   0.555  11.094 -0.1216 -0.0085 -0.4035
 5748TIP3    H141439   0.167   0.510  11.024 -0.9636 -0.5564 -0.6353
 5748TIP3    H241440   0.157   0.643  11.095 -1.5741  0.7680 -3.0824
 5749TIP3   OH241441   6.230   6.137  12.764  0.8309  0.5255  0.1966
 5749TIP3    H141442   6.250   6.199  12.694 -0.2235  0.2554 -0.3690
 5749TIP3    H241443   6.256   6.052  12.729  1.0303  0.4827  0.4454
 5750TIP3   OH241444   0.860   6.209  10.194 -0.5187 -0.3427 -0.4975
 5750TIP3    H141445   0.810   6.145  10.144 -1.6706 -0.1069  0.3025
 5750TIP3    H241446   0.844   6.292  10.150 -0.0999 -0.3939 -0.7548
 5751TIP3   OH241447   4.370   2.957  11.719  0.3563  0.7897 -0.1227
 5751TIP3    H141448   4.412   3.008  11.788 -0.8893  0.7077  0.7475
 5751TIP3    H241449   4.441   2.932  11.660  1.3761  1.3302  0.8352
 5752TIP3   OH241450   0.735   1.479  12.629 -0.1211 -0.9305  0.6219
 5752TIP3    H141451   0.784   1.496  12.549  1.5505 -1.3283  1.5253
 5752TIP3    H241452   0.649   1.449  12.598 -0.0643  0.4051 -0.9919
 5753TIP3   OH241453   1.657   1.986  10.162 -0.6314 -0.3854  0.2096
 5753TIP3    H141454   1.645   2.080  10.146 -0.2211 -0.4568 -0.5580
 5753TIP3    H241455   1.736   1.964  10.113 -0.1147 -0.9159  1.2662
 5754TIP3   OH241456   5.369   5.483  13.002 -0.0964 -0.8155  0.1701
 5754TIP3    H141457   5.300   5.417  13.000  1.2529 -2.2749 -1.6513
 5754TIP3    H241458   5.419   5.464  13.081 -1.0328 -0.5117  0.8540
 5755TIP3   OH241459   2.232   4.589  10.074  0.4749  0.2634 -0.0083
 5755TIP3    H141460   2.209   4.540   9.996 -0.2059  0.0621  0.3187
 5755TIP3    H241461   2.243   4.523  10.143  2.2454  0.3206 -0.1888
 5756TIP3   OH241462   1.790   4.804  11.081  0.2842  0.3619 -0.5759
 5756TIP3    H141463   1.799   4.850  10.998  1.6210  0.2661 -0.5056
 5756TIP3    H241464   1.846   4.727  11.072 -0.7828 -0.4818 -0.1520
 5757TIP3   OH241465   6.275   6.070  10.322  0.5242 -0.0255  0.2502
 5757TIP3    H141466   6.357   6.089  10.369  0.2087  0.3061  0.6827
 5757TIP3    H241467   6.210   6.124  10.367 -0.3470 -1.8379  1.2933
 5758TIP3   OH241468   4.570   2.554  10.199 -0.5085  0.0747 -0.3450
 5758TIP3    H141469   4.616   2.493  10.258 -2.2881 -1.4012 -0.4079
 5758TIP3    H241470   4.634   2.623  10.182  0.8021 -0.5797  1.5862
 5759TIP3   OH241471   1.849   3.981  11.387  0.4793  0.0948 -0.2177
 5759TIP3    H141472   1.939   3.948  11.380  1.1450  1.2118  2.0652
 5759TIP3    H241473   1.856   4.075  11.371 -0.6955 -0.1106 -2.2759
 5760TIP3   OH241474   3.712   3.693  11.471  0.1958  0.1093  0.6200
 5760TIP3    H141475   3.792   3.671  11.422 -0.5829 -1.4838 -0.0007
 5760TIP3    H241476   3.641   3.681  11.408 -0.5290  2.2433  0.9426
 5761TIP3   OH241477   1.132   0.314  11.476  0.4805  0.8936 -0.0715
 5761TIP3    H141478   1.176   0.399  11.483  1.1176  0.6072 -0.4694
 5761TIP3    H241479   1.174   0.272  11.400  1.0423 -0.2724  0.8648
 5762TIP3   OH241480   0.221   2.345  12.378  0.4257 -0.0458  0.0930
 5762TIP3    H141481   0.192   2.434  12.397 -0.5932  0.4268 -3.1384
 5762TIP3    H241482   0.295   2.331  12.437 -1.0403  1.8772  2.5959
 5763TIP3   OH241483   0.295   3.728  11.787 -0.2610 -0.3572 -0.4085
 5763TIP3    H141484   0.376   3.754  11.743 -1.1897  1.3265 -1.1963
 5763TIP3    H241485   0.300   3.632  11.790  2.2204 -0.2801  0.5286
 5764TIP3   OH241486   1.901   3.594  12.730 -0.3908  0.1218  0.1621
 5764TIP3    H141487   1.970   3.657  12.711 -0.9229  0.9310  0.8298
 5764TIP3    H241488   1.819   3.642  12.714 -0.8299  0.1458  2.1458
 5765TIP3   OH241489   0.206   2.815  12.923  0.2939  0.0031  0.1205
 5765TIP3    H141490   0.225   2.723  12.943 -1.6234 -0.3870  0.3426
 5765TIP3    H241491   0.131   2.811  12.863  1.1238  1.4010 -1.0937
 5766TIP3   OH241492   3.392   0.378  10.733 -0.3153 -0.1630  0.0667
 5766TIP3    H141493   3.318   0.319  10.744  0.0938 -0.7171 -0.1124
 5766TIP3    H241494   3.467   0.320  10.719  0.1638  0.3894  0.3237
 5767TIP3   OH241495   3.482   0.438  12.642 -0.3501 -1.0674  0.1078
 5767TIP3    H141496   3.440   0.363  12.600 -1.1253  0.1268 -1.3464
 5767TIP3    H241497   3.442   0.441  12.729 -2.6917 -0.5222 -0.9088
 5768TIP3   OH241498   4.181   1.254  12.010  0.3076  1.0000 -0.0528
 5768TIP3    H141499   4.194   1.214  11.924 -0.3660 -0.0722  0.3235
 5768TIP3    H241500   4.107   1.313  11.998 -0.0199  0.5807 -0.1324
 5769TIP3   OH241501   2.976   4.777  11.899 -0.2220 -0.1408 -0.0499
 5769TIP3    H141502   2.932   4.696  11.924 -1.2841 -0.0187 -1.4393
 5769TIP3    H241503   2.959   4.787  11.806  1.3160  0.8292 -0.2680
 5770TIP3   OH241504   1.650   5.184  10.612 -0.1607  1.1499  0.1014
 5770TIP3    H141505   1.567   5.229  10.627  0.0130  0.9113  2.1093
 5770TIP3    H241506   1.709   5.221  10.677  1.0656  0.6679 -0.7024
 5771TIP3   OH241507   2.193   3.567  12.122 -0.2677 -0.0879  0.2521
 5771TIP3    H141508   2.268   3.560  12.063 -1.0570 -0.7048 -0.7045
 5771TIP3    H241509   2.151   3.650  12.099 -1.5864 -1.1263 -1.3353
 5772TIP3   OH241510   1.763   2.786  12.698 -0.6040 -0.5456  0.0862
 5772TIP3    H141511   1.827   2.724  12.663 -1.3789 -0.1961 -2.1014
 5772TIP3    H241512   1.815   2.854  12.740  0.4140 -0.9038 -0.5676
 5773TIP3   OH241513   4.367   5.058  11.726 -0.3324  0.7845  0.4957
 5773TIP3    H141514   4.344   5.005  11.803  1.7305  1.3845  1.6051
 5773TIP3    H241515   4.429   5.004  11.677  0.9205  1.6948  1.0417
 5774TIP3   OH241516   2.113   0.247  11.290  0.6206  0.5480  0.1872
 5774TIP3    H141517   2.025   0.266  11.259  0.6253  0.5615  0.1826
 5774TIP3    H241518   2.110   0.264  11.384  1.0016  1.9490 -0.0335
 5775TIP3   OH241519   0.773   5.170  13.000 -0.3238  0.0653  0.1434
 5775TIP3    H141520   0.708   5.239  13.014  0.6923  0.8197  1.3911
 5775TIP3    H241521   0.831   5.176  13.077  1.5844 -0.1458 -1.2105
 5776TIP3   OH241522   0.414   2.439  10.655  0.3231  0.5683 -0.4480
 5776TIP3    H141523   0.433   2.456  10.747  0.5737 -1.5880 -0.0630
 5776TIP3    H241524   0.492   2.468  10.609  0.8965  0.1020  0.2065
 5777TIP3   OH241525   2.253   2.533  10.121 -0.1616 -0.0768  0.1019
 5777TIP3    H141526   2.272   2.483  10.201  0.6854 -0.1202 -0.1213
 5777TIP3    H241527   2.184   2.483  10.078  1.1965 -1.5077 -0.5099
 5778TIP3   OH241528   4.743   0.442  10.273  0.1035 -0.4244  0.4386
 5778TIP3    H141529   4.810   0.465  10.337 -2.6035  2.0377  2.6785
 5778TIP3    H241530   4.723   0.350  10.291  1.6496 -0.6829  0.9107
 5779TIP3   OH241531   6.278   5.591  10.094  0.1250  0.0216  0.1198
 5779TIP3    H141532   6.273   5.496  10.086 -1.4568 -0.0749  1.6692
 5779TIP3    H241533   6.343   5.606  10.163  0.1821  0.0702  0.0568
 5780TIP3   OH241534   2.956   1.417  12.474 -0.2844  0.2649  0.2804
 5780TIP3    H141535   2.954   1.460  12.560  0.0286  1.2230 -0.1823
 5780TIP3    H241536   3.023   1.349  12.483  0.7447  1.2690  0.3757
 5781TIP3   OH241537   5.877   2.363   9.727 -0.1365  0.2296 -0.2950
 5781TIP3    H141538   5.966   2.394   9.711 -0.2310  0.7678  0.1854
 5781TIP3    H241539   5.861   2.384   9.819 -0.3997 -0.7626 -0.0963
 5782TIP3   OH241540   4.746   2.682  10.679  0.2116 -0.0139 -0.0505
 5782TIP3    H141541   4.673   2.672  10.740  0.5671  1.9135  0.7553
 5782TIP3    H241542   4.785   2.594  10.674 -1.0862 -0.6797  0.8453
 5783TIP3   OH241543   6.087   6.191  13.296  0.4317  0.2149  0.4639
 5783TIP3    H141544   6.001   6.208  13.333  0.3498 -1.6577  1.2894
 5783TIP3    H241545   6.076   6.204  13.202 -0.6648  0.3029  0.5933
 5784TIP3   OH241546   3.956   0.209  11.046  0.1029 -0.1991 -0.2203
 5784TIP3    H141547   3.993   0.289  11.085  2.3856 -1.3492  0.1579
 5784TIP3    H241548   3.941   0.231  10.954 -2.3919  1.5988  0.5177
 5785TIP3   OH241549   1.523   4.953  11.492 -0.2931 -0.0600 -0.0497
 5785TIP3    H141550   1.516   4.929  11.399  0.8350 -1.1132  0.1179
 5785TIP3    H241551   1.566   5.038  11.491  1.6404 -0.9847 -0.4615
 5786TIP3   OH241552   0.638   1.139  11.188 -0.3446 -0.1871  0.0867
 5786TIP3    H141553   0.607   1.163  11.275  0.5181 -0.4919  0.4944
 5786TIP3    H241554   0.706   1.204  11.168  1.0713 -1.4444  0.6296
 5787TIP3   OH241555   4.380   3.072  11.027  0.9289  0.3084 -0.1171
 5787TIP3    H141556   4.384   3.159  11.067 -1.3253  0.4445 -0.0764
 5787TIP3    H241557   4.293   3.040  11.047  1.5020 -1.7432 -0.6516
 5788TIP3   OH241558   3.294   2.311   9.716 -0.3022  0.0834  0.4007
 5788TIP3    H141559   3.246   2.389   9.691  0.5854  0.6264  0.3631
 5788TIP3    H241560   3.373   2.343   9.759  0.0905 -0.7840  0.3658
 5789TIP3   OH241561   1.742   0.576  12.987  0.2779  0.0910  0.2881
 5789TIP3    H141562   1.750   0.574  13.082 -0.6643 -4.7886  0.5138
 5789TIP3    H241563   1.832   0.573  12.955  0.6022  1.7622  0.9527
 5790TIP3   OH241564   4.041   5.490   9.964  0.0581 -0.4813 -0.3418
 5790TIP3    H141565   3.985   5.546   9.911  1.6394 -0.1326 -1.7181
 5790TIP3    H241566   4.097   5.550  10.014 -0.4935 -0.8257  0.7223
 5791TIP3   OH241567   6.412   5.063  13.616  0.5747 -0.0726  0.1658
 5791TIP3    H141568   6.367   5.051  13.533  1.4567 -0.0713 -0.3242
 5791TIP3    H241569   6.367   5.005  13.677 -0.0768 -0.0695 -0.3114
 5792TIP3   OH241570   6.033   5.080  10.784 -0.0878  0.1197 -0.4873
 5792TIP3    H141571   6.016   5.174  10.794 -0.6835 -0.0248 -0.1076
 5792TIP3    H241572   5.952   5.038  10.812 -0.2716 -0.4694 -1.8079
 5793TIP3   OH241573   5.061   6.498  12.522  0.2367  0.3469  0.7316
 5793TIP3    H141574   4.984   6.460  12.481 -0.4180  0.8197  1.4871
 5793TIP3    H241575   5.037   6.507  12.615  1.7779 -1.0004  1.3099
 5794TIP3   OH241576   0.478   5.055  12.732  0.3420  0.4989 -0.4081
 5794TIP3    H141577   0.480   5.121  12.802 -1.2796  0.2654 -0.0987
 5794TIP3    H241578   0.484   5.106  12.651  2.2870  0.7713 -0.1474
 5795TIP3   OH241579   0.824   0.886  12.930  0.0097  0.0081  0.2745
 5795TIP3    H141580   0.824   0.971  12.887  0.2367  0.7080  1.6089
 5795TIP3    H241581   0.847   0.905  13.021  0.6364 -1.5408  0.4736
 5796TIP3   OH241582   0.719   2.437  10.722 -0.3802 -0.3072  0.2388
 5796TIP3    H141583   0.659   2.373  10.760  0.0357 -0.2446  1.0151
 5796TIP3    H241584   0.728   2.505  10.789  0.4628 -0.2505  0.0819
 5797TIP3   OH241585   3.596   0.152  11.835  0.4025  0.4799  0.3780
 5797TIP3    H141586   3.527   0.114  11.889 -0.0084  0.0040 -0.4474
 5797TIP3    H241587   3.550   0.206  11.771  0.7056 -0.4341 -0.6608
 5798TIP3   OH241588   0.812   5.242  12.056  0.2707 -0.0114 -0.1375
 5798TIP3    H141589   0.784   5.304  12.124 -1.2685  0.7820 -1.4155
 5798TIP3    H241590   0.834   5.162  12.104  0.6213  0.9643  1.4073
 5799TIP3   OH241591   3.997   4.660  10.419 -0.2089  0.3032 -0.0167
 5799TIP3    H141592   4.000   4.755  10.425 -1.8539  0.4146 -0.3938
 5799TIP3    H241593   3.985   4.631  10.510 -0.7130  0.5338 -0.0021
 5800TIP3   OH241594   5.860   6.181  10.232 -0.3364 -0.1282 -0.0169
 5800TIP3    H141595   5.839   6.186  10.139 -2.4689 -2.3582  0.2295
 5800TIP3    H241596   5.810   6.253  10.272 -0.3041  0.1395 -0.4522
 5801TIP3   OH241597   3.529   6.148  11.900 -0.3234  0.1493 -0.7424
 5801TIP3    H141598   3.564   6.237  11.906 -2.4821  0.9830  0.7034
 5801TIP3    H241599   3.556   6.117  11.814 -0.0930  2.4694 -1.5672
 5802TIP3   OH241600   3.942   6.011  10.952 -0.6845 -0.4189  0.3367
 5802TIP3    H141601   3.887   6.049  11.020  1.2220  2.6272  0.3410
 5802TIP3    H241602   4.001   5.952  10.999 -1.5390 -0.9420  0.7931
 5803TIP3   OH241603   2.289   1.566  11.911 -0.5723 -0.0278  0.2560
 5803TIP3    H141604   2.351   1.631  11.945  0.1008 -1.4965  2.0278
 5803TIP3    H241605   2.342   1.511  11.853 -0.3252 -0.8879  1.2630
 5804TIP3   OH241606   6.370   4.504  11.555  0.2981  0.2258 -0.3306
 5804TIP3    H141607   6.429   4.556  11.610 -0.2289  0.2519  0.2294
 5804TIP3    H241608   6.378   4.543  11.468  0.3353  0.8869 -0.0424
 5805TIP3   OH241609   2.402   2.031   9.776 -0.0559  0.3535  0.3262
 5805TIP3    H141610   2.460   2.102   9.803 -1.0740  0.6454  1.8409
 5805TIP3    H241611   2.345   2.016   9.851 -0.6269 -1.2938 -0.3889
 5806TIP3   OH241612   6.607   0.198  11.075  0.0312  0.1661 -0.2949
 5806TIP3    H141613   6.555   0.263  11.028  1.8829  0.4247 -2.1388
 5806TIP3    H241614   6.674   0.171  11.012 -0.0331 -2.7820  0.7627
 5807TIP3   OH241615   1.738   4.698   9.458  0.1771  0.3319  0.0019
 5807TIP3    H141616   1.808   4.696   9.393 -0.2856 -3.3872 -0.5918
 5807TIP3    H241617   1.658   4.681   9.408 -0.5471  0.0336  1.2237
 5808TIP3   OH241618   3.873   2.443   9.749 -0.2880  0.0307 -0.6788
 5808TIP3    H141619   3.924   2.369   9.719 -0.4193 -0.4149  0.1634
 5808TIP3    H241620   3.933   2.517   9.746 -0.2293 -0.0488 -1.7702
 5809TIP3   OH241621   2.017   2.003   9.695 -0.3337 -0.2547 -0.3154
 5809TIP3    H141622   2.032   2.075   9.635  0.1317  1.1790  1.4187
 5809TIP3    H241623   2.101   1.958   9.701 -0.3117 -0.2418 -0.5265
 5810TIP3   OH241624   2.573   4.486  12.650 -0.3341  0.3427  0.3810
 5810TIP3    H141625   2.658   4.518  12.681  0.3512 -0.5077 -0.5432
 5810TIP3    H241626   2.558   4.406  12.701  0.5786 -0.8084 -1.0784
 5811TIP3   OH241627   5.346   3.705   9.990  0.2189 -0.0411 -0.2650
 5811TIP3    H141628   5.396   3.631   9.956  0.6194 -0.4386  1.1092
 5811TIP3    H241629   5.257   3.690   9.960  0.4192 -0.7620 -0.5183
 5812TIP3   OH241630   0.220   5.171   9.656  0.3580  0.4317 -0.1066
 5812TIP3    H141631   0.268   5.097   9.618  2.9861  2.4442 -1.0119
 5812TIP3    H241632   0.130   5.160   9.625  0.7941 -2.0195 -0.7045
 5813TIP3   OH241633   1.749   5.969  12.657 -0.5004 -0.2512 -0.0246
 5813TIP3    H141634   1.690   6.010  12.594 -0.1351  0.5862  0.1569
 5813TIP3    H241635   1.733   6.018  12.738  0.1985 -0.2407  0.1071
 5814TIP3   OH241636   3.715   0.430  11.615 -0.3757  0.2678 -0.0209
 5814TIP3    H141637   3.723   0.510  11.563 -0.8391  0.0346 -0.4575
 5814TIP3    H241638   3.699   0.361  11.551  0.8252 -0.3123  0.2934
 5815TIP3   OH241639   2.564   0.905  12.568  0.0296 -0.3940  0.0829
 5815TIP3    H141640   2.485   0.852  12.563  0.0195 -0.2746 -1.3297
 5815TIP3    H241641   2.534   0.992  12.595 -0.3393 -0.3278 -0.5275
 5816TIP3   OH241642   0.820   2.692   9.663 -0.1688 -0.1238  0.5957
 5816TIP3    H141643   0.784   2.623   9.607  2.4957 -0.7784 -0.4186
 5816TIP3    H241644   0.821   2.654   9.751 -0.9864 -0.4186  0.4915
 5817TIP3   OH241645   6.557   1.202  10.924 -0.7732  0.0864  0.1393
 5817TIP3    H141646   6.635   1.258  10.930 -1.4432  0.9264  1.6075
 5817TIP3    H241647   6.534   1.203  10.831  0.5010  0.4541 -0.2020
 5818TIP3   OH241648   3.465   2.784  11.193  0.1020  0.0398  0.4773
 5818TIP3    H141649   3.471   2.784  11.288  0.0836  1.1493  0.4914
 5818TIP3    H241650   3.547   2.746  11.163  0.8294  1.2085  0.9194
 5819TIP3   OH241651   5.852   5.228  12.151  0.3782 -0.1580  0.3363
 5819TIP3    H141652   5.837   5.182  12.068 -1.6323 -0.4830  0.8278
 5819TIP3    H241653   5.838   5.161  12.218 -0.9776  0.7537  1.0147
 5820TIP3   OH241654   0.701   5.740   9.544  0.3684 -0.5474  0.4828
 5820TIP3    H141655   0.621   5.707   9.583  0.3113  0.4598  1.2510
 5820TIP3    H241656   0.673   5.815   9.491  0.9129  0.4884  1.6218
 5821TIP3   OH241657   4.573   3.983  10.715 -0.2674  0.0353  0.4934
 5821TIP3    H141658   4.607   3.936  10.638 -1.0592 -0.3342  0.3591
 5821TIP3    H241659   4.581   4.075  10.692  0.6773 -0.0374  0.4846
 5822TIP3   OH241660   1.663   0.559  12.535 -0.1882 -0.0994 -0.5282
 5822TIP3    H141661   1.568   0.572  12.544  0.0506  1.2349  0.3533
 5822TIP3    H241662   1.672   0.504  12.457 -1.6992 -0.4321 -0.5027
 5823TIP3   OH241663   2.699   6.306  10.495  0.3037 -1.0358  0.0807
 5823TIP3    H141664   2.648   6.235  10.456 -0.7126  0.2578 -1.0497
 5823TIP3    H241665   2.655   6.386  10.465  1.0095  0.0659  1.8533
 5824TIP3   OH241666   1.548   4.935   9.932 -0.0529 -0.2501  0.0580
 5824TIP3    H141667   1.497   4.859   9.904  0.2430 -0.2266 -0.5634
 5824TIP3    H241668   1.637   4.917   9.900  0.5300 -0.6640  1.7973
 5825TIP3   OH241669   1.699   6.352  10.031  0.7043 -0.0023  0.2535
 5825TIP3    H141670   1.788   6.363   9.995 -0.1151 -0.9384 -2.2956
 5825TIP3    H241671   1.701   6.266  10.072  1.1912  0.3579  1.0136
 5826TIP3   OH241672   1.562   6.531  11.953 -0.5244  0.3320  0.8657
 5826TIP3    H141673   1.625   6.577  11.898 -1.2853  0.7575  0.3303
 5826TIP3    H241674   1.614   6.465  11.999  0.6461  1.8017  1.7777
 5827TIP3   OH241675   2.837   4.540  12.449  0.1048  0.4617 -0.7173
 5827TIP3    H141676   2.767   4.479  12.471  1.9462 -2.4149 -2.2374
 5827TIP3    H241677   2.880   4.559  12.533  0.5658 -1.8129 -0.3867
 5828TIP3   OH241678   6.169   6.313  10.430  0.3253  0.1081  0.6299
 5828TIP3    H141679   6.086   6.356  10.408  0.4454 -1.4486 -3.6785
 5828TIP3    H241680   6.233   6.384  10.429 -0.2854  0.6830 -0.8582
 5829TIP3   OH241681   4.200   5.138   9.799  0.3164  0.1399  0.2615
 5829TIP3    H141682   4.192   5.192   9.720  0.1184 -1.6122 -0.9624
 5829TIP3    H241683   4.294   5.133   9.815  0.4865 -0.8985 -0.9069
 5830TIP3   OH241684   4.513   3.422  11.974 -0.1844 -0.1399  0.5433
 5830TIP3    H141685   4.602   3.437  12.007  0.4397  1.2659 -1.5977
 5830TIP3    H241686   4.456   3.471  12.034  0.9156  2.4433 -0.3833
 5831TIP3   OH241687   5.000   1.877  11.848 -0.6568  0.4712  0.0480
 5831TIP3    H141688   4.932   1.814  11.826  0.1712 -0.6598  0.6120
 5831TIP3    H241689   5.077   1.846  11.800 -0.8430  2.5342 -1.7238
 5832TIP3   OH241690   2.350   1.077  10.280  0.0852  0.0216 -0.5608
 5832TIP3    H141691   2.351   0.983  10.294  0.6893  0.1553  0.4567
 5832TIP3    H241692   2.258   1.100  10.272 -0.0115 -0.8099 -2.0598
 5833TIP3   OH241693   2.643   6.117  10.798  0.8033  0.1356 -0.6335
 5833TIP3    H141694   2.563   6.165  10.817  0.5631 -0.0804 -1.0684
 5833TIP3    H241695   2.613   6.037  10.755  1.2921  0.5474 -1.8093
 5834TIP3   OH241696   0.275   0.134  12.025 -0.7795 -0.0567 -0.0487
 5834TIP3    H141697   0.181   0.120  12.025 -0.8663 -1.1061  4.4227
 5834TIP3    H241698   0.286   0.221  12.064  0.0957 -0.3219  0.3311
 5835TIP3   OH241699   2.252   4.718  12.220 -0.1714  0.3844  0.2241
 5835TIP3    H141700   2.345   4.707  12.199 -0.1496  0.6549  0.1813
 5835TIP3    H241701   2.240   4.668  12.301  0.0315  0.4301  0.2825
 5836TIP3   OH241702   0.509   2.330  12.740 -0.3695 -0.1995 -0.5965
 5836TIP3    H141703   0.495   2.424  12.732  0.5993  0.0850  0.6424
 5836TIP3    H241704   0.536   2.318  12.831  2.0776 -1.3045 -1.3818
 5837TIP3   OH241705   0.251   2.398   9.719 -0.2616 -0.2461  0.1978
 5837TIP3    H141706   0.327   2.456   9.716  0.7295 -1.5295 -1.2157
 5837TIP3    H241707   0.179   2.450   9.684 -0.1265  1.0344  1.6798
 5838TIP3   OH241708   5.152   5.960  11.477  0.5171 -0.0086 -0.1428
 5838TIP3    H141709   5.228   5.985  11.424  0.4625 -0.5544 -0.4861
 5838TIP3    H241710   5.185   5.958  11.567  0.5282  1.2576 -0.0983
 5839TIP3   OH241711   0.912   0.091  11.319  0.1188  0.1676  0.0306
 5839TIP3    H141712   0.988   0.087  11.376 -1.3042 -1.4039  1.9608
 5839TIP3    H241713   0.837   0.096  11.378 -1.4240 -1.1210 -1.6635
 5840TIP3   OH241714   0.704   2.210  11.729 -0.3328 -0.1392 -0.3288
 5840TIP3    H141715   0.793   2.183  11.708 -0.5442  0.1213 -1.6370
 5840TIP3    H241716   0.662   2.131  11.764 -0.1777 -0.8096 -1.6194
 5841TIP3   OH241717   2.014   3.853  12.428  0.3321 -0.3405  0.1562
 5841TIP3    H141718   2.022   3.833  12.521  1.3856  1.3542  0.4803
 5841TIP3    H241719   2.087   3.912  12.410  0.1029 -0.5833 -1.7344
 5842TIP3   OH241720   3.537   3.051  10.612 -0.0158  0.2457 -0.5584
 5842TIP3    H141721   3.594   3.126  10.595  3.4941 -2.2955 -1.1505
 5842TIP3    H241722   3.493   3.033  10.529  0.3880  0.6937 -0.8704
 5843TIP3   OH241723   0.666   5.397  13.112  0.1095  0.1036 -0.4410
 5843TIP3    H141724   0.739   5.438  13.159 -0.1787 -0.1971  0.2848
 5843TIP3    H241725   0.604   5.374  13.181  0.9514 -3.0514 -0.6142
 5844TIP3   OH241726   1.126   2.260  13.786  0.0220  0.1804  0.0356
 5844TIP3    H141727   1.193   2.277  13.720  0.3836  0.3885  0.4483
 5844TIP3    H241728   1.076   2.342  13.790 -1.4452 -0.5825 -1.5913
 5845TIP3   OH241729   1.077   1.953  11.494  0.4088  0.2331 -0.8330
 5845TIP3    H141730   0.984   1.956  11.518  0.5112 -1.1390 -0.1947
 5845TIP3    H241731   1.079   1.907  11.411  0.6235 -1.2497 -0.0454
 5846TIP3   OH241732   4.970   5.225  10.440  0.3690  0.0943 -0.0056
 5846TIP3    H141733   5.042   5.165  10.420  1.2664  1.2944 -0.5257
 5846TIP3    H241734   5.008   5.288  10.500  0.0121  1.2385 -0.9452
 5847TIP3   OH241735   4.857   1.302  11.983 -0.0224  0.0619 -0.3617
 5847TIP3    H141736   4.938   1.299  12.034  0.1881 -0.3007 -0.7062
 5847TIP3    H241737   4.885   1.287  11.893 -0.3918  0.6568 -0.5845
 5848TIP3   OH241738   6.219   0.323  12.709 -0.6077 -0.1563 -0.2177
 5848TIP3    H141739   6.291   0.349  12.766 -1.0925 -2.0502  1.3624
 5848TIP3    H241740   6.257   0.320  12.622  0.6372  1.0503  0.2600
 5849TIP3   OH241741   5.758   1.971  11.293  0.2122 -0.3279  0.1360
 5849TIP3    H141742   5.688   1.908  11.310 -0.2309  0.1789  0.2591
 5849TIP3    H241743   5.740   2.003  11.205  1.0111 -1.0862 -0.3114
 5850TIP3   OH241744   3.495   0.507  10.107 -0.6846 -0.1368 -0.1650
 5850TIP3    H141745   3.441   0.466  10.040  0.1218 -0.5167 -0.6043
 5850TIP3    H241746   3.495   0.445  10.180 -1.0071 -0.0342 -0.0739
 5851TIP3   OH241747   2.531   6.011  11.297 -0.2905 -0.3826  0.3221
 5851TIP3    H141748   2.569   6.072  11.234 -0.6839  0.7799  1.1829
 5851TIP3    H241749   2.589   6.017  11.373 -0.5930 -0.7508  0.5843
 5852TIP3   OH241750   5.800   4.953  10.906  0.5452  0.4079  0.2086
 5852TIP3    H141751   5.850   4.871  10.918 -0.1727 -0.1093 -0.2598
 5852TIP3    H241752   5.712   4.924  10.882 -0.0333  1.2996  1.1360
 5853TIP3   OH241753   0.294   4.860  12.693 -0.2946  0.3535 -0.1636
 5853TIP3    H141754   0.235   4.936  12.702 -0.4873  0.3883 -1.5541
 5853TIP3    H241755   0.381   4.894  12.713 -0.6270  0.4643  1.2096
 5854TIP3   OH241756   2.439   5.904   9.696  0.1792 -0.5870 -0.5409
 5854TIP3    H141757   2.362   5.932   9.745  0.3206  0.4846 -0.9213
 5854TIP3    H241758   2.403   5.848   9.627 -0.6561  2.1944 -2.5321
 5855TIP3   OH241759   4.291   2.324  10.318  0.1383  0.0470  0.3371
 5855TIP3    H141760   4.371   2.294  10.361  0.2794 -0.8883 -0.5456
 5855TIP3    H241761   4.290   2.279  10.233  0.3071  2.4620 -1.0362
 5856TIP3   OH241762   1.348   0.450  12.538  0.4640  0.2254 -0.0562
 5856TIP3    H141763   1.349   0.546  12.538  1.8836  0.2476 -1.2970
 5856TIP3    H241764   1.275   0.427  12.481 -0.4275  0.5339  0.9245
 5857TIP3   OH241765   4.302   2.230  12.514  0.1305  0.9932 -0.3955
 5857TIP3    H141766   4.391   2.250  12.484 -0.1067  1.0092 -1.1072
 5857TIP3    H241767   4.311   2.148  12.563  0.5906  1.1632 -0.1956
 5858TIP3   OH241768   0.541   3.995  12.220  0.0529 -0.1575 -0.3033
 5858TIP3    H141769   0.497   3.991  12.305 -0.4712 -2.8200 -0.6150
 5858TIP3    H241770   0.471   3.984  12.156  0.5061  1.3467 -1.1107
 5859TIP3   OH241771   0.748   5.456   9.516  0.1748 -0.1145  0.2299
 5859TIP3    H141772   0.774   5.541   9.480 -0.4868 -0.2993 -0.7299
 5859TIP3    H241773   0.825   5.400   9.504  0.8690  0.5179  1.5295
 5860TIP3   OH241774   0.654   4.341  12.288  0.1804 -0.4027  0.0525
 5860TIP3    H141775   0.576   4.324  12.235  0.7937 -0.1058 -0.9842
 5860TIP3    H241776   0.720   4.281  12.252  0.7643  0.1926  0.1205
 5861TIP3   OH241777   4.515   1.300  11.674  0.1374 -0.4564 -1.3033
 5861TIP3    H141778   4.424   1.321  11.653 -0.0724  1.4717  1.0499
 5861TIP3    H241779   4.513   1.208  11.700 -0.9546 -0.6871 -2.1279
 5862TIP3   OH241780   1.720   1.220  13.436  0.1003  0.1480  0.2654
 5862TIP3    H141781   1.753   1.302  13.472  2.6016 -0.6986  0.0959
 5862TIP3    H241782   1.735   1.226  13.342 -0.2736 -0.2796  0.1724
 5863TIP3   OH241783   4.348   5.553  11.079  0.2536 -0.3791  0.2695
 5863TIP3    H141784   4.343   5.550  11.174 -1.3644  2.2191  0.3515
 5863TIP3    H241785   4.441   5.541  11.059  0.8187  0.3287  2.2644
 5864TIP3   OH241786   6.044   1.954  11.891  0.2043  0.0184 -1.0603
 5864TIP3    H141787   6.044   2.046  11.920 -1.4367  0.2677 -1.7362
 5864TIP3    H241788   5.970   1.949  11.830  0.1726 -1.8004 -0.9036
 5865TIP3   OH241789   6.400   3.982  13.266  0.3993  0.1952 -0.1991
 5865TIP3    H141790   6.378   3.949  13.179  1.8715  1.2196 -1.0114
 5865TIP3    H241791   6.338   4.052  13.282 -1.6625 -1.7474  0.8195
 5866TIP3   OH241792   3.945   4.520  10.661 -0.0150 -0.6438  0.7596
 5866TIP3    H141793   3.874   4.571  10.701 -0.0662 -1.0792  1.2274
 5866TIP3    H241794   4.016   4.522  10.726  0.6951  0.4054 -0.0008
 5867TIP3   OH241795   5.850   3.552  10.362 -0.0893 -0.2521  0.0598
 5867TIP3    H141796   5.832   3.478  10.303 -1.7273  0.7462 -0.7535
 5867TIP3    H241797   5.942   3.572  10.347 -0.6083  0.5110 -2.9276
 5868TIP3   OH241798   2.273   3.953  12.067  0.2985  0.9095 -0.0291
 5868TIP3    H141799   2.365   3.977  12.081  1.1507 -1.7743 -0.4147
 5868TIP3    H241800   2.263   3.951  11.972  0.4204 -0.6238 -0.0306
 5869TIP3   OH241801   5.537   1.749  10.163 -0.0871  0.6008  0.3104
 5869TIP3    H141802   5.491   1.712  10.238 -1.0056  2.1232  0.5415
 5869TIP3    H241803   5.519   1.687  10.092  0.0056 -0.3665  1.1042
 5870TIP3   OH241804   1.588   3.872  10.497  0.3241  0.0708  0.2494
 5870TIP3    H141805   1.561   3.856  10.587  0.3876  1.6340  0.5797
 5870TIP3    H241806   1.684   3.869  10.500  0.3110 -0.6783  0.0604
 5871TIP3   OH241807   4.387   6.462  10.649 -0.4523 -0.2637  0.2234
 5871TIP3    H141808   4.302   6.501  10.671  0.4854  2.7017 -0.8223
 5871TIP3    H241809   4.375   6.427  10.561 -0.6005  0.0933  0.1002
 5872TIP3   OH241810   0.513   5.339  10.619  0.2795 -0.1066  0.3115
 5872TIP3    H141811   0.425   5.337  10.583  0.6396  1.1426 -0.7050
 5872TIP3    H241812   0.551   5.255  10.595  0.0566  0.1718 -1.1167
 5873TIP3   OH241813   3.380   0.419  11.046 -1.1543 -0.0376  0.5298
 5873TIP3    H141814   3.414   0.329  11.050  0.9977  0.7607  2.9789
 5873TIP3    H241815   3.305   0.418  11.106 -1.0516 -0.1704  0.6583
 5874TIP3   OH241816   0.311   5.187  11.832 -0.0286 -0.1941 -0.2551
 5874TIP3    H141817   0.338   5.162  11.743 -1.0986 -0.9683 -0.3873
 5874TIP3    H241818   0.378   5.149  11.889  0.7809  0.4797 -0.7224
 5875TIP3   OH241819   5.487   5.679  11.376  0.6336  0.2328  0.3146
 5875TIP3    H141820   5.479   5.623  11.453 -0.0167  0.3714  0.3528
 5875TIP3    H241821   5.494   5.619  11.303  1.7179  0.0938  0.5132
 5876TIP3   OH241822   6.329   3.880   9.727 -0.0035 -0.2513  0.2264
 5876TIP3    H141823   6.336   3.804   9.785  0.2910 -0.3008  0.1270
 5876TIP3    H241824   6.418   3.896   9.697  0.2261  1.1561  1.5339
 5877TIP3   OH241825   1.853   2.312  10.981  0.2564  0.0892  0.4738
 5877TIP3    H141826   1.887   2.315  10.891 -0.3191 -0.0863  0.2411
 5877TIP3    H241827   1.930   2.301  11.036  0.6612  0.7240  0.0365
 5878TIP3   OH241828   1.806   5.595  11.252 -0.2207 -0.0495  0.0672
 5878TIP3    H141829   1.753   5.550  11.318 -1.8529  0.7691 -0.6078
 5878TIP3    H241830   1.886   5.544  11.245  0.8059  0.7658  3.8894
 5879TIP3   OH241831   1.044   4.844  12.158  0.7141  0.2591  0.2657
 5879TIP3    H141832   1.088   4.858  12.074  1.4483  3.2442  1.0224
 5879TIP3    H241833   0.966   4.899  12.153  0.3937 -0.0828  1.2941
 5880TIP3   OH241834   1.339   4.674  10.164  0.0480  0.0424  0.3702
 5880TIP3    H141835   1.387   4.706  10.087  0.3518  0.4613  0.7243
 5880TIP3    H241836   1.279   4.745  10.186 -0.8923 -0.5599 -0.1880
 5881TIP3   OH241837   1.951   4.077  12.005 -0.4965  0.7307 -0.0818
 5881TIP3    H141838   1.938   4.013  12.075  0.2262 -0.4539 -0.9962
 5881TIP3    H241839   1.868   4.078  11.958 -0.2137 -0.2588 -0.6272
 5882TIP3   OH241840   4.024   1.793  11.528  0.1804  0.0054 -0.0787
 5882TIP3    H141841   4.085   1.721  11.547  0.6380  0.7931  1.7155
 5882TIP3    H241842   3.996   1.778  11.438  0.0360 -2.5759  0.3235
 5883TIP3   OH241843   0.493   5.167  11.282 -0.4997 -0.0119  0.4417
 5883TIP3    H141844   0.415   5.222  11.276 -0.3594  0.0721 -0.8665
 5883TIP3    H241845   0.564   5.221  11.249 -0.1723 -0.6197  0.1217
 5884TIP3   OH241846   2.823   0.652  11.368  0.1855  0.3169  0.0724
 5884TIP3    H141847   2.830   0.617  11.279 -0.9645  2.3645 -0.9032
 5884TIP3    H241848   2.888   0.722  11.372 -1.0919  1.5478  0.1215
 5885TIP3   OH241849   4.609   5.547  10.949  0.0196 -0.2193 -0.2707
 5885TIP3    H141850   4.705   5.546  10.941  0.1161 -0.3083  0.7150
 5885TIP3    H241851   4.591   5.487  11.021 -0.8331 -0.6792 -0.8495
 5886TIP3   OH241852   0.287   0.975  12.541 -0.3191  0.0558  0.3412
 5886TIP3    H141853   0.258   1.064  12.563 -3.3868 -1.1268  1.6893
 5886TIP3    H241854   0.345   0.950  12.612 -0.4351  0.5494  0.6135
 5887TIP3   OH241855   5.444   4.494  12.496  0.3523  0.0501  0.2092
 5887TIP3    H141856   5.530   4.479  12.535  0.8845 -0.2590 -1.0177
 5887TIP3    H241857   5.445   4.586  12.469  0.5159 -0.0990 -0.3011
 5888TIP3   OH241858   4.101   5.398  10.594  0.4007 -0.1484  0.3229
 5888TIP3    H141859   4.171   5.448  10.552 -1.5794  1.9457 -0.7799
 5888TIP3    H241860   4.098   5.431  10.684  0.6473 -0.0313  0.2885
 5889TIP3   OH241861   2.412   3.762  10.756  0.0421 -0.0991 -0.3752
 5889TIP3    H141862   2.432   3.856  10.761  1.2511 -0.3164 -0.8468
 5889TIP3    H241863   2.476   3.727  10.693 -0.2380 -1.2843 -0.0239
 5890TIP3   OH241864   3.155   2.267  12.031 -0.3186 -0.1377  0.6538
 5890TIP3    H141865   3.202   2.288  12.111  0.6517 -0.2637  0.1256
 5890TIP3    H241866   3.152   2.172  12.029 -1.0244 -0.1273  0.9238
 5891TIP3   OH241867   3.164   2.701  12.759 -0.5400 -0.0762 -0.2944
 5891TIP3    H141868   3.140   2.612  12.733 -0.8844 -0.3724  0.9991
 5891TIP3    H241869   3.220   2.690  12.835 -0.0781  0.7999 -0.5014
 5892TIP3   OH241870   2.110   1.240  11.254  0.4479 -0.5637  0.1609
 5892TIP3    H141871   2.032   1.295  11.244  0.7454 -0.1068  0.2916
 5892TIP3    H241872   2.158   1.281  11.326  2.9431  1.7771 -2.5619
 5893TIP3   OH241873   3.971   3.509  11.745 -0.0542  0.0500  0.0809
 5893TIP3    H141874   4.034   3.532  11.813  0.5967 -0.6170 -0.2834
 5893TIP3    H241875   4.023   3.464  11.678 -0.9628 -0.7712 -0.0931
 5894TIP3   OH241876   0.931   2.452  12.579 -0.2047 -0.2781 -0.2268
 5894TIP3    H141877   1.000   2.517  12.563 -0.7582  0.3994  0.0625
 5894TIP3    H241878   0.877   2.454  12.499  0.1351 -0.8457 -0.4749
 5895TIP3   OH241879   3.237   0.965  11.870  0.0046  0.4962 -0.3759
 5895TIP3    H141880   3.230   0.875  11.901 -1.2126  0.4705 -0.6838
 5895TIP3    H241881   3.323   0.994  11.901  0.8076 -1.0539 -1.0395
 5896TIP3   OH241882   1.405   2.356   9.897 -0.6331 -0.1706 -0.3954
 5896TIP3    H141883   1.481   2.405   9.927 -0.8810  0.8336 -1.3137
 5896TIP3    H241884   1.437   2.304   9.824 -0.6388 -0.3930 -0.2383
 5897TIP3   OH241885   2.248   2.011   9.985  0.0738  0.0177 -0.0717
 5897TIP3    H141886   2.210   1.951  10.050 -0.3131  0.4830  0.1302
 5897TIP3    H241887   2.266   2.091  10.034 -0.9484  0.6559 -0.7013
 5898TIP3   OH241888   1.105   5.950  11.742 -0.0204  0.1820 -0.1459
 5898TIP3    H141889   1.091   5.983  11.830  0.9612  1.1019 -0.3193
 5898TIP3    H241890   1.192   5.911  11.743  1.1138  2.5205 -1.3363
 5899TIP3   OH241891   1.611   0.544  10.190  0.2489  0.1630 -0.5777
 5899TIP3    H141892   1.691   0.589  10.161 -0.1591  0.5950 -1.0403
 5899TIP3    H241893   1.623   0.454  10.160  0.9666  0.0013  0.1549
 5900TIP3   OH241894   4.826   2.360  12.508 -0.5071  0.4744  0.3881
 5900TIP3    H141895   4.783   2.287  12.554 -1.7088  0.9594  0.0797
 5900TIP3    H241896   4.880   2.402  12.575  0.5997 -0.9849  0.4515
 5901TIP3   OH241897   1.032   1.928  13.071  1.2676  0.4591 -0.0125
 5901TIP3    H141898   1.111   1.932  13.125  1.1470 -1.6699  0.4433
 5901TIP3    H241899   0.992   1.844  13.095 -0.1411  0.6320 -1.5947
 5902TIP3   OH241900   1.226   3.908  10.980 -0.6541 -0.2259  0.4219
 5902TIP3    H141901   1.225   3.966  11.056  2.4303 -0.7832  1.0051
 5902TIP3    H241902   1.286   3.950  10.919 -2.9889  0.1555 -1.7960
 5903TIP3   OH241903   1.961   6.553  10.989 -0.2957 -0.0261 -0.1643
 5903TIP3    H141904   1.887   6.544  10.928 -0.4031 -0.6561  0.0537
 5903TIP3    H241905   1.978   6.464  11.020 -0.8847  0.4082  1.4877
 5904TIP3   OH241906   2.700   2.898   9.852 -0.2778  0.1364 -0.5187
 5904TIP3    H141907   2.768   2.963   9.873  0.3086  0.1335 -2.2587
 5904TIP3    H241908   2.629   2.950   9.813 -1.2792  0.1219  1.1780
 5905TIP3   OH241909   4.391   1.452  12.071 -0.0595  0.2229 -0.7793
 5905TIP3    H141910   4.466   1.434  12.015  0.3091 -1.0320  0.0724
 5905TIP3    H241911   4.330   1.381  12.052 -0.0465 -0.0627  0.1909
 5906TIP3   OH241912   4.127   4.567  11.238  0.1018 -0.1186 -0.4753
 5906TIP3    H141913   4.222   4.550  11.233  0.2563  0.3015  0.8771
 5906TIP3    H241914   4.101   4.534  11.324 -0.6992  1.1333 -0.2154
 5907TIP3   OH241915   5.597   3.348   9.636  0.3073  0.0030 -0.0983
 5907TIP3    H141916   5.574   3.340   9.544 -1.4161 -1.0450  0.3741
 5907TIP3    H241917   5.689   3.376   9.636  0.5217 -0.5674 -2.1089
 5908TIP3   OH241918   1.934   3.386  11.420  0.1969  0.2708  0.5749
 5908TIP3    H141919   1.970   3.334  11.347 -0.6650  1.5030 -0.7804
 5908TIP3    H241920   1.907   3.468  11.379 -0.9796  0.7194  2.1779
 5909TIP3   OH241921   0.788   0.148  12.843  0.3320  0.4341 -0.5881
 5909TIP3    H141922   0.806   0.100  12.762 -1.5839  0.7920 -1.2565
 5909TIP3    H241923   0.754   0.081  12.903 -0.4264  0.5724 -0.8541
 5910TIP3   OH241924   0.175   4.254  11.069  0.2909 -0.2856  0.1672
 5910TIP3    H141925   0.198   4.306  10.992  1.6568  0.6144  1.1498
 5910TIP3    H241926   0.093   4.293  11.100  0.3192  0.0702 -0.1977
 5911TIP3   OH241927   2.745   2.672  11.258 -0.2108  0.0283 -0.4689
 5911TIP3    H141928   2.764   2.581  11.238  0.4170  0.2069 -0.7344
 5911TIP3    H241929   2.665   2.692  11.210 -0.8995 -0.6535  0.3780
 5912TIP3   OH241930   6.267   3.423  11.220  0.4813  0.5665  0.2765
 5912TIP3    H141931   6.241   3.471  11.142  0.4974 -1.0819 -0.7901
 5912TIP3    H241932   6.273   3.331  11.192  2.2176  0.1432  1.7568
 5913TIP3   OH241933   3.127   2.428  12.674  0.4912  0.2674 -0.1750
 5913TIP3    H141934   3.077   2.385  12.743 -0.5802  1.1771 -0.3708
 5913TIP3    H241935   3.195   2.364  12.650  2.2066  0.6517  3.0878
 5914TIP3   OH241936   5.516   2.013  10.083  1.0269 -0.4942  0.2609
 5914TIP3    H141937   5.539   1.990   9.993 -1.1471 -0.4051 -0.3716
 5914TIP3    H241938   5.499   1.930  10.126 -2.4299 -0.4811 -0.7770
 5915TIP3   OH241939   1.832   2.618  11.470  0.6260  0.0002  0.2697
 5915TIP3    H141940   1.903   2.668  11.430 -0.0289  0.6571 -0.1064
 5915TIP3    H241941   1.837   2.532  11.430  0.9282  0.1867 -0.0929
 5916TIP3   OH241942   4.245   4.419   9.799  0.3399  0.3524  0.0231
 5916TIP3    H141943   4.176   4.375   9.749  0.9229 -0.2939 -0.2262
 5916TIP3    H241944   4.300   4.348   9.832  1.4362  0.8994 -0.5825
 5917TIP3   OH241945   3.457   0.672  12.520  0.4628 -0.2171  0.1245
 5917TIP3    H141946   3.462   0.587  12.564  0.2652 -0.7224 -0.7915
 5917TIP3    H241947   3.548   0.703  12.517  0.6780 -0.8672 -0.4046
 5918TIP3   OH241948   1.402   2.878  13.378 -0.7023 -0.0147 -1.2587
 5918TIP3    H141949   1.434   2.960  13.341  0.2206  0.8312  1.2460
 5918TIP3    H241950   1.471   2.814  13.358  2.0752  1.4178  2.5741
 5919TIP3   OH241951   3.430   1.291  10.340 -0.0872 -0.1061 -0.0773
 5919TIP3    H141952   3.406   1.202  10.316 -0.8535  0.5423 -1.9043
 5919TIP3    H241953   3.357   1.345  10.310 -0.1980  1.0533  2.0632
 5920TIP3   OH241954   4.169   2.990  11.998 -0.5452 -0.0218  0.2724
 5920TIP3    H141955   4.177   2.895  11.997  1.1269  0.0709 -1.4803
 5920TIP3    H241956   4.094   3.008  12.054 -0.7745 -2.3550  0.7882
 5921TIP3   OH241957   4.015   4.370  12.565 -0.2078 -0.0428  0.0854
 5921TIP3    H141958   4.106   4.362  12.591 -0.1039 -0.8035 -0.4661
 5921TIP3    H241959   3.972   4.414  12.638  0.1857 -1.5686  1.2688
 5922TIP3   OH241960   2.133   3.458  10.065  0.1049 -0.1499  0.0337
 5922TIP3    H141961   2.132   3.516  10.141  0.0627 -1.6492  1.2185
 5922TIP3    H241962   2.130   3.370  10.102 -0.4167 -0.9144 -1.7241
 5923TIP3   OH241963   5.576   1.251  11.064 -0.1796  0.4393  0.4824
 5923TIP3    H141964   5.645   1.231  11.127 -1.6818 -0.9115  1.8093
 5923TIP3    H241965   5.549   1.340  11.086  0.7383  0.7530  0.3466
 5924TIP3   OH241966   2.509   2.222  10.501  0.2276 -0.2055 -0.0595
 5924TIP3    H141967   2.535   2.131  10.487 -3.4080 -1.1747 -2.0465
 5924TIP3    H241968   2.496   2.230  10.595  0.9431 -1.6055  0.1812
 5925TIP3   OH241969   5.416   0.760  11.864  1.0955  0.3686  0.3362
 5925TIP3    H141970   5.335   0.806  11.842  1.4813  1.0245  0.2426
 5925TIP3    H241971   5.398   0.668  11.845 -0.1214  0.2803  1.7054
 5926TIP3   OH241972   1.800   1.023  11.890  0.1116 -0.3287 -0.1063
 5926TIP3    H141973   1.846   0.983  11.816 -0.0575  0.6039 -0.7360
 5926TIP3    H241974   1.716   0.978  11.894 -0.5494  0.7294 -1.5452
 5927TIP3   OH241975   3.226   1.623  12.410 -0.2654 -0.2615 -1.0233
 5927TIP3    H141976   3.224   1.655  12.319  0.4912  0.6312 -0.7454
 5927TIP3    H241977   3.135   1.599  12.428 -0.5789  0.2989 -1.7629
 5928TIP3   OH241978   6.112   6.199   9.592  0.3725  0.2733 -0.3331
 5928TIP3    H141979   6.108   6.103   9.598  0.3167  0.2719 -0.3825
 5928TIP3    H241980   6.206   6.219   9.589  0.4790 -0.0559 -4.1127
 5929TIP3   OH241981   4.713   4.692  11.925  0.1412 -0.2110  0.0740
 5929TIP3    H141982   4.711   4.785  11.947  0.8394 -0.4938  1.4726
 5929TIP3    H241983   4.634   4.678  11.872  0.2164  1.2308 -0.4591
 5930TIP3   OH241984   5.974   3.147  11.747  0.3081  0.4594 -0.1740
 5930TIP3    H141985   5.940   3.059  11.733 -0.5123  0.6552  0.5339
 5930TIP3    H241986   5.899   3.205  11.732  0.8044  1.0378 -0.5021
 5931TIP3   OH241987   5.047   5.707  12.322  0.0093  0.0610 -0.4223
 5931TIP3    H141988   5.037   5.802  12.330 -1.8363  0.1092 -2.4279
 5931TIP3    H241989   4.960   5.672  12.341  0.6871 -1.2563  0.3841
 5932TIP3   OH241990   4.741   5.917   9.654  0.0990  0.5314 -0.2404
 5932TIP3    H141991   4.660   5.920   9.602  1.3360  2.1064 -2.2363
 5932TIP3    H241992   4.790   5.844   9.618  0.2764  0.6164 -0.1726
 5933TIP3   OH241993   0.966   5.554  11.169 -0.4020 -0.0288 -0.0826
 5933TIP3    H141994   1.030   5.616  11.202 -1.2581  0.7015  0.2530
 5933TIP3    H241995   0.894   5.609  11.136 -1.0917 -0.8262  0.0407
 5934TIP3   OH241996   4.664   4.187   9.627  0.0262  0.3172  0.3187
 5934TIP3    H141997   4.683   4.268   9.580  3.7199  0.0843  1.1238
 5934TIP3    H241998   4.690   4.118   9.567 -0.7619 -0.2042  0.5656
 5935TIP3   OH241999   5.308   1.889   9.449 -0.4897  0.2247  0.4448
 5935TIP3    H142000   5.372   1.920   9.513 -0.4102  0.9679  0.0095
 5935TIP3    H242001   5.299   1.961   9.387 -0.4279 -0.5524 -0.4889
 5936TIP3   OH242002   3.480   5.367  11.471  0.0997 -0.2835  0.0829
 5936TIP3    H142003   3.413   5.327  11.416  0.5155 -0.5922 -0.1955
 5936TIP3    H242004   3.430   5.412  11.540 -0.4525  0.8326 -1.0217
 5937TIP3   OH242005   2.977   5.346   9.374 -0.4374 -0.4369  0.5531
 5937TIP3    H142006   3.055   5.355   9.429 -0.8369 -1.0589  1.2381
 5937TIP3    H242007   3.012   5.343   9.285  0.2880 -0.2338  0.8161
 5938TIP3   OH242008   1.668   1.296   9.564 -0.4513 -0.7761 -0.3055
 5938TIP3    H142009   1.697   1.312   9.653  0.0925 -0.6354 -0.5086
 5938TIP3    H242010   1.674   1.381   9.521 -3.8532 -0.0096  0.3824
 5939TIP3   OH242011   5.684   1.756   9.355  0.1146 -0.2184  0.6076
 5939TIP3    H142012   5.764   1.792   9.394 -0.7171 -0.0440  2.2292
 5939TIP3    H242013   5.627   1.831   9.342 -0.5488 -0.5688  1.3732
 5940TIP3   OH242014   3.688   6.363  11.881  0.4686 -0.5301  0.1388
 5940TIP3    H142015   3.757   6.405  11.932  0.0774  0.0760  0.1791
 5940TIP3    H242016   3.711   6.382  11.790  0.9036 -1.2008  0.1001
 5941TIP3   OH242017   0.883   3.813  13.248  0.2925 -0.1165  0.0347
 5941TIP3    H142018   0.878   3.866  13.327  0.7039 -0.7145  0.4752
 5941TIP3    H242019   0.976   3.813  13.225  0.2752 -0.5227 -0.0479
 5942TIP3   OH242020   0.451   1.706  10.058  0.5390  0.7146 -0.4182
 5942TIP3    H142021   0.460   1.800  10.074  1.4383  0.5682 -0.0450
 5942TIP3    H242022   0.413   1.700   9.970  0.5168  1.4164 -0.4608
 5943TIP3   OH242023   5.371   0.182  11.993 -0.2189 -0.2626  0.0140
 5943TIP3    H142024   5.289   0.153  11.953 -0.3686  0.4957 -0.2393
 5943TIP3    H242025   5.433   0.111  11.975 -0.8089 -0.8394  0.1972
 5944TIP3   OH242026   0.485   3.377  11.150  0.2277 -0.4785  0.6435
 5944TIP3    H142027   0.519   3.319  11.218  0.9655  0.8217  1.4345
 5944TIP3    H242028   0.538   3.456  11.158  0.5653 -0.3899 -1.6731
 5945TIP3   OH242029   0.578   5.796   9.865  1.1948  0.0422 -0.3045
 5945TIP3    H142030   0.541   5.747   9.791  0.1782 -0.0404  0.2437
 5945TIP3    H242031   0.606   5.728   9.927  0.6991  0.1339  0.0220
 5946TIP3   OH242032   0.988   5.670   9.616 -0.3617  0.6465 -0.1734
 5946TIP3    H142033   1.012   5.580   9.592  0.9331  0.8533  0.2608
 5946TIP3    H242034   0.893   5.671   9.613 -0.5038 -1.2303  1.4797
 5947TIP3   OH242035   3.447   5.793  12.628 -0.0903 -0.0981  0.4490
 5947TIP3    H142036   3.487   5.872  12.665 -1.1146  1.5504 -1.6928
 5947TIP3    H242037   3.383   5.765  12.694  1.5831 -0.2980  2.0587
 5948TIP3   OH242038   2.748   0.414  10.911 -0.5019 -0.1497  0.1515
 5948TIP3    H142039   2.700   0.471  10.851 -1.6150  0.0604  1.2016
 5948TIP3    H242040   2.684   0.348  10.938  0.0387 -0.3675  0.9365
 5949TIP3   OH242041   5.946   0.557  10.059 -0.7883 -0.6262 -0.4753
 5949TIP3    H142042   6.040   0.551  10.043 -0.8646 -0.8104 -0.8469
 5949TIP3    H242043   5.929   0.651  10.068 -1.0370 -0.3251 -3.2350
 5950TIP3   OH242044   4.998   4.633  12.358 -0.3365  0.0154 -0.0313
 5950TIP3    H142045   5.018   4.686  12.435  2.5767 -1.0110  0.0597
 5950TIP3    H242046   4.961   4.552  12.394 -0.5292  0.1957  0.1751
 5951TIP3   OH242047   4.284   2.410  11.458 -0.0001 -0.0843  0.8015
 5951TIP3    H142048   4.274   2.316  11.447  0.3082 -0.0609  0.2567
 5951TIP3    H242049   4.269   2.446  11.370  2.2097  0.1465  0.4541
 5952TIP3   OH242050   0.169   3.063   9.540  0.3598 -0.7597  0.2873
 5952TIP3    H142051   0.208   3.026   9.619 -1.4530 -1.5185  0.8825
 5952TIP3    H242052   0.243   3.081   9.483  1.7303 -0.2669  2.1149
 5953TIP3   OH242053   5.206   5.713  11.280 -0.2082  0.2783  0.8167
 5953TIP3    H142054   5.280   5.705  11.339 -0.4981 -0.1940  1.1229
 5953TIP3    H242055   5.130   5.721  11.337 -0.5667 -0.8316  0.5378
 5954TIP3   OH242056   1.258   1.827  12.636  0.0454 -0.5757  0.1603
 5954TIP3    H142057   1.279   1.920  12.626 -0.4305 -0.4212  0.5410
 5954TIP3    H242058   1.337   1.788  12.673  0.1617 -0.2759  0.2314
 5955TIP3   OH242059   3.066   1.175  12.549 -0.8543 -0.1470  0.5776
 5955TIP3    H142060   2.982   1.134  12.529  0.3830 -2.3088 -0.4023
 5955TIP3    H242061   3.097   1.130  12.627 -0.2543  0.0926  0.4842
 5956TIP3   OH242062   1.443   1.830  21.245  0.2911 -0.0147 -0.0609
 5956TIP3    H142063   1.474   1.916  21.272  0.3834  0.2081 -0.8520
 5956TIP3    H242064   1.484   1.769  21.306 -1.1958  0.6271  1.6767
 5957TIP3   OH242065   1.083   1.990  12.307 -0.3388 -0.1126  0.6126
 5957TIP3    H142066   1.013   1.929  12.285  0.5147 -1.2963  1.0662
 5957TIP3    H242067   1.038   2.063  12.350 -1.3801 -0.4115  0.0736
 5958TIP3   OH242068   5.358   1.435  10.870 -0.4976 -0.3109  0.0510
 5958TIP3    H142069   5.339   1.367  10.935  0.2562 -0.6319 -0.0536
 5958TIP3    H242070   5.384   1.511  10.923 -0.8771 -0.2468  0.1507
 5959TIP3   OH242071   0.933   1.936  11.048  0.2467  0.1394 -0.7648
 5959TIP3    H142072   0.890   1.911  10.966 -2.3365 -0.5802  0.6730
 5959TIP3    H242073   0.897   1.876  11.113  0.6953  1.9129  1.2473
 5960TIP3   OH242074   6.136   6.363  11.070  0.0004  0.3509  0.1647
 5960TIP3    H142075   6.191   6.417  11.126  0.5604 -0.0257 -0.0187
 5960TIP3    H242076   6.047   6.392  11.089  0.1969  0.3497  1.1075
 5961TIP3   OH242077   0.105   2.955  11.465 -0.2849 -0.3379  0.0034
 5961TIP3    H142078   0.083   2.870  11.425  0.0725 -0.8910  0.9477
 5961TIP3    H242079   0.037   2.968  11.531 -0.5924  0.3378 -0.4352
 5962TIP3   OH242080   0.655   4.257  12.000  0.2209 -0.4633  0.1513
 5962TIP3    H142081   0.681   4.202  12.073  1.4313 -0.5032 -0.2829
 5962TIP3    H242082   0.565   4.283  12.019 -0.3441 -2.4854  0.4313
 5963TIP3   OH242083   0.004   0.375  12.291  0.4282  0.5149 -0.3372
 5963TIP3    H142084  -0.084   0.394  12.258 -1.1076 -2.8906  1.2985
 5963TIP3    H242085   0.006   0.417  12.377  0.3379  0.4702 -0.3127
 5964TIP3   OH242086   0.457   5.280  12.571 -0.0371 -0.2738  0.7691
 5964TIP3    H142087   0.512   5.352  12.540 -0.2758 -0.7440 -0.8198
 5964TIP3    H242088   0.379   5.323  12.606 -1.2996  0.2504 -2.3782
 5965TIP3   OH242089   4.971   2.133   9.702 -0.2881 -0.1839 -0.0267
 5965TIP3    H142090   4.985   2.173   9.616  0.3278  3.1602  1.4614
 5965TIP3    H242091   4.878   2.146   9.721 -0.3394 -0.5596 -0.0023
 5966TIP3   OH242092   6.236   0.521  10.540 -0.0055  0.2636  0.0241
 5966TIP3    H142093   6.270   0.438  10.506 -0.3100  0.9432 -2.0947
 5966TIP3    H242094   6.286   0.588  10.493  0.9399  1.3530  2.4054
 5967TIP3   OH242095   2.392   1.864  12.479  0.3149 -0.4912 -0.0534
 5967TIP3    H142096   2.351   1.892  12.397 -0.3578 -0.1532  0.3879
 5967TIP3    H242097   2.321   1.866  12.543  0.5888 -1.7683  0.3239
 5968TIP3   OH242098   6.497   5.933   9.486 -0.4990 -0.3709  0.1203
 5968TIP3    H142099   6.589   5.909   9.478 -0.4436 -0.7111  1.5650
 5968TIP3    H242100   6.493   6.023   9.452  0.3614 -0.3344  0.1021
 5969TIP3   OH242101   5.431   5.342  13.455  0.3950 -0.1431  0.2547
 5969TIP3    H142102   5.431   5.376  13.545  2.3582 -1.8007  0.9601
 5969TIP3    H242103   5.368   5.269  13.457  0.1659  0.0502  0.1710
 5970TIP3   OH242104   3.421   0.677  11.249 -0.1478 -0.3602 -0.0902
 5970TIP3    H142105   3.433   0.669  11.154 -1.3910 -0.5901 -0.2382
 5970TIP3    H242106   3.453   0.764  11.270  0.3110 -0.3776 -0.6924
 5971TIP3   OH242107   4.205   0.574  12.776 -0.0671  0.0184 -0.1889
 5971TIP3    H142108   4.197   0.664  12.745 -1.3879 -0.2364 -0.6518
 5971TIP3    H242109   4.194   0.521  12.697  0.7525 -0.5622  0.0692
 5972TIP3   OH242110   6.557   6.038  11.223  0.6369 -0.2380 -0.6180
 5972TIP3    H142111   6.494   6.072  11.159 -0.9867  3.1258  2.4435
 5972TIP3    H242112   6.518   5.955  11.253 -0.3798 -0.0668 -1.4246
 5973TIP3   OH242113   0.805   5.245  12.440 -0.2200  0.3357 -0.3254
 5973TIP3    H142114   0.728   5.302  12.440 -1.1146 -0.7942 -1.8237
 5973TIP3    H242115   0.793   5.188  12.516 -1.2791 -0.2908 -0.9244
 5974TIP3   OH242116   0.256   4.122  10.589 -0.0228 -0.5840  0.1153
 5974TIP3    H142117   0.312   4.056  10.631  0.1195 -0.6948 -0.2459
 5974TIP3    H242118   0.170   4.110  10.630  0.9470  1.9232  3.2938
 5975TIP3   OH242119   5.938   3.966  12.514  0.3384  0.0525 -0.2266
 5975TIP3    H142120   6.028   3.987  12.489  1.0763  0.1452  2.2648
 5975TIP3    H242121   5.943   3.877  12.549 -0.8844 -0.5544 -1.4844
 5976TIP3   OH242122   0.978   6.371  12.307  0.3479  0.1980  0.5556
 5976TIP3    H142123   0.974   6.441  12.371 -0.2079  0.5319  0.1629
 5976TIP3    H242124   1.040   6.403  12.240 -0.3113  0.5507  0.1054
 5977TIP3   OH242125   4.092   1.031  12.758 -0.6968  0.2202 -0.6657
 5977TIP3    H142126   4.022   1.041  12.822 -0.9593 -1.2967 -0.6968
 5977TIP3    H242127   4.069   1.094  12.689 -1.6761  0.1922 -0.3791
 5978TIP3   OH242128   4.494   3.323  11.143 -0.0137  0.5213 -0.2792
 5978TIP3    H142129   4.428   3.309  11.210  0.6260  1.3424  0.5520
 5978TIP3    H242130   4.499   3.419  11.134  2.2886  0.5823  0.9612
 5979TIP3   OH242131   2.097   5.643  12.577 -0.3537  0.0782 -0.0033
 5979TIP3    H142132   2.020   5.661  12.629 -0.7545 -2.1714  0.2647
 5979TIP3    H242133   2.171   5.660  12.636 -0.6189  1.6740 -0.0880
 5980TIP3   OH242134   4.519   4.912  10.986  0.4441 -0.4451  0.1351
 5980TIP3    H142135   4.528   4.863  11.068 -0.0742  1.0769  1.1465
 5980TIP3    H242136   4.433   4.953  10.991  1.8438  2.7319  0.6429
 5981TIP3   OH242137   0.309   2.418  10.004 -0.0740  0.3482 -0.6519
 5981TIP3    H142138   0.349   2.504   9.996  0.8502 -0.1430 -1.6393
 5981TIP3    H242139   0.280   2.397   9.915 -2.2425  0.5240 -0.0397
 5982TIP3   OH242140   5.480   5.763  10.812 -0.0617 -0.2385  0.1623
 5982TIP3    H142141   5.518   5.824  10.749  1.4374 -0.3353  0.9325
 5982TIP3    H242142   5.385   5.779  10.807  0.1272  0.5480 -1.2680
 5983TIP3   OH242143   0.685   1.024  11.827  0.1263 -0.4360  0.0642
 5983TIP3    H142144   0.753   1.083  11.860 -0.7904  0.9623 -0.4305
 5983TIP3    H242145   0.730   0.968  11.764  0.9002  0.1791  0.0556
 5984TIP3   OH242146   5.926   5.328  11.166  0.1024 -0.0596  0.1099
 5984TIP3    H142147   5.940   5.260  11.099  0.3885  0.0581  0.0483
 5984TIP3    H242148   5.862   5.289  11.226 -0.7869  0.1460 -0.6756
 5985TIP3   OH242149   2.461   5.744  12.537 -0.4653  0.6747 -0.1506
 5985TIP3    H142150   2.530   5.810  12.539  1.1538 -0.9202 -0.2560
 5985TIP3    H242151   2.425   5.743  12.626  0.5024  0.7101  0.2532
 5986TIP3   OH242152   6.073   4.188  11.828  0.1361 -0.0459 -0.1722
 5986TIP3    H142153   6.143   4.246  11.858  0.2352 -0.2021 -0.0993
 5986TIP3    H242154   6.053   4.218  11.740  1.3339 -0.9487 -0.7824
 5987TIP3   OH242155   3.244   1.060  11.611  0.1304  0.0521 -0.4431
 5987TIP3    H142156   3.258   0.982  11.558  1.1067  0.3053 -0.5725
 5987TIP3    H242157   3.239   1.028  11.701  0.0763 -0.2034 -0.5364
 5988TIP3   OH242158   1.969   3.599  12.311  0.5676 -0.0566  0.1658
 5988TIP3    H142159   1.990   3.684  12.350  1.6974 -0.3291  0.1875
 5988TIP3    H242160   2.043   3.580  12.253  0.8919 -1.5415  1.0168
 5989TIP3   OH242161   1.227   4.566  11.560  0.2172  0.1414  0.5183
 5989TIP3    H142162   1.284   4.621  11.507  1.5149  0.1493  1.8634
 5989TIP3    H242163   1.160   4.625  11.594 -1.7942 -0.1638 -2.4753
 5990TIP3   OH242164   4.338   4.551  10.701  0.4319  0.5343 -0.5344
 5990TIP3    H142165   4.310   4.518  10.786  0.0574  0.3729 -0.7169
 5990TIP3    H242166   4.314   4.481  10.640 -2.3489  1.9597 -1.2366
 5991TIP3   OH242167   6.503   5.329  10.619 -0.2343  0.0579 -0.6267
 5991TIP3    H142168   6.537   5.328  10.708 -0.6781 -0.1455 -0.4557
 5991TIP3    H242169   6.578   5.352  10.564 -0.2152  1.3476 -0.0852
 5992TIP3   OH242170   4.086   1.485  11.827  0.0627  0.3608 -0.2979
 5992TIP3    H142171   4.129   1.564  11.794 -1.6206  1.1911 -0.5707
 5992TIP3    H242172   4.011   1.472  11.769  0.7262 -1.9198 -0.7570
 5993TIP3   OH242173   0.868   1.136  11.437 -0.2841 -0.2704 -0.0333
 5993TIP3    H142174   0.927   1.067  11.468  1.4072  1.5185  0.9438
 5993TIP3    H242175   0.780   1.102  11.455  0.5263 -1.5261  1.8786
 5994TIP3   OH242176   5.693   4.218  10.781  0.1512  0.1047 -0.1058
 5994TIP3    H142177   5.774   4.181  10.815 -0.2451 -0.7808 -0.1201
 5994TIP3    H242178   5.655   4.266  10.855 -0.6403 -1.6935  0.7204
 5995TIP3   OH242179   6.432   2.686  12.990 -0.0883 -0.4058  0.3157
 5995TIP3    H142180   6.363   2.712  12.929  0.6379 -1.2561 -0.9000
 5995TIP3    H242181   6.461   2.600  12.960  1.3097 -0.1981  0.9681
 5996TIP3   OH242182   5.980   6.271  12.498  0.7658  0.0724 -0.0244
 5996TIP3    H142183   5.989   6.342  12.435 -0.9567  0.7778  0.4576
 5996TIP3    H242184   5.920   6.210  12.457 -0.9589  0.8929  1.1634
 5997TIP3   OH242185   4.652   2.764  11.361  0.2646 -0.0979 -0.0060
 5997TIP3    H142186   4.710   2.752  11.286  0.5680  0.0298  0.2064
 5997TIP3    H242187   4.655   2.680  11.407  1.3312  0.3315  0.7383
 5998TIP3   OH242188   4.541   2.948  13.082 -0.2623 -0.1606  0.3185
 5998TIP3    H142189   4.550   2.975  12.990  0.6556  1.9982  0.9710
 5998TIP3    H242190   4.448   2.930  13.092 -0.4329 -0.1033 -0.9501
 5999TIP3   OH242191   3.905   3.179  12.434  0.3081  0.2724 -0.4173
 5999TIP3    H142192   3.919   3.085  12.436  0.5594  0.3217  0.1922
 5999TIP3    H242193   3.922   3.209  12.523 -1.2074  0.6998 -0.2438
 6000TIP3   OH242194   2.573   5.370   9.853 -0.1205  0.0084  0.2818
 6000TIP3    H142195   2.603   5.286   9.888  0.4807 -0.5375 -1.4585
 6000TIP3    H242196   2.652   5.415   9.825 -0.4110  1.3146  1.4410
 6001TIP3   OH242197   5.796   6.407  11.745 -0.2985  0.0483  0.4616
 6001TIP3    H142198   5.816   6.487  11.794  0.6850 -0.3794  0.7950
 6001TIP3    H242199   5.716   6.373  11.785  0.1110  0.0729  1.3276
 6002TIP3   OH242200   1.269   2.596  12.736  0.4550 -0.2654  0.1183
 6002TIP3    H142201   1.209   2.641  12.794  2.4454  0.5231  1.6831
 6002TIP3    H242202   1.232   2.508  12.726 -1.4170  0.4693  0.1994
 6003TIP3   OH242203   3.496   1.172  10.770  0.3554 -0.6730 -0.1948
 6003TIP3    H142204   3.576   1.160  10.822  0.3499 -1.3954 -0.3470
 6003TIP3    H242205   3.496   1.098  10.709 -0.8783 -1.1750  0.3791
 6004TIP3   OH242206   3.080   0.789   9.509 -0.0829  0.0935 -0.1209
 6004TIP3    H142207   3.054   0.878   9.488 -0.7605  0.2469  1.3097
 6004TIP3    H242208   3.168   0.780   9.470 -1.0017  0.5189 -2.4526
 6005TIP3   OH242209   0.685   4.168  11.322  0.3841 -0.2857 -0.2420
 6005TIP3    H142210   0.631   4.146  11.247 -2.1411 -0.2349  1.4640
 6005TIP3    H242211   0.671   4.262  11.336 -1.7606 -0.8575  2.1165
 6006TIP3   OH242212   4.940   0.503  10.432  0.4432  0.5306 -0.3844
 6006TIP3    H142213   5.014   0.441  10.431  0.8924  1.0635 -0.9596
 6006TIP3    H242214   4.948   0.547  10.517 -0.5883 -1.0099  0.5689
 6007TIP3   OH242215   0.453   6.559  10.903 -0.8343  0.0917 -0.1823
 6007TIP3    H142216   0.535   6.526  10.940 -0.8602  0.1290 -0.0908
 6007TIP3    H242217   0.400   6.480  10.892 -0.4282 -0.0582 -1.1620
 6008TIP3   OH242218   0.241   4.162  13.519  0.0035 -0.5025  0.1379
 6008TIP3    H142219   0.220   4.244  13.475  1.3793 -0.4153 -0.3735
 6008TIP3    H242220   0.253   4.099  13.447 -0.2569 -0.9742  0.5007
 6009TIP3   OH242221   3.833   5.404  10.159 -0.0569  0.5264 -0.2009
 6009TIP3    H142222   3.882   5.420  10.078  2.5308 -0.1031  1.1397
 6009TIP3    H242223   3.863   5.473  10.218  1.2463 -1.3657  1.4630
 6010TIP3   OH242224   5.229   2.567   9.381  0.1487  0.7613  0.2967
 6010TIP3    H142225   5.146   2.526   9.355  0.5356  0.1405  0.0000
 6010TIP3    H242226   5.216   2.593   9.472 -0.2403  0.3052  0.3769
 6011TIP3   OH242227   5.271   4.269  10.095  0.3330  0.2331  0.2840
 6011TIP3    H142228   5.222   4.276  10.176  1.0102 -1.3057  0.8692
 6011TIP3    H242229   5.208   4.237  10.031  0.5981 -2.4233  1.1954
 6012TIP3   OH242230   3.566   0.373  12.316 -0.7275 -0.1899 -0.5153
 6012TIP3    H142231   3.509   0.310  12.360 -0.1333 -0.2208  0.2275
 6012TIP3    H242232   3.610   0.322  12.248  0.6868 -0.8951  0.8845
 6013TIP3   OH242233   6.518   5.865  10.131  0.0131  0.2037  0.2855
 6013TIP3    H142234   6.602   5.908  10.115  0.0612  0.6531  1.5998
 6013TIP3    H242235   6.453   5.925  10.096  0.2090  0.0004 -0.4523
 6014TIP3   OH242236   0.099   2.659  12.288  0.9525  0.7992 -0.7182
 6014TIP3    H142237   0.011   2.677  12.322  0.0521 -1.0272 -1.8822
 6014TIP3    H242238   0.098   2.694  12.199  1.2479  0.4133 -0.8791
 6015TIP3   OH242239   5.844   6.407   9.893 -0.1940 -0.2252 -0.3602
 6015TIP3    H142240   5.783   6.447   9.830 -0.3222 -0.3600 -0.3202
 6015TIP3    H242241   5.853   6.473   9.962 -1.1163 -0.6351  0.1650
 6016TIP3   OH242242   3.398   4.101  10.150  0.4200  0.2155  0.1194
 6016TIP3    H142243   3.402   4.139  10.062  1.4345 -0.4768 -0.1471
 6016TIP3    H242244   3.449   4.161  10.204 -2.4312  2.1800  0.8853
 6017TIP3   OH242245   3.527   1.920  11.628 -0.4045  0.7433  0.7289
 6017TIP3    H142246   3.528   1.847  11.689 -0.5806  0.1154 -0.0056
 6017TIP3    H242247   3.443   1.913  11.583  0.7996 -0.4153 -1.4779
 6018TIP3   OH242248   3.759   3.693  11.747  0.3376 -0.6465 -0.2527
 6018TIP3    H142249   3.729   3.721  11.660 -1.1900  0.4279  0.5634
 6018TIP3    H242250   3.842   3.649  11.731  0.9502  1.0406 -2.0829
 6019TIP3   OH242251   0.421   4.307  12.131 -0.1228  0.2060  0.0202
 6019TIP3    H142252   0.372   4.247  12.187 -0.3395  0.9098  0.6007
 6019TIP3    H242253   0.354   4.354  12.081  0.1174 -2.5443 -3.1785
 6020TIP3   OH242254   2.451   6.269  10.946 -0.3293 -0.5155  0.0647
 6020TIP3    H142255   2.393   6.286  10.872  0.2838  1.5656 -0.0143
 6020TIP3    H242256   2.425   6.183  10.978 -1.2204 -1.0809 -1.9928
 6021TIP3   OH242257   4.708   4.943  12.050 -0.0671  0.0188  0.2340
 6021TIP3    H142258   4.665   4.963  12.133 -0.1409  0.1893  0.1554
 6021TIP3    H242259   4.770   5.014  12.037  0.6783 -0.5443  0.6468
 6022TIP3   OH242260   2.507   2.306   9.567 -0.0874 -0.2641  0.0762
 6022TIP3    H142261   2.504   2.210   9.572  0.9779 -0.2976  0.2214
 6022TIP3    H242262   2.433   2.329   9.510  0.6063 -1.2873 -1.3121
 6023TIP3   OH242263   1.642   4.310  10.987  0.0588 -0.4618 -0.1533
 6023TIP3    H142264   1.596   4.281  11.066  0.6199 -0.8273  0.0468
 6023TIP3    H242265   1.621   4.244  10.921  0.4297 -0.7180 -0.0153
 6024TIP3   OH242266   1.250   3.209  11.960 -0.5611  0.3177  0.0020
 6024TIP3    H142267   1.269   3.123  11.996 -0.6321  0.9817  1.7019
 6024TIP3    H242268   1.178   3.194  11.898  1.1478 -1.2226 -1.7510
 6025TIP3   OH242269   5.552   1.219  10.030 -0.1903 -0.1192 -0.1130
 6025TIP3    H142270   5.506   1.276  10.091 -1.5803 -0.2417 -0.9915
 6025TIP3    H242271   5.623   1.181  10.081 -1.5162 -0.5049  1.5342
 6026TIP3   OH242272   2.328   1.219  10.798  0.4146 -0.2093  0.1275
 6026TIP3    H142273   2.274   1.159  10.746  1.2993 -2.3594  1.5148
 6026TIP3    H242274   2.400   1.243  10.740  0.5929 -1.3503 -0.1492
 6027TIP3   OH242275   0.893   5.759  13.415  0.1045  0.1836  0.4811
 6027TIP3    H142276   0.980   5.787  13.387 -0.1468 -1.1556 -1.8824
 6027TIP3    H242277   0.851   5.839  13.447  1.7179  1.1062  0.3881
 6028TIP3   OH242278   4.090   0.058   9.600 -0.0587 -0.1471  0.0019
 6028TIP3    H142279   4.180   0.026   9.600  1.2977  3.3122  1.0777
 6028TIP3    H242280   4.097   0.152   9.614 -3.7889  0.5489 -1.4861
 6029TIP3   OH242281   2.982   0.217  11.151  0.2680  0.1767 -0.4272
 6029TIP3    H142282   3.052   0.154  11.132 -1.1486 -1.4902 -0.2800
 6029TIP3    H242283   2.904   0.164  11.167 -0.5756  1.8526  1.6559
 6030TIP3   OH242284   0.877   2.111  10.291  0.2894  0.2491 -0.5352
 6030TIP3    H142285   0.935   2.160  10.349  0.6854 -0.6034 -0.1986
 6030TIP3    H242286   0.902   2.019  10.302 -1.4749 -0.2190  0.0338
 6031TIP3   OH242287   3.315   3.617  10.445 -0.1451 -0.6162  0.3025
 6031TIP3    H142288   3.263   3.690  10.410  0.8898  0.2678  0.5331
 6031TIP3    H242289   3.338   3.644  10.534  3.0355  0.3991 -0.6774
 6032TIP3   OH242290   1.177   4.142  12.222 -0.3085 -0.1802 -0.2605
 6032TIP3    H142291   1.190   4.067  12.163  2.2108 -0.3114  0.3501
 6032TIP3    H242292   1.215   4.216  12.176  1.9239 -0.3268  1.1796
 6033TIP3   OH242293   3.843   4.836  12.117  0.1518  0.9071  0.0728
 6033TIP3    H142294   3.858   4.921  12.158 -2.9060  1.4233  0.3249
 6033TIP3    H242295   3.753   4.813  12.141  0.4228 -1.7902 -1.1058
 6034TIP3   OH242296   2.341   1.564  11.022 -0.4641  0.1371  0.2197
 6034TIP3    H142297   2.422   1.613  11.008 -1.2689  1.3594 -0.3091
 6034TIP3    H242298   2.369   1.475  11.039  0.8968 -0.0117 -2.4546
 6035TIP3   OH242299   3.904   5.689  10.554 -0.1837 -0.1393  0.4516
 6035TIP3    H142300   3.905   5.778  10.590 -0.0485  0.7484 -1.6035
 6035TIP3    H242301   3.890   5.632  10.630 -1.8935  1.7354  1.6318
 6036TIP3   OH242302   3.852   3.921   9.507 -0.1326 -0.0137  0.0026
 6036TIP3    H142303   3.790   3.899   9.577  1.5921  2.1311  2.3763
 6036TIP3    H242304   3.923   3.857   9.517 -1.0145 -1.3375 -1.5744
 6037TIP3   OH242305   0.868   6.041  12.743 -0.6217  0.0744 -0.0205
 6037TIP3    H142306   0.907   6.119  12.703 -1.2650 -0.0125 -0.8485
 6037TIP3    H242307   0.816   6.002  12.673  0.1786 -1.4521  0.1937
 6038TIP3   OH242308   2.287   3.922  11.787  0.0578  0.0347  0.3854
 6038TIP3    H142309   2.253   3.910  11.698 -0.0210 -1.1737  0.5623
 6038TIP3    H242310   2.371   3.967  11.774  0.1627 -0.3442 -0.3219
 6039TIP3   OH242311   3.670   0.630  11.359 -0.4702 -0.0459 -0.2343
 6039TIP3    H142312   3.583   0.654  11.327 -0.7337  2.0345  1.7440
 6039TIP3    H242313   3.705   0.712  11.394  1.6936 -1.1596  0.3447
 6040TIP3   OH242314   1.949   2.968  11.641 -0.6407  0.3479 -0.3261
 6040TIP3    H142315   1.952   3.063  11.655 -1.7262  0.2889  0.4806
 6040TIP3    H242316   1.889   2.936  11.709 -1.0239 -0.7985 -1.1681
 6041TIP3   OH242317   4.207   2.547  11.681  0.3341 -0.7041 -0.0181
 6041TIP3    H142318   4.271   2.522  11.747  0.1508 -2.6821 -0.5193
 6041TIP3    H242319   4.238   2.506  11.600 -0.0287  0.7505 -0.9382
 6042TIP3   OH242320   3.206   2.484  10.269 -0.9041  0.1986 -0.3628
 6042TIP3    H142321   3.150   2.562  10.277  0.5991  1.2883  0.0476
 6042TIP3    H242322   3.249   2.494  10.184  0.2703  0.5126  0.2490
 6043TIP3   OH242323   5.163   4.217  10.926  0.1776  0.2825 -0.0790
 6043TIP3    H142324   5.205   4.140  10.965 -0.0030 -0.2317 -0.8830
 6043TIP3    H242325   5.107   4.181  10.857  1.7170  1.2648 -1.9340
 6044TIP3   OH242326   1.350   3.016  10.694  0.7908 -0.5828 -0.2967
 6044TIP3    H142327   1.350   2.937  10.640  2.5151 -1.1711  0.4999
 6044TIP3    H242328   1.386   3.084  10.638 -0.9330 -0.2514 -1.0685
 6045TIP3   OH242329   2.470   2.018  11.050  0.4618  0.5343  0.5250
 6045TIP3    H142330   2.564   2.003  11.050  0.5413  0.9835 -0.2580
 6045TIP3    H242331   2.437   1.962  11.121  0.8572 -2.6265 -1.5642
 6046TIP3   OH242332   3.137   0.581  10.911  0.1504 -0.1302  0.3024
 6046TIP3    H142333   3.100   0.494  10.926 -0.0974 -0.0825 -0.0218
 6046TIP3    H242334   3.105   0.606  10.824  2.2114 -0.7406 -0.6953
 6047TIP3   OH242335   0.538   1.153  13.176 -0.3586  0.3089  0.0395
 6047TIP3    H142336   0.567   1.234  13.219  0.2817 -0.6453  1.4593
 6047TIP3    H242337   0.449   1.139  13.209  0.0357 -0.2804  0.8967
 6048TIP3   OH242338   2.259   6.585   9.981 -0.6461  0.4543  0.8191
 6048TIP3    H142339   2.290   6.667  10.019 -0.8314  0.8115  0.2111
 6048TIP3    H242340   2.249   6.526  10.056 -0.5689  1.0023  1.2677
 6049TIP3   OH242341   3.705   4.621  10.769 -0.2215  0.1249  0.3120
 6049TIP3    H142342   3.701   4.528  10.790 -0.6169  0.0739  0.0176
 6049TIP3    H242343   3.686   4.665  10.851 -0.1245 -0.0546  0.4318
 6050TIP3   OH242344   1.762   2.757  11.108  0.1792 -0.1110 -0.4255
 6050TIP3    H142345   1.695   2.746  11.175 -0.5834  0.2357 -1.1119
 6050TIP3    H242346   1.730   2.705  11.034  0.4713  0.3653 -0.8901
 6051TIP3   OH242347   0.571   5.012  11.948  0.1629  0.1115 -0.1518
 6051TIP3    H142348   0.655   4.987  11.911  1.4895  0.7039  2.2441
 6051TIP3    H242349   0.533   4.930  11.978  0.6480  0.0067  0.1915
 6052TIP3   OH242350   3.106   2.929  11.586  0.3151  0.1967 -0.0359
 6052TIP3    H142351   3.173   2.860  11.584 -0.3416 -0.5240  1.3564
 6052TIP3    H242352   3.023   2.883  11.574 -0.2417  0.5243  2.0937
 6053TIP3   OH242353   1.010   3.378  10.295 -0.1451 -0.5731  0.1171
 6053TIP3    H142354   0.967   3.314  10.351 -0.0491 -1.2054 -0.5118
 6053TIP3    H242355   1.046   3.443  10.355  0.1454 -1.3499  0.7948
 6054TIP3   OH242356   2.382   1.838  11.230  0.1796 -0.4865  0.7617
 6054TIP3    H142357   2.346   1.752  11.205 -1.2461 -0.1791  1.6572
 6054TIP3    H242358   2.428   1.821  11.312  3.5780 -1.1873 -1.0761
 6055TIP3   OH242359   4.461   5.137  11.240 -0.3069 -0.0304  0.1038
 6055TIP3    H142360   4.405   5.060  11.253  0.9505 -0.7770  1.2891
 6055TIP3    H242361   4.467   5.145  11.144 -3.8383  1.1798 -0.1447
 6056TIP3   OH242362   2.805   0.581  12.446 -0.2074 -0.3325 -0.0973
 6056TIP3    H142363   2.737   0.513  12.450 -0.5707 -0.1298 -1.9935
 6056TIP3    H242364   2.821   0.604  12.537  0.3085 -3.3294  0.6912
 6057TIP3   OH242365   0.736   6.360  11.705  0.0815 -0.4617 -0.0835
 6057TIP3    H142366   0.684   6.339  11.628  0.8099  1.3890 -1.1536
 6057TIP3    H242367   0.687   6.430  11.749 -0.5148 -1.7425  1.3937
 6058TIP3   OH242368   6.225   3.118  10.853  0.2342  0.1821  0.0607
 6058TIP3    H142369   6.281   3.147  10.781 -0.8488  0.2171 -0.7838
 6058TIP3    H242370   6.202   3.028  10.831 -1.4227  0.7180 -0.4918
 6059TIP3   OH242371   3.998   3.522  10.668  0.2202 -0.5732 -0.0176
 6059TIP3    H142372   4.020   3.554  10.580  0.5061 -1.3009 -0.2139
 6059TIP3    H242373   4.082   3.496  10.706  0.0535 -0.6035  0.3369
 6060TIP3   OH242374   3.510   6.220  11.306 -0.0209  0.3201  0.9566
 6060TIP3    H142375   3.456   6.286  11.350  0.9686  0.8045  1.5067
 6060TIP3    H242376   3.538   6.162  11.376 -2.0183 -1.5830  0.2793
 6061TIP3   OH242377   6.230   3.582  12.316 -0.0807  0.0090  0.0742
 6061TIP3    H142378   6.193   3.536  12.391  0.2135 -0.8060 -0.2782
 6061TIP3    H242379   6.156   3.595  12.257 -0.3626  0.8624  0.5954
 6062TIP3   OH242380   5.266   5.003  12.172  0.6098  0.1078 -0.1927
 6062TIP3    H142381   5.320   5.044  12.239  1.2744  0.6391 -1.0442
 6062TIP3    H242382   5.328   4.959  12.114  0.1552  0.8306 -1.2546
 6063TIP3   OH242383   5.153   5.519  11.086 -0.1407  0.1812 -0.1431
 6063TIP3    H142384   5.150   5.432  11.127  0.9513 -0.2667 -0.9801
 6063TIP3    H242385   5.172   5.578  11.159 -1.1685 -0.2167  0.4858
 6064TIP3   OH242386   2.063   2.194   9.472  0.3497 -0.0740  0.2849
 6064TIP3    H142387   2.073   2.287   9.454  0.5129 -0.4413 -1.8409
 6064TIP3    H242388   2.095   2.151   9.393 -1.3053 -1.8859  0.5128
 6065TIP3   OH242389   6.453   4.836  12.102  0.2313  0.3194 -0.5027
 6065TIP3    H142390   6.392   4.857  12.032  0.7011 -0.2091 -1.0838
 6065TIP3    H242391   6.465   4.918  12.150  0.0683  0.7326 -1.1631
 6066TIP3   OH242392   4.265   6.182  12.113  0.4672 -0.2428 -0.2056
 6066TIP3    H142393   4.265   6.272  12.080  1.0144 -0.8568 -1.9864
 6066TIP3    H242394   4.231   6.189  12.202 -1.2465  1.5012 -0.9266
 6067TIP3   OH242395   2.937   4.460  12.211  0.5864  0.1578  0.1024
 6067TIP3    H142396   3.031   4.445  12.221  0.5457 -0.0303  0.2028
 6067TIP3    H242397   2.909   4.491  12.298  0.4585 -0.2962  0.2258
 6068TIP3   OH242398   1.417   3.864  10.730 -0.2091 -0.4560 -0.6834
 6068TIP3    H142399   1.429   3.937  10.790  0.0023 -1.7021  0.8844
 6068TIP3    H242400   1.333   3.881  10.687 -0.3604  0.4971 -0.0308
 6069TIP3   OH242401   6.430   4.242  12.028 -0.6486 -0.2514 -0.1110
 6069TIP3    H142402   6.461   4.153  12.009 -1.0729 -0.1336 -1.4358
 6069TIP3    H242403   6.431   4.287  11.944  0.1365  1.2068  0.6493
 6070TIP3   OH242404   2.384   3.952  10.172 -0.0845 -0.7238 -0.1255
 6070TIP3    H142405   2.464   3.974  10.125 -0.7783 -0.6760 -1.3368
 6070TIP3    H242406   2.402   3.869  10.215  1.0137 -0.1093  0.6289
 6071TIP3   OH242407   0.765   0.275  13.132  0.2297 -0.2030 -0.0791
 6071TIP3    H142408   0.772   0.181  13.148 -1.3372 -0.1746  0.9639
 6071TIP3    H242409   0.696   0.283  13.066 -0.4855  0.2750  0.7210
 6072TIP3   OH242410   1.810   6.181  13.384  0.6056  0.1433 -0.6626
 6072TIP3    H142411   1.881   6.183  13.448  0.4383  0.3574 -0.4843
 6072TIP3    H242412   1.838   6.241  13.315  0.0364  1.2215  0.0085
 6073TIP3   OH242413   5.988   0.255  11.464  0.1776  0.1407  0.1424
 6073TIP3    H142414   6.013   0.202  11.388 -1.1290  1.5461 -1.3472
 6073TIP3    H242415   6.051   0.326  11.466 -1.7028  1.9981 -1.7822
 6074TIP3   OH242416   5.564   0.998  11.901  0.5060  0.4531  0.1061
 6074TIP3    H142417   5.503   0.926  11.887  0.7600  0.2988 -0.2011
 6074TIP3    H242418   5.511   1.065  11.945  0.1844  0.2164  0.0874
 6075TIP3   OH242419   0.147   0.420  12.613  0.1963 -0.1491  0.0111
 6075TIP3    H142420   0.074   0.467  12.572  0.6518 -1.0628 -1.9121
 6075TIP3    H242421   0.121   0.414  12.705 -0.1225  3.4193  0.3284
 6076TIP3   OH242422   2.188   0.839   9.629  0.3596 -0.4385 -0.0633
 6076TIP3    H142423   2.136   0.891   9.690  0.2910  0.3640 -0.7853
 6076TIP3    H242424   2.125   0.782   9.585  0.5448 -1.7529  1.3111
 6077TIP3   OH242425   2.708   6.202  12.192  0.3306  0.3779 -0.2219
 6077TIP3    H142426   2.727   6.198  12.286  1.2435 -0.3314 -0.4191
 6077TIP3    H242427   2.789   6.173  12.150  0.0454  1.0115 -1.2433
 6078TIP3   OH242428   6.508   4.322  11.098 -0.0727 -0.1270  0.4162
 6078TIP3    H142429   6.483   4.312  11.006  0.6782 -0.3834  0.2376
 6078TIP3    H242430   6.426   4.308  11.146 -0.1772 -1.5194 -0.1312
 6079TIP3   OH242431   2.221   5.668  11.039  0.1166  0.0421 -0.6231
 6079TIP3    H142432   2.150   5.696  11.097 -0.2264  0.6426 -1.3146
 6079TIP3    H242433   2.283   5.741  11.040 -0.6322  0.7568 -2.1900
 6080TIP3   OH242434   1.082   4.398  10.740  0.5964  0.0828  0.5252
 6080TIP3    H142435   1.129   4.346  10.805 -1.0958  0.5728  2.2363
 6080TIP3    H242436   1.043   4.333  10.681  2.8175 -0.3441 -0.5716
 6081TIP3   OH242437   0.433   3.084   9.470 -0.0477  0.0882 -0.0182
 6081TIP3    H142438   0.487   3.029   9.413  0.7491  1.5395 -0.7395
 6081TIP3    H242439   0.485   3.094   9.550 -0.3784 -0.5047  0.2833
 6082TIP3   OH242440   1.590   2.403  12.447  0.0207  0.1023  0.3803
 6082TIP3    H142441   1.559   2.353  12.523 -1.0699  2.4347  1.5755
 6082TIP3    H242442   1.678   2.432  12.473 -0.0460  0.2539  0.4397
 6083TIP3   OH242443   2.951   1.193  11.404 -0.6443  0.2032 -0.1718
 6083TIP3    H142444   2.948   1.117  11.347  0.1447  0.0025  0.0382
 6083TIP3    H242445   2.878   1.181  11.464 -0.2037 -0.6833  0.2082
 6084TIP3   OH242446   4.210   1.296  10.367  0.1856 -0.0901  0.3424
 6084TIP3    H142447   4.198   1.232  10.296 -0.9723  1.4350 -0.9112
 6084TIP3    H242448   4.304   1.300  10.381  0.4791 -0.0884 -1.4631
 6085TIP3   OH242449   0.093   5.204  10.745 -0.3627  0.3423  0.1317
 6085TIP3    H142450   0.071   5.119  10.783 -2.9366  0.6572 -0.4443
 6085TIP3    H242451   0.151   5.184  10.672 -2.0788 -1.1452 -0.9088
 6086TIP3   OH242452   2.314   5.260  10.817 -0.0378  0.1966 -0.5569
 6086TIP3    H142453   2.239   5.294  10.769 -0.9332  0.1210  0.7598
 6086TIP3    H242454   2.341   5.331  10.875 -0.0030 -0.2660  0.0074
 6087TIP3   OH242455   5.745   5.512  10.966  0.3750 -0.3293  0.2585
 6087TIP3    H142456   5.821   5.473  11.008 -0.0383 -2.1476 -0.6099
 6087TIP3    H242457   5.760   5.500  10.872 -1.4251 -1.6788  0.0817
 6088TIP3   OH242458   0.667   6.417  12.169 -0.5351  0.4321 -0.3899
 6088TIP3    H142459   0.704   6.356  12.104 -1.1835  0.1017 -0.4612
 6088TIP3    H242460   0.643   6.361  12.243  0.7404  0.8838  0.4008
 6089TIP3   OH242461   6.618   2.797  12.765 -0.5093 -0.2714  0.1338
 6089TIP3    H142462   6.619   2.820  12.672 -0.2844  1.1299  0.4665
 6089TIP3    H242463   6.581   2.709  12.767  2.0239 -1.4966 -1.5130
 6090TIP3   OH242464   3.310   0.357  12.872 -0.4449  0.2542 -0.3260
 6090TIP3    H142465   3.287   0.295  12.802 -2.4844 -0.7292  1.1218
 6090TIP3    H242466   3.375   0.310  12.924  0.2841  0.5774 -0.9141
 6091TIP3   OH242467   2.000   4.834  10.311 -0.0021  0.3137  0.5476
 6091TIP3    H142468   1.990   4.925  10.337 -0.1037  0.1311  1.1589
 6091TIP3    H242469   2.093   4.815  10.325 -0.5362 -0.5686  3.4482
 6092TIP3   OH242470   3.939   3.194   9.985 -0.3150 -0.1590 -0.0491
 6092TIP3    H142471   3.995   3.256   9.939 -0.2905 -0.6494 -0.6980
 6092TIP3    H242472   3.913   3.240  10.065 -1.2242  1.1356 -1.0388
 6093TIP3   OH242473   1.776   2.365  10.587 -0.6618 -0.0904 -0.0577
 6093TIP3    H142474   1.782   2.377  10.492 -1.8514  0.8418 -0.0466
 6093TIP3    H242475   1.783   2.454  10.623  0.1225 -0.4666  0.7604
 6094TIP3   OH242476   5.245   0.021  11.314  0.3197  0.1773 -0.7963
 6094TIP3    H142477   5.236   0.114  11.292  0.0187 -0.0813 -1.8236
 6094TIP3    H242478   5.226  -0.025  11.232 -2.8501 -0.9397  0.3912
 6095TIP3   OH242479   4.143   5.056  11.528  0.2923  0.1576 -0.0806
 6095TIP3    H142480   4.223   5.049  11.581 -0.2195 -1.1996  0.5736
 6095TIP3    H242481   4.081   5.103  11.583  0.4052  0.5681 -0.3009
 6096TIP3   OH242482   1.729   4.666  11.985 -0.1540 -0.1707  0.0165
 6096TIP3    H142483   1.799   4.673  12.050  0.7069 -0.2657 -0.8893
 6096TIP3    H242484   1.731   4.574  11.958 -2.5492 -0.9447  2.0550
 6097TIP3   OH242485   5.409   3.036  10.346 -0.0834  0.3891  0.5135
 6097TIP3    H142486   5.314   3.040  10.358  0.0053 -0.5718  1.7022
 6097TIP3    H242487   5.423   2.959  10.291  0.0282  0.4216  0.4959
 6098TIP3   OH242488   2.305   0.827  11.767 -0.1727 -0.4692 -0.2194
 6098TIP3    H142489   2.259   0.744  11.753 -2.3179  0.9776 -2.6342
 6098TIP3    H242490   2.296   0.845  11.860 -0.5524 -2.4339  0.1598
 6099TIP3   OH242491   4.242   4.795  10.605  0.1406  0.3399 -0.0708
 6099TIP3    H142492   4.259   4.710  10.646  1.2776  0.8172  0.4871
 6099TIP3    H242493   4.161   4.825  10.644 -0.0936 -0.3385 -0.0209
 6100TIP3   OH242494   4.108   1.577   9.947  0.2556  0.2982  0.2965
 6100TIP3    H142495   4.123   1.622   9.864 -0.7304 -0.3664 -0.2611
 6100TIP3    H242496   4.192   1.537   9.968  0.7421  1.1501  0.0521
 6101TIP3   OH242497   1.626   3.306  10.775  0.1851 -0.0656  0.6353
 6101TIP3    H142498   1.646   3.399  10.781 -1.0070  0.2518  0.0002
 6101TIP3    H242499   1.711   3.263  10.773  0.7711  1.0856 -0.2254
 6102TIP3   OH242500   4.091   4.636  12.057  0.0538  0.1319 -0.4210
 6102TIP3    H142501   4.061   4.724  12.081 -0.7867  0.0554 -1.1634
 6102TIP3    H242502   4.186   4.645  12.046 -0.1317  1.1553 -1.3547
 6103TIP3   OH242503   4.177   4.967  10.903  0.0590  0.1560  0.0672
 6103TIP3    H142504   4.158   4.934  10.991  0.4480 -1.2335 -0.3469
 6103TIP3    H242505   4.124   4.913  10.844  0.0367  0.8665 -0.5828
 6104TIP3   OH242506   0.796   6.151   9.532  0.1959 -0.4927 -0.1585
 6104TIP3    H142507   0.854   6.195   9.595 -0.7757 -1.1630  1.2480
 6104TIP3    H242508   0.774   6.068   9.573  0.4199 -1.4712 -1.9041
 6105TIP3   OH242509   4.479   6.286  12.786  0.1554  0.2662  0.6712
 6105TIP3    H142510   4.446   6.272  12.875  0.5967  0.0463  0.7998
 6105TIP3    H242511   4.555   6.342  12.797  0.4259 -0.0572  0.4644
 6106TIP3   OH242512   1.767   0.641   9.831 -0.0513  0.5175  0.6202
 6106TIP3    H142513   1.683   0.676   9.861 -0.1186  0.1028  0.9249
 6106TIP3    H242514   1.809   0.608   9.910  0.4024  0.7271  0.4677
 6107TIP3   OH242515   0.797   3.306  12.697 -0.1365 -0.0742  0.0340
 6107TIP3    H142516   0.709   3.268  12.700 -0.1546 -0.0714 -0.4750
 6107TIP3    H242517   0.824   3.311  12.789 -0.1296 -1.3219  0.1081
 6108TIP3   OH242518   1.415   0.672  11.909  0.2421  0.0327  0.0195
 6108TIP3    H142519   1.440   0.580  11.923  1.2389 -0.2124 -2.6885
 6108TIP3    H242520   1.320   0.668  11.892 -0.0034 -0.2666  1.3693
 6109TIP3   OH242521   2.473   5.935  11.894  0.4224  0.3323 -0.1548
 6109TIP3    H142522   2.434   6.022  11.896  2.1215  1.1499 -0.4768
 6109TIP3    H242523   2.445   5.897  11.811  0.8554  1.1746 -0.7011
 6110TIP3   OH242524   5.862   6.415  11.086 -0.7990  0.5139  0.3350
 6110TIP3    H142525   5.811   6.343  11.047  1.6184 -0.1676 -1.8237
 6110TIP3    H242526   5.806   6.492  11.076 -0.6542  0.2793 -4.2073
 6111TIP3   OH242527   2.862   4.997  13.433  0.1593  0.2433 -0.1093
 6111TIP3    H142528   2.792   4.989  13.368  0.6134 -2.3582 -0.3830
 6111TIP3    H242529   2.859   5.089  13.460 -2.4110  0.5551 -1.1433
 6112TIP3   OH242530   4.305   3.611   9.737 -0.1323  0.8344  0.2920
 6112TIP3    H142531   4.389   3.566   9.744 -0.4546  0.3569  1.3323
 6112TIP3    H242532   4.309   3.680   9.804 -0.1940  1.4514 -0.3240
 6113TIP3   OH242533   3.576   0.041  10.317  0.1578 -0.1775  0.0643
 6113TIP3    H142534   3.647   0.018  10.377 -0.4955  0.8098  1.2609
 6113TIP3    H242535   3.500  -0.007  10.350 -0.3328  0.7737  0.3727
 6114TIP3   OH242536   4.341   6.211   9.891  0.4018 -0.1661  0.8773
 6114TIP3    H142537   4.335   6.306   9.896  1.3776 -0.1108  1.3082
 6114TIP3    H242538   4.279   6.186   9.822  0.9692  0.8873 -0.0511
 6115TIP3   OH242539   1.799   3.564  13.167 -0.1172  0.6104  0.1914
 6115TIP3    H142540   1.799   3.625  13.094 -0.4305  0.4956  0.0922
 6115TIP3    H242541   1.885   3.573  13.207 -0.3421  1.4843  0.4889
 6116TIP3   OH242542   2.420   5.478  10.341  0.2388 -0.1330 -0.1042
 6116TIP3    H142543   2.334   5.519  10.339  0.7638  0.9706 -1.1664
 6116TIP3    H242544   2.410   5.399  10.287 -0.2580 -0.3748  0.3246
 6117TIP3   OH242545   2.400   4.791  10.795  0.4770  0.0264 -0.1183
 6117TIP3    H142546   2.450   4.733  10.738 -0.0997  1.2841 -2.0294
 6117TIP3    H242547   2.461   4.863  10.814  0.6779 -0.4057  0.9242
 6118TIP3   OH242548   2.794   3.343  10.472 -0.2739 -0.4870 -0.3834
 6118TIP3    H142549   2.870   3.286  10.488 -0.7039 -1.2513 -1.0174
 6118TIP3    H242550   2.720   3.283  10.471 -0.5027 -0.2785 -3.3753
 6119TIP3   OH242551   4.328   2.623  10.261 -0.6841 -1.0964 -0.1352
 6119TIP3    H142552   4.420   2.609  10.237 -0.6719  0.2546 -0.9878
 6119TIP3    H242553   4.291   2.535  10.266  0.3978 -1.6141 -0.8713
 6120TIP3   OH242554   2.530   4.363  12.417 -0.3742 -0.2707  0.6274
 6120TIP3    H142555   2.524   4.393  12.508 -0.4899 -1.6143  1.0751
 6120TIP3    H242556   2.603   4.301  12.418 -0.3774 -0.2878 -0.2019
 6121TIP3   OH242557   0.624   2.453  13.410 -0.6070  0.0286  0.1884
 6121TIP3    H142558   0.545   2.507  13.398 -1.1264 -0.0489  2.7378
 6121TIP3    H242559   0.677   2.471  13.332 -1.0961  3.6797  0.5074
 6122TIP3   OH242560   4.859   5.650  12.522 -0.0889  0.8256  0.9069
 6122TIP3    H142561   4.840   5.743  12.528 -1.0785  0.5779  1.9220
 6122TIP3    H242562   4.787   5.607  12.567 -0.2941 -0.5200 -0.5965
 6123TIP3   OH242563   4.929   2.436  11.722  0.4685 -0.4290 -0.1111
 6123TIP3    H142564   4.952   2.452  11.630 -0.6684  0.6106 -0.2332
 6123TIP3    H242565   4.859   2.371  11.718 -0.3739  0.4623 -0.0563
 6124TIP3   OH242566   2.372   1.613  12.678 -0.1800 -0.2786 -0.6988
 6124TIP3    H142567   2.291   1.628  12.629 -0.4034 -0.4461 -0.3778
 6124TIP3    H242568   2.357   1.530  12.724 -0.1192  0.0762 -0.0378
 6125TIP3   OH242569   5.665   2.497  12.023  0.0746  0.4410 -0.5251
 6125TIP3    H142570   5.664   2.547  11.942 -0.3547 -2.0610 -2.1531
 6125TIP3    H242571   5.572   2.483  12.043  0.1931  0.3873  0.0087
 6126TIP3   OH242572   5.003   4.435   9.869 -0.5004  0.3463  0.1480
 6126TIP3    H142573   4.958   4.419   9.951  0.0538  1.0172  0.6030
 6126TIP3    H242574   5.032   4.526   9.875  1.7888 -0.3077  0.3517
 6127TIP3   OH242575   4.698   0.739  10.907  0.3388 -0.5100  0.2267
 6127TIP3    H142576   4.666   0.651  10.925 -0.8059 -0.3302 -0.8011
 6127TIP3    H242577   4.688   0.786  10.989 -0.5100 -0.9237  0.3661
 6128TIP3   OH242578   5.233   4.900  11.327 -0.2624 -0.1412 -0.0225
 6128TIP3    H142579   5.287   4.940  11.258 -0.6502 -0.5308 -0.5571
 6128TIP3    H242580   5.203   4.974  11.380 -0.9214  0.2771 -0.9612
 6129TIP3   OH242581   4.235   6.309  11.168  0.6694  0.0311  0.1405
 6129TIP3    H142582   4.203   6.234  11.118 -3.0408  0.3016  1.7636
 6129TIP3    H242583   4.325   6.285  11.192  0.8144 -2.3003 -2.2380
 6130TIP3   OH242584   2.125   2.754  12.330 -0.5625  0.4147  0.1213
 6130TIP3    H142585   2.162   2.754  12.418  0.2995 -0.2256 -0.2342
 6130TIP3    H242586   2.053   2.817  12.334 -1.4133 -0.6110  1.6529
 6131TIP3   OH242587   0.451   2.871  12.316 -0.2656 -0.0276  0.4049
 6131TIP3    H142588   0.382   2.869  12.382 -1.5977 -0.8003 -0.9432
 6131TIP3    H242589   0.466   2.964  12.300  0.2256  0.1690  1.9125
 6132TIP3   OH242590   0.865   6.009  11.583  0.0250 -0.1308 -0.0977
 6132TIP3    H142591   0.860   6.059  11.502  0.4307  0.7957  0.4350
 6132TIP3    H242592   0.959   6.004  11.603 -0.1420  0.6700  0.9288
 6133TIP3   OH242593   0.593   0.997  10.846 -0.0439  0.1162  0.3738
 6133TIP3    H142594   0.531   0.929  10.823 -0.2029 -0.1786  1.5689
 6133TIP3    H242595   0.672   0.975  10.797 -0.9796  0.7260 -1.4687
 6134TIP3   OH242596   6.278   6.538  10.549  0.0795  0.6094  0.3877
 6134TIP3    H142597   6.367   6.522  10.582 -0.7098 -2.5888  1.3266
 6134TIP3    H242598   6.221   6.512  10.621 -1.6286 -2.1615 -1.7388
 6135TIP3   OH242599   3.191   6.266  11.702  0.6419  0.4575 -0.5143
 6135TIP3    H142600   3.128   6.195  11.698 -0.5556  1.3722  0.9523
 6135TIP3    H242601   3.254   6.247  11.632  0.0307 -1.6885 -0.5474
 6136TIP3   OH242602   1.884   0.226  10.919 -0.5358  0.4072 -0.0343
 6136TIP3    H142603   1.802   0.246  10.873  0.5558  1.9829 -1.3925
 6136TIP3    H242604   1.901   0.135  10.898 -2.5150 -0.3326  1.2567
 6137TIP3   OH242605   2.398   2.241  10.073 -0.7354 -0.1205 -0.5264
 6137TIP3    H142606   2.467   2.305  10.088  0.5986 -0.9886 -2.5760
 6137TIP3    H242607   2.375   2.250   9.981 -1.5941 -1.5445 -0.4985
 6138TIP3   OH242608   1.513   4.462  10.108  0.6750  0.0822 -0.1625
 6138TIP3    H142609   1.455   4.521  10.155  1.6529  0.8734  0.0872
 6138TIP3    H242610   1.457   4.417  10.045 -0.5065 -0.4115  1.2101
 6139TIP3   OH242611   1.256   5.551  11.262  0.1943  0.4328  0.8339
 6139TIP3    H142612   1.188   5.602  11.305  0.0285  0.2693  0.7636
 6139TIP3    H242613   1.292   5.611  11.197 -1.9104 -0.4114 -1.2339
 6140TIP3   OH242614   1.366   4.710  11.372 -0.4842 -0.0096 -0.1185
 6140TIP3    H142615   1.410   4.627  11.390 -0.2705  0.2469  0.5576
 6140TIP3    H242616   1.426   4.757  11.313 -0.1167  0.0999  0.3403
 6141TIP3   OH242617   2.377   5.466  12.785 -0.2178  0.1230  0.0060
 6141TIP3    H142618   2.371   5.534  12.852  1.3196 -0.3937  0.7087
 6141TIP3    H242619   2.443   5.405  12.819 -0.1884 -0.7079 -1.4862
 6142TIP3   OH242620   2.064   6.384  11.647 -0.2304 -0.5250  0.0147
 6142TIP3    H142621   2.156   6.362  11.636  1.1918  3.6493  1.6418
 6142TIP3    H242622   2.054   6.399  11.741 -0.9410  4.3600 -0.5974
 6143TIP3   OH242623   2.037   3.605  10.280  0.1212 -0.7193  0.6170
 6143TIP3    H142624   2.010   3.679  10.336  0.9000 -1.2602  1.7315
 6143TIP3    H242625   1.962   3.546  10.282 -1.0966  0.6241 -1.4275
 6144TIP3   OH242626   4.596   2.549  12.093  0.0142 -0.2089 -0.0816
 6144TIP3    H142627   4.676   2.497  12.098  0.0708 -0.3658 -1.8318
 6144TIP3    H242628   4.626   2.637  12.069 -0.2315  0.1296  0.8237
 6145TIP3   OH242629   5.071   4.497  11.014 -0.3453 -0.4191 -0.1834
 6145TIP3    H142630   4.981   4.496  11.045 -1.1532 -1.7535 -2.3114
 6145TIP3    H242631   5.064   4.526  10.923  1.5613  0.8331  0.0200
 6146TIP3   OH242632   5.538   3.164   9.816 -0.3872 -0.4317 -0.4859
 6146TIP3    H142633   5.506   3.222   9.885 -0.7391 -0.4397 -0.6401
 6146TIP3    H242634   5.572   3.224   9.749  0.9937 -0.4388  0.1731
 6147TIP3   OH242635   0.160   6.025  11.545 -0.0893  0.0920 -0.3012
 6147TIP3    H142636   0.076   6.039  11.501 -0.2517 -2.1453 -0.8212
 6147TIP3    H242637   0.148   5.944  11.594  1.5864  0.0501  0.0823
 6148TIP3   OH242638   1.233   1.715  12.399  0.3974  0.1699 -0.3027
 6148TIP3    H142639   1.142   1.721  12.369  0.5887  1.0375 -0.7394
 6148TIP3    H242640   1.232   1.761  12.483  0.7751  1.7707 -1.1383
 6149TIP3   OH242641   5.515   2.966  11.831  0.1339  0.3022  0.5455
 6149TIP3    H142642   5.562   2.979  11.913  1.4858  0.6604 -0.2672
 6149TIP3    H242643   5.489   2.873  11.833  1.1857 -0.0027  0.8551
 6150TIP3   OH242644   1.692   3.221  11.956  0.0484 -0.0635  0.1675
 6150TIP3    H142645   1.692   3.218  12.052 -0.9267  0.9387  0.2187
 6150TIP3    H242646   1.778   3.256  11.933  0.4925 -0.8164  0.6443
 6151TIP3   OH242647   0.221   1.973  12.049 -0.1048 -0.5596 -0.0225
 6151TIP3    H142648   0.249   1.912  11.981  3.6169  2.0410 -1.1585
 6151TIP3    H242649   0.280   1.958  12.122  1.5125  1.9752 -0.6483
 6152TIP3   OH242650   4.386   0.291   9.786 -0.6505 -0.4298  0.0365
 6152TIP3    H142651   4.453   0.242   9.739  1.0872  2.2030 -0.4461
 6152TIP3    H242652   4.309   0.288   9.729  0.1735 -0.6326 -1.0928
 6153TIP3   OH242653   1.462   1.339  13.265  0.1291  0.1503  0.3797
 6153TIP3    H142654   1.505   1.361  13.347  1.0700 -0.6212  0.1166
 6153TIP3    H242655   1.522   1.371  13.197  0.0616 -0.5007  0.0019
 6154TIP3   OH242656   1.661   6.399  10.685  0.1682 -0.6592  0.2831
 6154TIP3    H142657   1.705   6.365  10.607 -0.0163  1.3844 -0.7935
 6154TIP3    H242658   1.720   6.378  10.757  1.0872 -1.2473 -0.6138
 6155TIP3   OH242659   4.874   5.813  11.366  0.4715 -0.3111  0.3496
 6155TIP3    H142660   4.941   5.874  11.399 -1.0369 -0.7617  5.0102
 6155TIP3    H242661   4.895   5.730  11.410 -1.9499 -0.9802  0.3487
 6156TIP3   OH242662   6.595   4.339  11.806 -0.0304  0.1443  0.0337
 6156TIP3    H142663   6.552   4.385  11.734  1.1809  0.1506 -0.7218
 6156TIP3    H242664   6.682   4.317  11.772  0.4619 -0.1288  1.3862
 6157TIP3   OH242665   4.580   0.468   9.867  0.2179 -0.1271  0.1139
 6157TIP3    H142666   4.640   0.395   9.881  1.5238  1.0483  0.7968
 6157TIP3    H242667   4.507   0.430   9.817  1.3802 -1.6450 -0.4838
 6158TIP3   OH242668   5.800   3.635  11.802  0.7865 -0.2920  0.2575
 6158TIP3    H142669   5.731   3.594  11.854 -1.0930 -0.1807 -2.0048
 6158TIP3    H242670   5.797   3.727  11.826 -0.3395 -0.1698 -0.3033
 6159TIP3   OH242671   5.551   5.275  10.719  0.0455  0.2918 -0.4147
 6159TIP3    H142672   5.574   5.266  10.627  0.0007 -1.2092 -0.2977
 6159TIP3    H242673   5.498   5.198  10.739 -1.5328  1.5312  0.4041
 6160TIP3   OH242674   3.666   1.466  10.864  0.6256 -0.0424 -0.2742
 6160TIP3    H142675   3.690   1.385  10.819  0.0802 -0.5155  0.2689
 6160TIP3    H242676   3.573   1.478  10.845  0.7125  0.4919 -0.3917
 6161TIP3   OH242677   1.510   1.454  10.931  0.0366 -0.3133 -0.5015
 6161TIP3    H142678   1.497   1.472  11.024 -0.3002 -0.8983 -0.4304
 6161TIP3    H242679   1.450   1.516  10.887 -1.6518 -1.6772 -0.2346
 6162TIP3   OH242680   1.518   4.418  13.190 -0.2574  0.3555  0.4055
 6162TIP3    H142681   1.544   4.381  13.106  2.0006  2.3186  0.1320
 6162TIP3    H242682   1.429   4.386  13.204  0.5904 -3.0476 -0.9032
 6163TIP3   OH242683   6.572   4.485  12.824  0.2714  0.5501 -0.4329
 6163TIP3    H142684   6.488   4.481  12.777  0.1444  0.0838 -0.1699
 6163TIP3    H242685   6.603   4.574  12.808 -2.3047  2.2983  2.9840
 6164TIP3   OH242686   2.777   3.420  11.293 -0.4044  0.5439  0.3915
 6164TIP3    H142687   2.836   3.346  11.309 -0.7261  0.2947  0.4225
 6164TIP3    H242688   2.727   3.429  11.374 -1.2625 -0.0194 -0.0593
 6165TIP3   OH242689   2.184   2.970  11.290  0.2695  0.0796  0.2482
 6165TIP3    H142690   2.200   3.038  11.355  1.1375 -0.4049  0.5563
 6165TIP3    H242691   2.113   2.918  11.326 -0.5701  0.9556 -0.1040
 6166TIP3   OH242692   5.004   3.539  11.496  0.0694  0.0499 -0.3396
 6166TIP3    H142693   5.073   3.493  11.449  0.0742 -0.6068  0.2978
 6166TIP3    H242694   5.046   3.619  11.528  1.1608 -1.2547  1.7703
 6167TIP3   OH242695   5.801   3.871  11.956 -0.1209  0.0300 -0.3928
 6167TIP3    H142696   5.789   3.961  11.926 -1.1291 -0.5540 -1.8626
 6167TIP3    H242697   5.736   3.860  12.026  0.4554  0.6217  0.2502
 6168TIP3   OH242698   5.322   3.004   9.652  0.5600 -0.3626  0.3289
 6168TIP3    H142699   5.392   3.043   9.704 -0.2298  0.2336  0.9704
 6168TIP3    H242700   5.251   2.991   9.714  0.5158 -2.1144 -0.0348
 6169TIP3   OH242701   1.194   4.606  20.306 -0.0099 -0.2393  0.4132
 6169TIP3    H142702   1.118   4.553  20.329 -0.0613 -0.0563  0.6738
 6169TIP3    H242703   1.246   4.608  20.386 -1.0356  1.8502  1.0907
 6170TIP3   OH242704   3.793   2.647   9.909 -0.0823  0.3331  0.6043
 6170TIP3    H142705   3.781   2.561   9.869  0.0176 -0.0336  1.3530
 6170TIP3    H242706   3.794   2.630  10.003 -0.1732  1.1683  0.7619
 6171TIP3   OH242707   1.615   4.951  12.244 -0.0500  0.5315 -0.3114
 6171TIP3    H142708   1.550   4.896  12.288  1.5531 -1.8730 -0.7338
 6171TIP3    H242709   1.597   4.939  12.150  0.7862  0.1057 -0.4226
 6172TIP3   OH242710   4.591   4.519  10.539 -0.2798 -0.1145 -0.2656
 6172TIP3    H142711   4.585   4.554  10.450  1.6072  4.0816  0.9692
 6172TIP3    H242712   4.520   4.563  10.587  0.1557 -0.4852  0.7509
 6173TIP3   OH242713   6.142   0.992  11.222  0.0304  1.0669  0.1149
 6173TIP3    H142714   6.208   1.023  11.284  1.6338  2.5337 -2.1933
 6173TIP3    H242715   6.078   1.063  11.218 -0.6491  0.5165  0.8181
 6174TIP3   OH242716   0.882   6.331  13.660  0.3743 -0.2169 -0.1243
 6174TIP3    H142717   0.943   6.304  13.592  1.8569  0.8172  0.7227
 6174TIP3    H242718   0.841   6.250  13.690 -0.9697 -0.6221 -2.7657
 6175TIP3   OH242719   5.576   4.167  10.537 -0.2770 -0.1022 -0.0600
 6175TIP3    H142720   5.618   4.198  10.618  0.2126 -0.0681 -0.3248
 6175TIP3    H242721   5.601   4.075  10.530 -0.1741 -0.0600 -0.2611
 6176TIP3   OH242722   3.575   3.057  12.309  0.1043  0.3323 -0.2797
 6176TIP3    H142723   3.625   3.138  12.309  0.6313  0.0311  0.7148
 6176TIP3    H242724   3.564   3.036  12.402 -0.2410 -0.6022 -0.5181
 6177TIP3   OH242725   5.823   1.644  11.259  0.1643  0.4890  0.1208
 6177TIP3    H142726   5.857   1.733  11.270 -0.3002  0.8558 -1.1888
 6177TIP3    H242727   5.728   1.653  11.264  0.1449 -0.1292  1.1407
 6178TIP3   OH242728   2.652   2.577  12.018  0.7713  0.1448 -0.2988
 6178TIP3    H142729   2.651   2.596  12.112  2.1999  1.4816 -0.5165
 6178TIP3    H242730   2.615   2.489  12.011  0.9500 -0.1159  1.5450
 6179TIP3   OH242731   3.378   1.672  10.817  0.0929 -0.1470 -0.1708
 6179TIP3    H142732   3.317   1.704  10.883 -0.0225  0.5050 -0.5792
 6179TIP3    H242733   3.460   1.717  10.835  0.0302  0.1150 -0.5371
 6180TIP3   OH242734   3.689   6.491  10.784 -0.1603  0.2149 -0.0262
 6180TIP3    H142735   3.626   6.507  10.855 -0.1422  1.5033 -0.2726
 6180TIP3    H242736   3.752   6.430  10.822 -2.0551 -1.9439 -0.0928
 6181TIP3   OH242737   2.183   6.394  13.333 -0.1090 -0.0385 -0.0086
 6181TIP3    H142738   2.156   6.485  13.349 -1.3082 -0.7249  2.4628
 6181TIP3    H242739   2.112   6.356  13.283 -1.0518 -0.3039  1.4545
 6182TIP3   OH242740   5.948   3.969  10.346 -0.2528 -0.8764 -0.2078
 6182TIP3    H142741   5.886   3.947  10.278  1.0263  1.2154 -2.2137
 6182TIP3    H242742   6.033   3.968  10.303  0.5408  1.2426  1.1171
 6183TIP3   OH242743   5.692   4.074  11.112  0.0820  0.5532  0.2171
 6183TIP3    H142744   5.688   4.158  11.158 -1.1590  0.8841 -0.4557
 6183TIP3    H242745   5.623   4.021  11.150  0.0575  0.2780 -0.1960
 6184TIP3   OH242746   1.159   0.169   9.859 -0.0909  0.3919 -0.1611
 6184TIP3    H142747   1.251   0.182   9.884 -0.2942  0.3719  0.5959
 6184TIP3    H242748   1.161   0.092   9.802  0.4828  0.9509 -0.9240
 6185TIP3   OH242749   0.866   0.277  11.607  0.1946  0.2310  0.5307
 6185TIP3    H142750   0.907   0.206  11.655  0.5005  1.7030  2.5479
 6185TIP3    H242751   0.936   0.313  11.552  0.3854 -0.1612  0.5156
 6186TIP3   OH242752   5.432   3.417  10.483 -0.1223 -0.5089 -0.1887
 6186TIP3    H142753   5.375   3.393  10.556  0.4133  0.0609  0.4213
 6186TIP3    H242754   5.473   3.499  10.510 -0.1523 -0.1236 -1.2608
 6187TIP3   OH242755   4.721   5.789  10.242 -0.7848 -0.4764  0.4192
 6187TIP3    H142756   4.684   5.772  10.155 -0.6380 -0.4171  0.3439
 6187TIP3    H242757   4.689   5.876  10.265  1.5394  0.8453 -0.8719
 6188TIP3   OH242758   4.842   4.076  10.126  0.3646 -0.2826  0.0071
 6188TIP3    H142759   4.807   4.142  10.185  0.6186 -1.1753  1.2033
 6188TIP3    H242760   4.911   4.032  10.176  0.3323 -1.3305 -0.8062
 6189TIP3   OH242761   5.627   5.809  10.258 -0.3134 -0.1313 -0.5483
 6189TIP3    H142762   5.697   5.757  10.221 -0.9364 -0.8556 -0.7375
 6189TIP3    H242763   5.671   5.873  10.314  0.4420 -1.3693  0.3322
 6190TIP3   OH242764   4.837   3.064  12.200  0.1462 -0.0808 -0.5437
 6190TIP3    H142765   4.910   3.110  12.240 -0.5016  0.8341 -0.3880
 6190TIP3    H242766   4.873   2.979  12.175  0.1576 -1.6643  3.8822
 6191TIP3   OH242767   2.848   1.588  10.654 -0.2491  0.3363  0.4960
 6191TIP3    H142768   2.771   1.557  10.701  0.3531 -0.8864  0.6977
 6191TIP3    H242769   2.901   1.631  10.721  0.9790 -2.0790  1.1971
 6192TIP3   OH242770   5.169   5.464  12.273  0.8414  0.2120  0.0937
 6192TIP3    H142771   5.145   5.554  12.294 -0.9634 -0.4824  1.2718
 6192TIP3    H242772   5.242   5.444  12.332  1.4885  1.0037 -0.4299
 6193TIP3   OH242773   6.177   6.225  11.380 -0.3649 -0.2850 -0.6871
 6193TIP3    H142774   6.263   6.260  11.358  0.3077 -1.7389 -0.5633
 6193TIP3    H242775   6.131   6.297  11.422  1.8034 -0.1572  1.7473
 6194TIP3   OH242776   3.798   2.530  10.913 -0.0960  0.1272 -0.5294
 6194TIP3    H142777   3.863   2.517  10.844  1.0700  1.1158  0.3418
 6194TIP3    H242778   3.823   2.467  10.981  0.9148  1.5411  0.4526
 6195TIP3   OH242779   1.314   5.044  10.595 -0.3511  0.1990 -0.3782
 6195TIP3    H142780   1.358   4.981  10.539 -0.6754  0.7759 -1.2990
 6195TIP3    H242781   1.300   4.997  10.677  1.9364 -0.0399 -0.0345
 6196TIP3   OH242782   1.686   5.727  13.024 -0.4236  0.3891  0.3182
 6196TIP3    H142783   1.710   5.665  13.093 -2.4891 -3.0484 -1.7572
 6196TIP3    H242784   1.749   5.799  13.033  3.4697 -2.8320  1.8105
 6197TIP3   OH242785   5.374   5.225  11.198 -0.0653 -0.0427 -0.2100
 6197TIP3    H142786   5.296   5.269  11.231 -0.1923  0.5383 -1.2526
 6197TIP3    H242787   5.363   5.224  11.103  1.8948  1.3698 -0.5010
 6198TIP3   OH242788   4.111   5.194  10.068  0.4123 -0.4211 -0.0176
 6198TIP3    H142789   4.097   5.106  10.034 -1.9272 -0.5938  1.1526
 6198TIP3    H242790   4.083   5.252   9.997 -0.0622 -0.6892 -0.0580
 6199TIP3   OH242791   0.321   0.202  10.218 -0.2859 -0.9462  0.0490
 6199TIP3    H142792   0.329   0.276  10.159  0.3083 -2.0204 -1.2629
 6199TIP3    H242793   0.399   0.207  10.274 -1.7840  1.1617  2.1183
 6200TIP3   OH242794   0.367   4.223  10.363 -0.0448  0.5398  0.0382
 6200TIP3    H142795   0.329   4.203  10.449  0.8756  0.3038  0.3968
 6200TIP3    H242796   0.340   4.313  10.346 -2.0564 -0.1026 -0.4215
 6201TIP3   OH242797   5.428   2.830  10.096  0.0924 -0.4543  0.1599
 6201TIP3    H142798   5.358   2.805  10.156  0.3841 -3.1234 -0.5116
 6201TIP3    H242799   5.411   2.778  10.017  1.9580  0.0182 -0.5941
 6202TIP3   OH242800   4.529   2.195  10.384  0.3979 -0.3856  0.0650
 6202TIP3    H142801   4.561   2.191  10.294  0.3931 -1.2346  0.0978
 6202TIP3    H242802   4.505   2.105  10.405 -2.5889  0.2874 -0.1450
 6203TIP3   OH242803   0.551   3.113   9.710  0.0098  0.1521 -0.6094
 6203TIP3    H142804   0.616   3.046   9.686 -0.7266 -1.0192  0.5527
 6203TIP3    H242805   0.597   3.171   9.770  0.9086  1.2274 -2.2779
 6204TIP3   OH242806   1.519   3.053  10.314  0.5899  0.3200 -0.2268
 6204TIP3    H142807   1.457   2.990  10.352 -1.0561  1.3103 -1.1565
 6204TIP3    H242808   1.533   3.117  10.384  0.1668  0.3473 -0.1598
 6205TIP3   OH242809   2.660   1.040  11.813  0.0645 -0.5731 -0.1057
 6205TIP3    H142810   2.741   1.009  11.852  1.8804  2.2317 -1.3700
 6205TIP3    H242811   2.623   1.100  11.877 -0.1244 -0.5429 -0.2405
 6206TIP3   OH242812   1.430   3.313   9.727 -0.3973  0.1852  0.5057
 6206TIP3    H142813   1.343   3.351   9.741  0.2131  1.3329  1.2901
 6206TIP3    H242814   1.443   3.254   9.801 -0.3638  0.2841  0.5787
 6207TIP3   OH242815   4.756   4.286  10.333  0.5754 -0.8965 -0.0900
 6207TIP3    H142816   4.666   4.303  10.302  0.4762  1.6615  1.2626
 6207TIP3    H242817   4.811   4.340  10.275  1.3933 -2.9482 -1.3290
 6208TIP3   OH242818   5.570   3.629  11.394  0.2242  0.0651  0.3169
 6208TIP3    H142819   5.487   3.676  11.381  0.1369  0.6209  2.4525
 6208TIP3    H242820   5.627   3.693  11.436  1.9465 -0.1750 -1.4634
 6209TIP3   OH242821   3.398   3.990  10.634  0.3650  0.1733 -0.1824
 6209TIP3    H142822   3.370   3.934  10.707  0.8883 -0.8117 -0.7149
 6209TIP3    H242823   3.317   4.029  10.602 -0.2192 -1.3312 -0.6424
 6210TIP3   OH242824   1.984   4.178  12.543 -0.1041  0.1743 -0.0623
 6210TIP3    H142825   2.079   4.168  12.550  0.0323 -0.2953 -1.9622
 6210TIP3    H242826   1.971   4.272  12.528  0.1404  0.1057 -0.7219
 6211TIP3   OH242827   5.895   4.378  10.482 -0.4632  0.4411  0.0249
 6211TIP3    H142828   5.870   4.465  10.515  1.0244  0.2756  1.7719
 6211TIP3    H242829   5.834   4.318  10.525  1.4264  0.2337  2.7027
 6212TIP3   OH242830   1.178   3.756   9.345  0.0190  0.1718  0.3006
 6212TIP3    H142831   1.198   3.673   9.300  0.5687  0.2886  0.3180
 6212TIP3    H242832   1.083   3.757   9.353 -0.0466 -0.1314 -0.3385
 6213TIP3   OH242833   2.981   5.239   9.848  0.1322 -0.5683  0.2249
 6213TIP3    H142834   2.937   5.207   9.927  1.2631  1.8538  1.9714
 6213TIP3    H242835   3.074   5.236   9.870  0.4686  0.2169 -0.9868
 6214TIP3   OH242836   6.073   4.638  10.540 -0.8114 -0.6208  0.7127
 6214TIP3    H142837   6.124   4.685  10.606 -1.0580  3.1111 -1.4914
 6214TIP3    H242838   6.137   4.583  10.495  0.6437  1.3605  0.2396
 6215TIP3   OH242839   2.989   4.309  12.715 -0.1236  0.2545 -0.6732
 6215TIP3    H142840   2.989   4.400  12.687 -0.0305  0.1384 -1.0691
 6215TIP3    H242841   2.908   4.299  12.764  0.1692  0.7052 -0.0913
 6216TIP3   OH242842   1.444   1.838  13.184  0.0983 -0.4322 -0.5030
 6216TIP3    H142843   1.361   1.876  13.214  0.0425 -2.3638  2.1878
 6216TIP3    H242844   1.500   1.914  13.168 -0.7390  0.9190  2.2992
 6217TIP3   OH242845   4.221   5.594  10.184 -0.2155  0.3167  0.0474
 6217TIP3    H142846   4.164   5.640  10.246 -1.1297  0.8801 -1.1654
 6217TIP3    H242847   4.276   5.662  10.146  0.3881 -0.0378  0.2732
 6218TIP3   OH242848   5.349   5.766   9.667 -0.2572  0.0962  0.0110
 6218TIP3    H142849   5.278   5.781   9.729 -0.0583 -1.2824  0.6060
 6218TIP3    H242850   5.309   5.781   9.581 -0.3558  2.6939  0.4336
 6219TIP3   OH242851   3.799   2.337  10.696 -0.7979 -0.3556 -0.5814
 6219TIP3    H142852   3.791   2.355  10.602  0.5610 -0.5427 -0.7602
 6219TIP3    H242853   3.733   2.393  10.737  2.3141  4.3769 -1.1982
 6220TIP3   OH242854   6.380   2.106  10.904  0.5221  0.0629 -0.3368
 6220TIP3    H142855   6.333   2.037  10.857 -0.9789 -0.1820  1.4003
 6220TIP3    H242856   6.379   2.181  10.845 -0.4735 -0.5116 -1.0692
 6221TIP3   OH242857   3.650   2.536  12.007 -0.2256  0.2371 -0.3457
 6221TIP3    H142858   3.650   2.518  12.101  0.1986  0.3451 -0.3249
 6221TIP3    H242859   3.656   2.632  12.001 -0.1749  0.2255 -0.4863
 6222TIP3   OH242860   5.135   2.063  10.282  0.1002 -0.0518  0.4657
 6222TIP3    H142861   5.201   1.995  10.297 -1.3335 -1.3754  1.0818
 6222TIP3    H242862   5.161   2.104  10.200  1.8592 -0.3101  0.8507
 6223TIP3   OH242863   5.902   1.039  11.955  0.9606  0.2366 -0.2810
 6223TIP3    H142864   5.821   1.034  12.006  1.8694 -0.6180  1.1442
 6223TIP3    H242865   5.892   1.119  11.903 -0.3054  0.7811  0.7269
 6224TIP3   OH242866   4.521   6.607  10.077 -0.3708 -0.3039 -0.0320
 6224TIP3    H142867   4.454   6.541  10.092 -0.5957  0.0981  0.7751
 6224TIP3    H242868   4.481   6.688  10.109  0.1117  0.1266 -0.5027
 6225TIP3   OH242869   2.249   5.731  12.346 -0.0361 -0.1003  0.1120
 6225TIP3    H142870   2.333   5.725  12.392 -1.1294  3.1801  3.0726
 6225TIP3    H242871   2.185   5.693  12.408 -1.0886  0.4339 -0.6128
 6226TIP3   OH242872   0.246   2.879  10.291  0.1596 -0.3002 -0.6394
 6226TIP3    H142873   0.329   2.831  10.299  0.3118 -0.1536 -1.2845
 6226TIP3    H242874   0.221   2.868  10.199  0.1519  0.7748 -0.7770
 6227TIP3   OH242875   0.552   6.579  12.622 -0.0119 -0.0650 -0.2602
 6227TIP3    H142876   0.516   6.587  12.534  0.7159 -1.8821 -0.7633
 6227TIP3    H242877   0.475   6.575  12.679 -0.4797  2.4800 -0.6135
 6228TIP3   OH242878   2.211   2.403   9.517  0.0577  0.2065 -0.2502
 6228TIP3    H142879   2.184   2.475   9.574  0.8464 -0.3891  0.9156
 6228TIP3    H242880   2.253   2.446   9.442 -1.2324  1.0113 -0.5454
 6229TIP3   OH242881   6.051   5.578  12.573  0.0635 -0.1520 -0.0925
 6229TIP3    H142882   6.103   5.560  12.495  0.5652  0.4639  0.0847
 6229TIP3    H242883   5.991   5.648  12.547  0.0431 -0.1359 -0.0037
 6230TIP3   OH242884   3.286   2.204  10.662  0.2092  0.5410  0.0189
 6230TIP3    H142885   3.268   2.147  10.737  0.4601  1.2222  0.6135
 6230TIP3    H242886   3.241   2.286  10.683 -0.7130  0.3563 -1.1335
 6231TIP3   OH242887   5.025   4.966  10.675 -0.1555 -0.5702  0.8689
 6231TIP3    H142888   4.933   4.971  10.703 -0.4248  0.2278 -0.0937
 6231TIP3    H242889   5.053   5.057  10.672  0.6107 -0.8001  0.9432
 6232TIP3   OH242890   6.115   1.865  11.290  0.1130  0.1885 -0.1562
 6232TIP3    H142891   6.054   1.822  11.231 -0.4694  0.6806  0.0772
 6232TIP3    H242892   6.155   1.793  11.339 -0.7551 -0.1097  0.1408
 6233TIP3   OH242893   1.400   5.324  11.219 -0.4021 -0.2438  0.0957
 6233TIP3    H142894   1.330   5.266  11.189 -1.3034  1.1152 -0.5950
 6233TIP3    H242895   1.359   5.411  11.220  1.2335  0.5763 -0.1677
 6234TIP3   OH242896   4.750   4.963  10.671  0.2974  0.0361 -0.0817
 6234TIP3    H142897   4.685   4.893  10.670 -0.8955  1.1032 -1.0766
 6234TIP3    H242898   4.732   5.013  10.591  0.1209  2.3373  1.3269
 6235TIP3   OH242899   3.914   3.350   9.468  0.4823  0.6550  0.4178
 6235TIP3    H142900   3.950   3.284   9.408  0.4172  0.5312  0.5161
 6235TIP3    H242901   3.989   3.376   9.522  0.3403  0.1057  0.8940
 6236TIP3   OH242902   5.592   2.538  10.932  0.6520 -0.4940  0.0678
 6236TIP3    H142903   5.667   2.498  10.977  1.5492 -0.4357 -1.3230
 6236TIP3    H242904   5.537   2.464  10.906 -1.6240 -0.4500  3.9842
 6237TIP3   OH242905   5.959   5.451  11.925  0.3597 -0.3339 -0.3858
 6237TIP3    H142906   5.936   5.392  11.997  0.9290  0.5282  0.5291
 6237TIP3    H242907   5.945   5.399  11.846 -2.1333 -0.7132  0.2166
 6238TIP3   OH242908   2.607   0.411  12.574  0.4825  0.1410 -0.2926
 6238TIP3    H142909   2.526   0.368  12.545 -0.9312  2.4820 -0.0754
 6238TIP3    H242910   2.591   0.435  12.665  1.8095 -0.2008  0.0460
 6239TIP3   OH242911   0.134   3.963  11.765  0.0718 -0.6246  0.0579
 6239TIP3    H142912   0.114   4.015  11.843 -0.3005 -1.2290  0.3706
 6239TIP3    H242913   0.161   3.878  11.799  0.5876 -0.6706 -0.4520
 6240TIP3   OH242914   6.482   3.511  12.007 -0.2731 -0.6807  0.4476
 6240TIP3    H142915   6.443   3.533  12.092  0.6317 -0.8520  0.9149
 6240TIP3    H242916   6.429   3.438  11.975 -2.2343  0.9712 -0.3401
 6241TIP3   OH242917   6.068   0.432  10.327  0.1382  0.3333 -0.2449
 6241TIP3    H142918   5.999   0.375  10.291 -1.0107  1.1882  0.5432
 6241TIP3    H242919   6.114   0.377  10.391  1.2036 -0.7133 -1.8277
 6242TIP3   OH242920   0.011   2.158   9.609 -0.3665 -0.2049  0.0682
 6242TIP3    H142921   0.038   2.235   9.561  1.9685 -1.6147 -1.0294
 6242TIP3    H242922   0.027   2.180   9.701  0.2439  0.6098 -0.2248
 6243TIP3   OH242923   2.254   3.657  11.487 -0.4774  0.4856  0.1229
 6243TIP3    H142924   2.341   3.696  11.482 -0.2715 -0.0530 -1.0146
 6243TIP3    H242925   2.198   3.717  11.439 -0.1875 -0.4703 -1.5004
 6244TIP3   OH242926   0.760   2.953   9.764  0.0968 -0.0006 -0.3832
 6244TIP3    H142927   0.729   2.923   9.849  1.3726  0.1708  0.1694
 6244TIP3    H242928   0.783   2.872   9.717 -0.2022 -0.0731 -0.4073
 6245TIP3   OH242929   3.701   1.834   9.666 -0.3676  0.1032 -0.2719
 6245TIP3    H142930   3.747   1.785   9.598 -0.4180  0.2692 -0.4265
 6245TIP3    H242931   3.755   1.824   9.744 -0.2209  0.0568 -0.3795
 6246TIP3   OH242932   0.904   4.353  11.977  0.1093 -0.1004  0.2537
 6246TIP3    H142933   0.928   4.279  11.921 -0.3651 -0.6104  0.7032
 6246TIP3    H242934   0.808   4.354  11.976  0.0919  1.4986 -1.0015
 6247TIP3   OH242935   0.250   5.078  10.000 -0.5759  0.1634 -0.3988
 6247TIP3    H142936   0.220   5.157   9.956 -1.1308 -1.7687 -3.8115
 6247TIP3    H242937   0.192   5.069  10.076 -2.7761  1.1977 -1.8784
 6248TIP3   OH242938   4.183   6.601  10.112  0.2877  0.3562  0.7149
 6248TIP3    H142939   4.162   6.688  10.145  0.5609  0.3199  0.9944
 6248TIP3    H242940   4.155   6.542  10.182  1.2523  0.3045  1.0641
 6249TIP3   OH242941   5.585   2.135  11.504  0.5158 -0.2040  0.0363
 6249TIP3    H142942   5.644   2.145  11.579  0.0202 -3.7529  1.1177
 6249TIP3    H242943   5.624   2.064  11.453 -0.4943  0.4330 -1.6854
 6250TIP3   OH242944   0.225   3.797  11.237  0.3135 -0.3005 -0.2806
 6250TIP3    H142945   0.205   3.753  11.155  2.3017 -1.7799 -0.0461
 6250TIP3    H242946   0.279   3.734  11.286  1.1055  1.4111  1.1847
 6251TIP3   OH242947   1.406   3.115   9.965 -0.2535  0.1301 -0.1484
 6251TIP3    H142948   1.409   3.183  10.032 -1.8998 -0.1010  0.1823
 6251TIP3    H242949   1.379   3.036  10.012  0.3998 -0.4845 -0.7645
 6252TIP3   OH242950   3.615   0.854  10.297 -0.5273 -0.2896  0.3276
 6252TIP3    H142951   3.543   0.854  10.234 -0.1620  1.0317 -0.1133
 6252TIP3    H242952   3.618   0.944  10.329  1.6256 -0.0273 -0.4746
 6253TIP3   OH242953   2.157   0.731  10.128  0.4610  0.1732 -0.3326
 6253TIP3    H142954   2.141   0.639  10.146 -0.4651  0.8361  2.9963
 6253TIP3    H242955   2.233   0.754  10.182 -0.5542  1.7223  0.5564
 6254TIP3   OH242956   1.854   5.178   9.637  0.2250  0.2337 -0.1931
 6254TIP3    H142957   1.772   5.193   9.684  0.5915 -0.0647  0.5603
 6254TIP3    H242958   1.922   5.215   9.694  0.9800 -2.5984  0.9099
 6255TIP3   OH242959   3.962   3.585  12.169 -0.4211 -0.0806 -0.2255
 6255TIP3    H142960   3.971   3.666  12.220 -1.6241 -0.3950  0.5333
 6255TIP3    H242961   4.051   3.553  12.158  0.1094  1.5105 -0.8159
 6256TIP3   OH242962   0.372   6.220  12.290  0.2217  0.4856 -0.1827
 6256TIP3    H142963   0.444   6.230  12.352 -0.4942  0.7265  0.6239
 6256TIP3    H242964   0.383   6.132  12.254 -1.0111 -0.8285  2.4373
 6257TIP3   OH242965   3.815   2.464  10.457  0.0775 -0.0751 -0.2432
 6257TIP3    H142966   3.903   2.498  10.474  0.6100 -1.3914 -0.2136
 6257TIP3    H242967   3.756   2.528  10.497  1.1118 -0.4127  1.9792
 6258TIP3   OH242968   0.701   6.449  10.067  0.2079 -0.1403  0.1816
 6258TIP3    H142969   0.670   6.364  10.038  0.9574 -1.0247  1.8347
 6258TIP3    H242970   0.653   6.512  10.014 -2.2174 -1.5036  0.6219
 6259TIP3   OH242971   2.666   4.666  10.960  0.1753 -0.2504 -0.0426
 6259TIP3    H142972   2.696   4.586  10.917 -3.1717 -1.1954 -0.8841
 6259TIP3    H242973   2.702   4.737  10.908  2.1063 -1.1695 -0.0614
 6260TIP3   OH242974   6.141   3.372  10.942 -0.4702  0.5780 -0.2383
 6260TIP3    H142975   6.158   3.281  10.918 -0.4700  0.3294  0.6751
 6260TIP3    H242976   6.047   3.375  10.959 -0.8421  1.2269 -2.2341
 6261TIP3   OH242977   0.183   5.618  10.181  0.4824 -0.2831  0.7574
 6261TIP3    H142978   0.157   5.664  10.101 -0.2412  0.0328  1.1655
 6261TIP3    H242979   0.171   5.682  10.250 -1.0450 -1.2180  1.4140
 6262TIP3   OH242980   1.624   5.204  13.065  0.5148 -0.0948  0.4019
 6262TIP3    H142981   1.660   5.247  13.143  0.7578 -1.1253  0.8793
 6262TIP3    H242982   1.537   5.242  13.055  0.8481  0.7493  0.6036
 6263TIP3   OH242983   3.276   5.084  10.552 -0.0580 -0.1990  0.0411
 6263TIP3    H142984   3.358   5.068  10.597  0.0960 -0.2430 -0.2546
 6263TIP3    H242985   3.248   5.171  10.582  1.1712  0.7780 -1.4570
 6264TIP3   OH242986   2.322   0.224  10.032  0.0798  0.3840  0.1347
 6264TIP3    H142987   2.350   0.299   9.981  3.2638 -0.7226  0.0317
 6264TIP3    H242988   2.369   0.232  10.115  1.5538 -2.0837 -0.3627
 6265TIP3   OH242989   3.108   0.632  12.709  0.8052  0.1667 -0.0195
 6265TIP3    H142990   3.026   0.621  12.757  1.0871  1.0786  0.7004
 6265TIP3    H242991   3.129   0.545  12.677  0.5167 -0.4332  1.3595
 6266TIP3   OH242992   6.598   2.462  10.748  0.2071  0.2850  0.0431
 6266TIP3    H142993   6.618   2.555  10.748  0.2238  0.2818  0.3755
 6266TIP3    H242994   6.667   2.423  10.695 -0.2477  0.5523 -0.7670
 6267TIP3   OH242995   2.926   3.667  10.000  0.5265 -0.6448 -0.0963
 6267TIP3    H142996   2.927   3.756  10.035 -0.0756 -0.3168 -0.8834
 6267TIP3    H242997   2.971   3.674   9.915  0.3268 -1.0549 -0.2397
 6268TIP3   OH242998   0.805   1.255   9.549  0.1052 -0.2793  0.1458
 6268TIP3    H142999   0.767   1.329   9.502  2.0345 -0.6220 -2.1485
 6268TIP3    H243000   0.848   1.295   9.625 -1.5812  0.5128  0.7325
 6269TIP3   OH243001   5.945   1.478  10.000  0.1933  0.3217  0.3903
 6269TIP3    H143002   5.899   1.431  10.070  0.9655  1.4057  1.6567
 6269TIP3    H243003   6.026   1.508  10.040  2.2317 -1.7232 -1.8319
 6270TIP3   OH243004   2.526   3.341  10.162  0.2560 -0.3532 -0.1276
 6270TIP3    H143005   2.463   3.347  10.234  0.3054  1.9007 -0.2029
 6270TIP3    H243006   2.580   3.420  10.171  0.4837 -0.1819 -2.4121
 6271TIP3   OH243007   3.137   3.849  10.326 -0.5435 -0.6408  0.5287
 6271TIP3    H143008   3.060   3.798  10.348 -0.6960 -1.5854 -1.9572
 6271TIP3    H243009   3.137   3.921  10.390 -1.5839 -2.4191  2.6625
 6272TIP3   OH243010   0.905   1.001  13.154 -0.7667  0.0701 -0.6137
 6272TIP3    H143011   0.923   1.094  13.168  0.5422 -0.2503 -0.0392
 6272TIP3    H243012   0.964   0.955  13.214  0.9126 -1.2102 -3.0288
 6273TIP3   OH243013   3.101   6.163  10.198 -0.4896  0.1868 -0.3663
 6273TIP3    H143014   3.037   6.122  10.140 -0.1169 -0.3643 -0.3965
 6273TIP3    H243015   3.181   6.168  10.145  0.2390 -1.5252  0.4888
 6274TIP3   OH243016   0.389   0.919  12.278  0.0981 -0.1374  0.2484
 6274TIP3    H143017   0.326   0.956  12.341  0.0831 -0.6684  0.5466
 6274TIP3    H243018   0.457   0.986  12.270 -1.3553  1.2333 -1.4057
 6275TIP3   OH243019   3.035   4.594  11.571 -0.4997  0.1151 -0.0993
 6275TIP3    H143020   3.076   4.671  11.532 -0.7004  1.6292  2.4263
 6275TIP3    H243021   3.075   4.520  11.526  1.9885  1.6204 -0.5842
 6276TIP3   OH243022   4.041   5.440  12.025 -0.1675  0.4260  0.2524
 6276TIP3    H143023   4.043   5.456  11.931 -3.1367 -2.0789 -0.4153
 6276TIP3    H243024   4.114   5.380  12.040  0.5266  1.0943 -0.3590
 6277TIP3   OH243025   2.978   6.354  10.459 -0.2548 -0.2190 -0.6067
 6277TIP3    H143026   2.990   6.396  10.374  0.9627 -0.1484 -0.4112
 6277TIP3    H243027   2.885   6.329  10.460 -0.7698  1.5513 -1.1375
 6278TIP3   OH243028   2.076   3.515  10.587  0.1815  0.4869  0.8807
 6278TIP3    H143029   2.095   3.523  10.680  1.5185 -1.9060  0.9060
 6278TIP3    H243030   2.161   3.493  10.547 -1.0536 -3.2189 -0.1500
 6279TIP3   OH243031   0.564   0.960  12.666 -0.6346 -0.4693  0.5947
 6279TIP3    H143032   0.560   0.994  12.756  1.3060 -1.7969  1.2398
 6279TIP3    H243033   0.577   0.866  12.677  1.0039 -0.4700 -1.0638
 6280TIP3   OH243034   4.857   3.765  10.819 -0.1834  0.3063  0.0642
 6280TIP3    H143035   4.803   3.736  10.746 -1.8249  0.2566  1.2451
 6280TIP3    H243036   4.882   3.685  10.864 -0.7179  0.4236  0.5871
 6281TIP3   OH243037   4.637   4.257  10.667  0.0864 -0.4517  0.1969
 6281TIP3    H143038   4.707   4.320  10.647 -0.1869 -0.4832 -0.9686
 6281TIP3    H243039   4.573   4.271  10.597  0.3885 -2.5614 -0.5669
 6282TIP3   OH243040   1.244   5.013  11.195  0.0290 -0.6338  0.3003
 6282TIP3    H143041   1.220   5.013  11.103  0.9632 -0.1566  0.0411
 6282TIP3    H243042   1.181   4.954  11.237 -0.1620 -1.1551 -0.6977
 6283TIP3   OH243043   3.103   5.856  10.391  0.2315 -0.3188  0.7194
 6283TIP3    H143044   3.076   5.827  10.478 -1.6709  1.1437  0.6928
 6283TIP3    H243045   3.057   5.799  10.330  2.8477 -2.4571  0.5460
 6284TIP3   OH243046   3.712   2.702  10.598  0.1148  0.1957  0.0186
 6284TIP3    H143047   3.775   2.683  10.667  0.4536 -1.0405 -0.6003
 6284TIP3    H243048   3.728   2.793  10.574 -0.4915  0.8899  2.0387
 6285TIP3   OH243049   1.666   0.971  13.595 -0.6071 -0.2611 -0.3484
 6285TIP3    H143050   1.676   1.053  13.548  0.6800 -0.3035 -0.1868
 6285TIP3    H243051   1.642   0.907  13.528 -1.9410  0.2951 -0.4192
 6286TIP3   OH243052   3.612   3.851  10.909  0.1853  0.2982 -0.1853
 6286TIP3    H143053   3.664   3.896  10.976 -0.1713  2.3469 -1.1857
 6286TIP3    H243054   3.649   3.881  10.826 -0.3165 -1.0379 -0.9275
 6287TIP3   OH243055   6.215   3.484  10.624  0.0413 -0.2182  0.2274
 6287TIP3    H143056   6.195   3.577  10.622 -2.3574 -0.6793 -0.5476
 6287TIP3    H243057   6.140   3.444  10.668  1.1788 -1.7606  0.8536
 6288TIP3   OH243058   5.876   6.559  10.109  0.0445 -0.0117 -0.6223
 6288TIP3    H143059   5.942   6.528  10.170  0.4012  2.8626  0.6390
 6288TIP3    H243060   5.797   6.568  10.162 -0.4220 -0.1821 -1.2764
 6289TIP3   OH243061   3.714   3.628  11.002  0.3292 -0.2325  0.5709
 6289TIP3    H143062   3.650   3.557  11.005  1.0632 -0.8765  1.4943
 6289TIP3    H243063   3.664   3.703  10.969 -0.4092 -1.2073 -0.6451
 6290TIP3   OH243064   1.670   1.614   9.918  0.3530  0.0707  0.2903
 6290TIP3    H143065   1.746   1.665   9.945  1.0521 -0.9088  0.2151
 6290TIP3    H243066   1.643   1.655   9.835  2.7265 -1.4533 -1.3361
 6291TIP3   OH243067   0.251   1.166  10.881 -0.0114  0.4473 -0.0070
 6291TIP3    H143068   0.257   1.181  10.976  1.3643  0.0231 -0.0028
 6291TIP3    H243069   0.309   1.232  10.843  0.3323 -0.1160 -0.4699
 6292TIP3   OH243070   1.445   0.714  12.595 -0.1523  0.0877 -0.1196
 6292TIP3    H143071   1.503   0.717  12.671 -0.5363  0.7440  0.1473
 6292TIP3    H243072   1.428   0.805  12.573  0.1454 -0.0885 -1.1459
 6293TIP3   OH243073   2.445   2.395  10.855  0.1379  0.2474  0.3014
 6293TIP3    H143074   2.395   2.314  10.848 -0.3669  0.6528 -1.2660
 6293TIP3    H243075   2.454   2.410  10.949  1.7557 -2.4887  0.6822
 6294TIP3   OH243076   5.612   3.237  10.345  0.0851 -0.0784  0.1759
 6294TIP3    H143077   5.555   3.165  10.373  0.1633 -0.5229 -0.7695
 6294TIP3    H243078   5.565   3.317  10.371 -1.5809 -0.4007 -1.6358
 6295TIP3   OH243079   1.574   5.639  10.779  0.1308 -0.0580 -0.9529
 6295TIP3    H143080   1.493   5.673  10.742  1.1708  1.3814 -2.0533
 6295TIP3    H243081   1.598   5.566  10.722 -0.8045 -1.0786 -0.0925
 6296TIP3   OH243082   0.563   0.751   9.956 -0.1176  0.1034  0.3562
 6296TIP3    H143083   0.555   0.777  10.048 -0.6271 -1.9404  0.9297
 6296TIP3    H243084   0.477   0.715   9.933  0.8183 -1.9905 -0.0534
 6297TIP3   OH243085   1.995   2.614   9.392  0.2289  0.0898 -0.1794
 6297TIP3    H143086   1.913   2.663   9.403 -0.2925 -0.1664 -2.3344
 6297TIP3    H243087   2.044   2.631   9.472 -2.9439 -1.8649  2.4525
 6298TIP3   OH243088   2.017   5.357  10.964 -0.0196 -0.0486  0.1510
 6298TIP3    H143089   1.947   5.323  11.019  0.2171 -1.5430 -0.4379
 6298TIP3    H243090   2.095   5.355  11.020  0.0947 -0.9706 -0.0357
 6299TIP3   OH243091   4.058   1.814  11.975  0.6597 -0.5498 -0.7018
 6299TIP3    H143092   4.081   1.810  12.068  3.5965 -2.5466 -1.3690
 6299TIP3    H243093   4.105   1.891  11.943 -0.3601  0.1440 -0.5470
 6300TIP3   OH243094   2.750   3.399  10.781 -0.6974 -0.2856  0.2141
 6300TIP3    H143095   2.786   3.314  10.755 -0.2517 -0.4683  1.3661
 6300TIP3    H243096   2.735   3.391  10.875 -0.4683  0.9754  0.3787
 6301TIP3   OH243097   6.596   0.536  11.923 -0.1545  0.0356 -0.5891
 6301TIP3    H143098   6.662   0.489  11.975 -0.4950 -1.4202 -1.4058
 6301TIP3    H243099   6.643   0.565  11.845  0.4201  2.4479  0.5595
 6302TIP3   OH243100   2.086   6.491  10.382  0.0473 -0.2178  0.1372
 6302TIP3    H143101   1.998   6.453  10.379 -0.3221  0.4245  1.7029
 6302TIP3    H243102   2.134   6.446  10.313 -1.5226 -0.5291 -0.8027
 6303TIP3   OH243103   1.680   2.255  11.173 -0.0758 -0.3675  0.4019
 6303TIP3    H143104   1.592   2.283  11.145 -0.4407 -2.4195 -0.7450
 6303TIP3    H243105   1.733   2.263  11.094  0.5539 -0.0178  0.8572
 6304TIP3   OH243106   3.076   2.508  11.110  0.2318 -0.4774 -0.1738
 6304TIP3    H143107   3.015   2.508  11.036  0.9878 -1.0597 -0.8242
 6304TIP3    H243108   3.050   2.583  11.163 -0.6712 -0.3700 -0.7480
 6305TIP3   OH243109   2.587   4.742  12.284 -0.2784  0.5441 -0.2081
 6305TIP3    H143110   2.674   4.730  12.247  0.3616  0.8444  1.1303
 6305TIP3    H243111   2.589   4.829  12.324 -1.7928  1.3087 -1.6806
 6306TIP3   OH243112   6.158   2.653  12.091 -0.0146 -0.3169 -0.0740
 6306TIP3    H143113   6.232   2.669  12.033 -0.0494  2.4273  0.5018
 6306TIP3    H243114   6.188   2.686  12.176 -0.8061 -2.0802  0.9259
 6307TIP3   OH243115   2.351   5.213  12.108  0.3192 -0.2380  0.2185
 6307TIP3    H143116   2.355   5.305  12.131  2.4311 -0.6518  1.8630
 6307TIP3    H243117   2.276   5.179  12.156  0.2024  0.4052  0.4960
 6308TIP3   OH243118   5.779   4.086  13.325  0.5651  0.1572 -0.4205
 6308TIP3    H143119   5.703   4.050  13.370  1.4352 -0.3920  0.6602
 6308TIP3    H243120   5.765   4.181  13.326  1.1302  0.2948  2.2041
 6309TIP3   OH243121   0.533   5.953  12.962 -0.1764  0.0732 -0.2797
 6309TIP3    H143122   0.451   5.947  13.011  0.3403  1.1039  0.7438
 6309TIP3    H243123   0.599   5.973  13.028  0.7817  0.0466 -1.2044
 6310TIP3   OH243124   2.995   1.873  11.818 -0.3259  0.3597  0.5250
 6310TIP3    H143125   3.016   1.963  11.845 -0.0038  0.4661 -0.0591
 6310TIP3    H243126   2.931   1.884  11.747  1.3952  0.2381 -1.1192
 6311TIP3   OH243127   1.002   2.320  11.833  0.2468  0.5971  0.0975
 6311TIP3    H143128   1.047   2.272  11.902 -1.1022  0.4204  0.8805
 6311TIP3    H243129   1.037   2.409  11.838  0.8252  0.3540  0.3882
 6312TIP3   OH243130   2.560   0.609  11.437  0.7057 -0.0806  0.3640
 6312TIP3    H143131   2.643   0.625  11.392 -1.0008  3.8395 -1.8384
 6312TIP3    H243132   2.548   0.685  11.494 -0.4697 -1.6221  2.3098
 6313TIP3   OH243133   1.824   6.217   9.677  0.8468 -0.2268  0.1241
 6313TIP3    H143134   1.900   6.215   9.735  2.0436  2.0740 -1.2224
 6313TIP3    H243135   1.861   6.227   9.589 -1.0003  1.2358 -0.5548
 6314TIP3   OH243136   5.375   4.182  12.664  0.1652  0.0347 -0.3941
 6314TIP3    H143137   5.321   4.260  12.679 -0.3610  0.0817 -2.3309
 6314TIP3    H243138   5.437   4.182  12.738 -0.4813  1.7031  0.2046
 6315TIP3   OH243139   2.464   5.788  11.165  0.2200  0.0089 -0.3420
 6315TIP3    H143140   2.517   5.852  11.213  2.5656 -0.1740 -2.4535
 6315TIP3    H243141   2.505   5.703  11.184  0.3894 -0.2104 -1.5784
 6316TIP3   OH243142   4.136   1.719  11.016  0.2903 -0.2674  0.4592
 6316TIP3    H143143   4.131   1.680  10.928  0.7396 -0.0154  0.3190
 6316TIP3    H243144   4.219   1.687  11.051  1.3170  1.5978 -0.1591
 6317TIP3   OH243145   5.636   0.865   9.559 -0.0732  0.4591  0.3910
 6317TIP3    H143146   5.561   0.808   9.578  0.4954 -0.0112  1.2629
 6317TIP3    H243147   5.706   0.832   9.615  0.1522  2.2954  1.2511
 6318TIP3   OH243148   0.616   2.418  11.531  0.0812  0.1949  0.7824
 6318TIP3    H143149   0.649   2.342  11.579  0.3676 -0.2976 -0.1600
 6318TIP3    H243150   0.543   2.384  11.480 -0.2036  0.7004  0.8499
 6319TIP3   OH243151   2.686   0.671  12.733 -0.3594 -0.5887  0.0049
 6319TIP3    H143152   2.694   0.765  12.715 -1.1202 -0.4337  0.4403
 6319TIP3    H243153   2.593   0.652  12.720 -0.2927 -1.1859  0.3742
 6320TIP3   OH243154   2.905   6.244  11.209 -0.1047 -0.1872 -0.3188
 6320TIP3    H143155   2.853   6.321  11.232 -3.5935 -3.0140  2.4055
 6320TIP3    H243156   2.857   6.203  11.137  1.1709 -0.4423 -1.0680
 6321TIP3   OH243157   5.464   6.122  12.743  0.5439  0.4860  0.1201
 6321TIP3    H143158   5.510   6.197  12.781  0.1224  0.5428  0.5265
 6321TIP3    H243159   5.435   6.071  12.819 -0.9601  0.9915 -0.0846
 6322TIP3   OH243160   4.833   1.635  11.845  0.6797 -0.7292  0.1369
 6322TIP3    H143161   4.745   1.638  11.883  0.5892  0.4494 -0.1149
 6322TIP3    H243162   4.893   1.643  11.919  0.5242  0.3397  0.1699
 6323TIP3   OH243163   2.980   2.161  10.221  0.3990 -0.7163 -0.4575
 6323TIP3    H143164   2.967   2.072  10.253 -0.9147  0.1761  1.7169
 6323TIP3    H243165   3.060   2.191  10.263  1.5858 -1.2716 -2.2408
 6324TIP3   OH243166   4.772   6.214  10.799  0.4507  0.0957  0.4963
 6324TIP3    H143167   4.804   6.301  10.824  1.7269 -0.2010 -0.0124
 6324TIP3    H243168   4.730   6.227  10.714  0.6409  0.2170  0.4202
 6325TIP3   OH243169   1.031   1.452  10.086 -0.0792  0.3274 -0.0013
 6325TIP3    H143170   1.122   1.472  10.107 -0.1835  2.0432 -1.0256
 6325TIP3    H243171   1.023   1.358  10.104  1.6988  0.2679  0.7148
 6326TIP3   OH243172   0.061   0.094  12.237  0.0292 -0.1286  0.0553
 6326TIP3    H143173   0.069   0.186  12.264  1.8024 -0.6311  1.4756
 6326TIP3    H243174   0.105   0.045  12.307 -1.5820 -2.1488 -0.2559
 6327TIP3   OH243175   4.641   1.775  10.089 -0.5916  0.6281 -0.2430
 6327TIP3    H143176   4.713   1.757  10.149 -0.0388  0.5289 -0.9216
 6327TIP3    H243177   4.563   1.768  10.143 -0.0456  1.9242  0.7739
 6328TIP3   OH243178   1.618   2.923  11.344  0.2769  0.2714 -0.2412
 6328TIP3    H143179   1.615   3.019  11.345  1.6524  0.3354 -0.3106
 6328TIP3    H243180   1.573   2.897  11.425  0.4051  0.9943  0.0751
 6329TIP3   OH243181   1.555   3.533  10.019 -0.8413  0.3096 -0.5858
 6329TIP3    H143182   1.615   3.521   9.946  0.1857  1.6670 -0.0193
 6329TIP3    H243183   1.568   3.455  10.074 -0.1745  0.2123 -0.8764
 6330TIP3   OH243184   0.099   1.739  10.762  0.4176  0.5246 -0.6368
 6330TIP3    H143185   0.180   1.726  10.713  0.9730  1.4342  0.0116
 6330TIP3    H243186   0.036   1.771  10.697  0.9008  0.8839 -0.9264
 6331TIP3   OH243187   3.397   0.453  11.390 -0.0868  0.1345 -0.0399
 6331TIP3    H143188   3.303   0.460  11.405  0.0338  0.7507  0.5028
 6331TIP3    H243189   3.416   0.524  11.328  0.0720  0.2381  0.1268
 6332TIP3   OH243190   3.012   5.297  11.562 -0.1952 -0.2514 -0.4429
 6332TIP3    H143191   2.943   5.279  11.498 -0.6503  0.3346 -0.1287
 6332TIP3    H243192   3.091   5.258  11.524 -0.7891 -1.3671 -0.5765
 6333TIP3   OH243193   0.225   3.281  10.842  1.0507 -0.0602  0.1546
 6333TIP3    H143194   0.244   3.201  10.891  0.7180  0.1416  0.6222
 6333TIP3    H243195   0.232   3.351  10.907  0.2259  0.1707  0.0035
 6334TIP3   OH243196   5.712   3.934   9.785  0.4553  0.2035  0.9043
 6334TIP3    H143197   5.685   3.977   9.866  0.1757 -1.2937  1.6446
 6334TIP3    H243198   5.731   3.844   9.811  2.5566  0.2486 -0.2932
 6335TIP3   OH243199   6.377   0.393  12.223 -0.1964  0.8310  0.0592
 6335TIP3    H143200   6.309   0.431  12.168  0.5096  1.7649 -0.1918
 6335TIP3    H243201   6.347   0.408  12.312 -1.1726 -0.3714 -0.0345
 6336TIP3   OH243202   5.574   1.398  12.024 -0.4543 -0.1770 -0.6995
 6336TIP3    H143203   5.518   1.320  12.023  0.3383 -0.7674 -0.5918
 6336TIP3    H243204   5.579   1.425  11.933 -0.3136 -0.5705 -0.8102
 6337TIP3   OH243205   4.778   4.447  10.066 -0.2069 -0.1658  0.4457
 6337TIP3    H143206   4.751   4.538  10.072 -1.7519 -0.5648  0.0793
 6337TIP3    H243207   4.734   4.414   9.987  0.3344 -1.2160  0.5617
 6338TIP3   OH243208   1.817   3.301   9.641  0.4187 -0.0050  0.2217
 6338TIP3    H143209   1.745   3.238   9.650  0.7371 -0.2867  0.9239
 6338TIP3    H243210   1.800   3.367   9.708  0.9397 -0.2101  0.5654
 6339TIP3   OH243211   3.870   2.411  10.117  0.1506 -0.3761  0.4525
 6339TIP3    H143212   3.850   2.482  10.177  2.0896  0.1704  0.5060
 6339TIP3    H243213   3.855   2.331  10.168  0.0032  0.0344  1.0488
 6340TIP3   OH243214   4.434   5.989   9.534 -0.1336 -0.2425  0.1626
 6340TIP3    H143215   4.352   5.976   9.581  0.1977  0.2394  0.8962
 6340TIP3    H243216   4.468   5.901   9.518 -0.7724 -0.4404 -0.1194
 6341TIP3   OH243217   5.900   5.901  13.180  0.1791  0.1517 -0.2991
 6341TIP3    H143218   5.874   5.882  13.090 -0.5194  0.7121 -0.2276
 6341TIP3    H243219   5.920   5.816  13.218 -2.3720 -0.4537 -0.1388
 6342TIP3   OH243220   0.930   3.873  10.643  0.3105 -0.3869  0.1763
 6342TIP3    H143221   0.892   3.919  10.569  0.3235  0.3420  0.6129
 6342TIP3    H243222   0.858   3.822  10.680 -0.1427  0.6227  0.7183
 6343TIP3   OH243223   4.561   5.379   9.754  0.2751 -0.3223 -0.3823
 6343TIP3    H143224   4.623   5.307   9.771 -0.3882 -0.9206 -0.4667
 6343TIP3    H243225   4.489   5.364   9.815  0.6522  0.9487  0.4216
 6344TIP3   OH243226   2.769   6.416  10.789 -0.6163  0.1801 -0.4431
 6344TIP3    H143227   2.772   6.398  10.882 -0.1081  1.6519 -0.1473
 6344TIP3    H243228   2.741   6.333  10.749 -1.1261 -0.3819  1.0193
 6345TIP3   OH243229   1.680   1.423  10.688 -0.0180  0.4285  0.0538
 6345TIP3    H143230   1.630   1.415  10.769 -0.1599 -0.9956 -0.1437
 6345TIP3    H243231   1.767   1.392  10.710 -0.0216  0.1558 -0.3015
 6346TIP3   OH243232   1.050   5.066  10.584  0.6721 -0.2175  0.0942
 6346TIP3    H143233   1.140   5.034  10.571  0.4947 -0.4173 -0.7037
 6346TIP3    H243234   1.004   4.991  10.623  1.2372  0.4250  2.1119
 6347TIP3   OH243235   3.621   0.446   9.774 -0.4415  0.2237  0.1518
 6347TIP3    H143236   3.552   0.454   9.707 -0.1355  1.5648 -0.0237
 6347TIP3    H243237   3.579   0.474   9.855 -0.2758  0.4297  0.1662
 6348TIP3   OH243238   1.406   3.551  12.197  0.5016  0.1987 -0.7831
 6348TIP3    H143239   1.492   3.571  12.234  0.9375  0.9036 -2.1222
 6348TIP3    H243240   1.381   3.630  12.149 -1.1834  0.2292  0.0814
 6349TIP3   OH243241   2.664   5.602  11.623 -0.4998  0.0806 -0.1099
 6349TIP3    H143242   2.694   5.607  11.532  0.0443  1.3122  0.1062
 6349TIP3    H243243   2.667   5.509  11.644 -1.1233 -0.2922 -1.5003
 6350TIP3   OH243244   3.828   2.960  10.529 -0.1427  0.3624 -0.2306
 6350TIP3    H143245   3.896   2.975  10.595  0.0083  0.6800 -0.4551
 6350TIP3    H243246   3.791   3.046  10.513 -0.4862  0.2128 -0.2314
 6351TIP3   OH243247   3.045   0.288  12.751 -0.2758 -0.5738 -0.3028
 6351TIP3    H143248   2.981   0.355  12.779 -1.0210 -1.3245 -0.1799
 6351TIP3    H243249   3.093   0.330  12.680  0.2448  0.6249  0.7094
 6352TIP3   OH243250   0.323   2.533  10.895 -0.4513 -0.0638 -0.2681
 6352TIP3    H143251   0.235   2.571  10.907  0.5119  1.5276  2.8788
 6352TIP3    H243252   0.327   2.460  10.957  0.4939  0.0424 -0.1860
 6353TIP3   OH243253   5.331   5.768  11.048 -0.3117  0.6536 -0.2772
 6353TIP3    H143254   5.271   5.773  10.974 -0.6031  0.5676 -0.0473
 6353TIP3    H243255   5.275   5.755  11.124  0.1279 -2.1399 -0.3543
 6354TIP3   OH243256   0.270   2.510  11.290  0.2315 -0.0278 -0.0313
 6354TIP3    H143257   0.268   2.600  11.256  0.4514  0.2983  0.7799
 6354TIP3    H243258   0.210   2.462  11.234  0.8203  0.4101 -1.0693
 6355TIP3   OH243259   4.358   5.925  10.500  1.0352  0.1275  0.7657
 6355TIP3    H143260   4.326   5.903  10.588 -1.9236 -0.2001 -0.2797
 6355TIP3    H243261   4.315   5.862  10.443 -0.9985  3.2098 -1.4162
 6356TIP3   OH243262   2.390   5.478  10.964  0.1114  0.0548 -0.2351
 6356TIP3    H143263   2.315   5.534  10.985 -1.5150 -2.1714  0.2597
 6356TIP3    H243264   2.454   5.496  11.033 -1.2226 -0.1478  1.1069
 6357TIP3   OH243265   5.538   1.526  11.119  0.3605  0.1355  0.1344
 6357TIP3    H143266   5.520   1.596  11.057 -0.1875 -0.6477 -0.6270
 6357TIP3    H243267   5.520   1.564  11.205  1.2061  1.2668 -0.1704
 6358TIP3   OH243268   3.085   4.406  10.085  0.1975 -0.1030  0.0765
 6358TIP3    H143269   3.000   4.364  10.079 -0.8900  1.6366  2.1899
 6358TIP3    H243270   3.067   4.496  10.114  2.7009  0.4769  0.1290
 6359TIP3   OH243271   5.617   6.364  10.208  0.1145  0.0687  0.5960
 6359TIP3    H143272   5.581   6.450  10.185 -0.8231 -0.9425 -2.0084
 6359TIP3    H243273   5.568   6.339  10.287 -1.8290  0.6390 -0.3687
 6360TIP3   OH243274   0.364   1.316  12.843 -0.4862 -0.0085 -0.0717
 6360TIP3    H143275   0.416   1.239  12.866  0.9340  0.9678  0.1257
 6360TIP3    H243276   0.274   1.283  12.834 -0.3801 -1.2289  2.5174
 6361TIP3   OH243277   5.669   1.919   9.868  0.1810 -0.3737  0.0561
 6361TIP3    H143278   5.747   1.972   9.856  1.3921 -1.9394  0.6097
 6361TIP3    H243279   5.702   1.830   9.883 -1.6542 -0.8918  1.4506
 6362TIP3   OH243280   3.439   0.047  11.074  0.0452 -0.2698  0.0801
 6362TIP3    H143281   3.478  -0.036  11.101 -0.2410 -0.1592  0.8566
 6362TIP3    H243282   3.498   0.080  11.006  0.9322 -0.4295  0.7526
 6363TIP3   OH243283   4.803   3.792  11.481  0.8463  0.5636  0.4535
 6363TIP3    H143284   4.814   3.697  11.482  0.5210  0.4766  3.1050
 6363TIP3    H243285   4.745   3.808  11.407 -1.0045 -1.6050  1.2856
 6364TIP3   OH243286   1.520   3.091  13.250  0.2492  0.2010  0.0322
 6364TIP3    H143287   1.581   3.151  13.292 -0.0760  0.2939  0.3810
 6364TIP3    H243288   1.575   3.026  13.206  0.6161  0.9404 -0.6325
 6365TIP3   OH243289   5.684   3.780  12.208  0.2464  0.2179 -0.2929
 6365TIP3    H143290   5.733   3.722  12.266 -0.4686 -0.0857  0.0219
 6365TIP3    H243291   5.636   3.838  12.266 -0.7534 -0.3207 -0.5576
 6366TIP3   OH243292   6.288   1.733  12.112 -0.4142  0.0411  0.0550
 6366TIP3    H143293   6.376   1.724  12.149 -0.0457 -0.7785 -0.9617
 6366TIP3    H243294   6.239   1.660  12.151 -1.1768  1.4927  1.9690
 6367TIP3   OH243295   2.001   0.158  10.015  0.2702 -0.0477 -0.3446
 6367TIP3    H143296   1.963   0.190   9.933  1.0842  2.0786  0.0426
 6367TIP3    H243297   2.096   0.166  10.002  0.5291 -2.1033 -0.0822
 6368TIP3   OH243298   0.345   2.888  10.720  0.2003 -0.0390  0.7025
 6368TIP3    H143299   0.319   2.802  10.687  1.0116 -0.3844  0.9432
 6368TIP3    H243300   0.361   2.940  10.641 -1.4559  0.2713  0.5455
 6369TIP3   OH243301   2.354   0.407  11.514  0.3461  0.1820 -0.4420
 6369TIP3    H143302   2.423   0.472  11.499  0.8803 -0.4335 -0.6524
 6369TIP3    H243303   2.274   0.459  11.516  0.7828  0.8769 -0.4403
 6370TIP3   OH243304   3.996   1.014  10.036 -0.1677  0.0216  0.0063
 6370TIP3    H143305   3.906   1.043  10.022  0.2048  0.5842 -1.4239
 6370TIP3    H243306   3.988   0.922  10.060 -1.1431  0.1863  0.3776
 6371TIP3   OH243307   6.209   4.008  12.021  0.3896  0.1613  0.2102
 6371TIP3    H143308   6.300   3.994  11.998  0.8445  1.4670  1.1054
 6371TIP3    H243309   6.173   3.920  12.032  1.7704 -0.3632  0.7248
 6372TIP3   OH243310   5.360   0.482  11.784 -0.0677 -0.4282 -0.0942
 6372TIP3    H143311   5.327   0.491  11.873  1.2269  0.4050  0.3253
 6372TIP3    H243312   5.430   0.417  11.791  1.8758  1.5849  0.0630
 6373TIP3   OH243313   6.310   5.105  12.732  0.4465 -0.1073 -0.4175
 6373TIP3    H143314   6.228   5.096  12.780  0.0797 -1.0101 -1.1779
 6373TIP3    H243315   6.378   5.102  12.799 -0.0958 -0.4696  0.1267
 6374TIP3   OH243316   6.277   0.979  10.897  0.3132 -0.1887 -0.1258
 6374TIP3    H143317   6.245   0.917  10.962 -1.6160 -0.0401 -0.8448
 6374TIP3    H243318   6.311   1.052  10.948 -0.2415 -0.5096  0.7313
 6375TIP3   OH243319   2.853   2.429  10.220 -0.0956 -0.1524  0.1697
 6375TIP3    H143320   2.850   2.476  10.304 -1.3629  0.6054 -0.2817
 6375TIP3    H243321   2.898   2.347  10.241  1.3210  0.8268  1.1702
 6376TIP3   OH243322   1.738   2.747   9.405  0.2415 -0.1565  0.6172
 6376TIP3    H143323   1.696   2.779   9.325  0.3882 -0.5578  0.3753
 6376TIP3    H243324   1.759   2.826   9.455 -1.0432  0.0556  0.8729
 6377TIP3   OH243325   2.580   4.581   9.505  0.2454 -0.8541 -0.4506
 6377TIP3    H143326   2.506   4.524   9.487  0.1036 -0.9694  0.4740
 6377TIP3    H243327   2.634   4.533   9.568 -0.5800  0.5468  1.4254
 6378TIP3   OH243328   6.406   0.137   9.863  0.0598 -0.2910 -0.6385
 6378TIP3    H143329   6.366   0.127   9.949 -0.1648 -0.9343 -0.8190
 6378TIP3    H243330   6.335   0.167   9.807  0.7983  3.0831 -0.0109
 6379TIP3   OH243331   0.394   1.073  18.856 -0.1129  0.3502  0.1571
 6379TIP3    H143332   0.408   0.992  18.807  1.3874  0.6726 -0.0100
 6379TIP3    H243333   0.339   1.126  18.798  0.3733  0.1366 -0.5166
 6380TIP3   OH243334   3.379   2.413  11.890  0.0748 -0.1560 -0.3567
 6380TIP3    H143335   3.461   2.439  11.934  0.3086 -1.1829 -0.1587
 6380TIP3    H243336   3.390   2.320  11.872 -0.7623 -0.1451 -0.9977
 6381TIP3   OH243337   5.793   2.838  12.212  0.0114  0.0362 -0.5360
 6381TIP3    H143338   5.860   2.815  12.276  0.3845  0.1003 -0.8945
 6381TIP3    H243339   5.835   2.822  12.127 -1.0850 -1.7727 -0.7715
 6382TIP3   OH243340   0.530   5.663  13.247  0.1482 -0.5550  0.7106
 6382TIP3    H143341   0.577   5.743  13.221  0.3350 -0.6471  0.7652
 6382TIP3    H243342   0.504   5.680  13.338  1.3207 -1.0743  1.1679
 6383TIP3   OH243343   3.470   2.445   9.441 -0.7665 -0.2774  0.1510
 6383TIP3    H143344   3.488   2.405   9.525 -2.1763 -0.1082  0.5639
 6383TIP3    H243345   3.375   2.459   9.441 -0.5696  1.2919 -0.7593
 6384TIP3   OH243346   6.286   2.147  10.508 -0.0117  0.5573 -0.1324
 6384TIP3    H143347   6.341   2.196  10.569  0.9252  0.8267 -1.1827
 6384TIP3    H243348   6.321   2.167  10.422 -1.0520 -0.1682 -0.7420
 6385TIP3   OH243349   0.482   0.219  13.912  0.0015 -0.1954 -0.0424
 6385TIP3    H143350   0.447   0.188  13.828  0.3266  0.3543 -0.3849
 6385TIP3    H243351   0.487   0.140  13.966 -0.5326 -0.4988 -0.4244
 6386TIP3   OH243352   5.387   4.465  10.985 -0.0141  0.3683  0.3809
 6386TIP3    H143353   5.464   4.409  10.991 -1.0431 -1.0731  0.4534
 6386TIP3    H243354   5.394   4.505  10.898  0.7251  0.1334  0.3231
 6387TIP3   OH243355   0.223   3.396  13.143  0.0786  0.5718 -0.1370
 6387TIP3    H143356   0.296   3.345  13.179 -0.8041  0.1978  1.2116
 6387TIP3    H243357   0.222   3.477  13.194 -0.9184  0.2258  0.4359
 6388TIP3   OH243358   2.582   6.533  12.232  0.2036  0.2155  0.8008
 6388TIP3    H143359   2.611   6.484  12.309  3.0156 -0.5203 -0.6000
 6388TIP3    H243360   2.555   6.618  12.267  2.9636  0.5236  2.4874
 6389TIP3   OH243361   5.891   1.875   9.583 -0.8612  1.0848 -0.1006
 6389TIP3    H143362   5.850   1.950   9.626 -0.0916  0.2497  2.2093
 6389TIP3    H243363   5.985   1.888   9.596 -0.6624  0.2944 -0.6897
 6390TIP3   OH243364   4.649   2.300  12.275  0.0423  0.3389 -0.0446
 6390TIP3    H143365   4.698   2.228  12.313 -0.4664  0.1033  0.1795
 6390TIP3    H243366   4.715   2.361  12.244  0.4977 -0.4910 -0.7516
 6391TIP3   OH243367   4.033   0.050  11.381  0.3309 -0.5656  0.0946
 6391TIP3    H143368   4.125   0.030  11.362  0.4568 -2.1224  2.0149
 6391TIP3    H243369   3.983  -0.015  11.332  0.3491 -0.7398  0.3043
 6392TIP3   OH243370   4.012   5.227  11.751 -0.6711 -0.4613  0.1404
 6392TIP3    H143371   3.932   5.209  11.800 -1.1321 -0.0577 -0.4442
 6392TIP3    H243372   4.077   5.249  11.818 -1.0227 -0.8900  0.6277
 6393TIP3   OH243373   5.959   1.270  10.251 -0.7478  0.0509  0.7519
 6393TIP3    H143374   6.050   1.241  10.247 -0.6077  0.3965  1.3580
 6393TIP3    H243375   5.940   1.276  10.345 -1.5553 -0.5264  0.6399
 6394TIP3   OH243376   0.081   0.729  12.845  0.4205  0.2297  0.0763
 6394TIP3    H143377   0.065   0.764  12.758  0.7449  0.3533  0.0658
 6394TIP3    H243378   0.070   0.634  12.836  0.7846  0.2123 -0.1700
 6395TIP3   OH243379   3.853   5.913  10.675  0.1053  0.0491  0.5397
 6395TIP3    H143380   3.782   5.951  10.727 -1.2006 -0.7268 -0.6108
 6395TIP3    H243381   3.910   5.988  10.655 -0.5279  0.7447  1.2440
 6396TIP3   OH243382   4.590   0.585  20.956  0.1206 -0.4738  0.3328
 6396TIP3    H143383   4.516   0.571  21.015  1.0491 -1.8930  1.2342
 6396TIP3    H243384   4.581   0.516  20.890 -0.7034  0.8747 -0.9926
 6397TIP3   OH243385   3.325   4.759   9.736 -0.1720  0.6157 -0.7384
 6397TIP3    H143386   3.341   4.748   9.829  0.2763  3.2550 -0.4248
 6397TIP3    H243387   3.292   4.674   9.707 -0.2784 -0.2891  1.7918
 6398TIP3   OH243388   4.095   5.700  11.439  0.5476 -0.2079 -0.0167
 6398TIP3    H143389   4.024   5.641  11.465  0.1212 -0.3622 -1.4272
 6398TIP3    H243390   4.063   5.787  11.460  0.5469 -0.3629  0.6671
 6399TIP3   OH243391   0.765   2.887  10.671  0.2564  0.1903 -0.0445
 6399TIP3    H143392   0.736   2.978  10.682  1.5452  0.6389 -0.1662
 6399TIP3    H243393   0.794   2.882  10.580  0.2083 -0.3495 -0.0320
 6400TIP3   OH243394   1.269   0.569  13.582 -0.0027 -0.2256  0.2902
 6400TIP3    H143395   1.185   0.536  13.614 -0.4815  1.0722  0.4578
 6400TIP3    H243396   1.265   0.663  13.600  0.8453  0.1075 -1.1317
 6401TIP3   OH243397   0.577   3.703  10.192 -0.2657 -0.1153  0.1004
 6401TIP3    H143398   0.577   3.721  10.286  0.9158 -2.8396  0.7227
 6401TIP3    H243399   0.572   3.790  10.151  0.3517  1.2267  2.6472
 6402TIP3   OH243400   2.809   5.057  12.732 -0.5560 -0.3907 -0.0845
 6402TIP3    H143401   2.868   5.091  12.665  0.2269 -2.1817 -0.3796
 6402TIP3    H243402   2.811   4.962  12.719 -1.9868 -0.6319  1.1761
 6403TIP3   OH243403   1.393   6.039  10.867  0.2173  0.7092  0.3507
 6403TIP3    H143404   1.301   6.053  10.849  0.1542  0.0417  0.1310
 6403TIP3    H243405   1.439   6.096  10.805 -0.0107 -0.9526 -1.4186
 6404TIP3   OH243406   3.713   1.133  10.943  0.1516 -0.2110 -0.1766
 6404TIP3    H143407   3.778   1.155  10.876 -0.1270 -1.4948 -0.9013
 6404TIP3    H243408   3.760   1.141  11.026  0.7918  0.3750 -0.5882
 6405TIP3   OH243409   2.637   5.140  10.205 -0.1615 -0.1239  0.1828
 6405TIP3    H143410   2.702   5.210  10.196 -0.6070  0.9130  3.6832
 6405TIP3    H243411   2.682   5.072  10.254 -1.6555  0.7126  2.8861
 6406TIP3   OH243412   5.967   6.467  10.386 -0.6936 -0.1497  0.1479
 6406TIP3    H143413   5.879   6.472  10.424 -0.6626  2.5455  0.0379
 6406TIP3    H243414   5.998   6.557  10.385  1.2064 -0.7349 -1.9055
 6407TIP3   OH243415   0.887   6.588   9.582  0.0824  0.5365 -0.4195
 6407TIP3    H143416   0.819   6.525   9.556 -0.8909  1.3229  0.1355
 6407TIP3    H243417   0.842   6.649   9.640  1.1078  1.4974 -0.5960
 6408TIP3   OH243418   2.464   1.657  10.391  0.0918 -0.3910 -0.4286
 6408TIP3    H143419   2.399   1.589  10.408 -0.6028 -0.1407 -1.9249
 6408TIP3    H243420   2.525   1.616  10.329 -0.5413  0.4330 -1.6417
 6409TIP3   OH243421   4.247   4.206  11.217 -0.6590  0.0714 -0.0500
 6409TIP3    H143422   4.311   4.227  11.286  0.6400  1.1975 -1.5298
 6409TIP3    H243423   4.163   4.229  11.256 -0.0058  0.2131  1.3494
 6410TIP3   OH243424   0.874   2.826   9.412  0.3685  0.0838  0.0110
 6410TIP3    H143425   0.876   2.751   9.471 -2.0345  1.4452  2.0260
 6410TIP3    H243426   0.936   2.888   9.449 -1.1287  0.9322  1.2290
 6411TIP3   OH243427   4.959   4.764  11.073 -0.1822 -0.0118  0.0956
 6411TIP3    H143428   4.919   4.678  11.085  0.0568 -0.1411 -0.0539
 6411TIP3    H243429   4.893   4.825  11.108 -0.0834 -0.2935  0.8007
 6412TIP3   OH243430   0.763   3.546  10.916 -0.0667 -0.2627 -0.2662
 6412TIP3    H143431   0.825   3.513  10.851  0.0469 -0.9862  0.1992
 6412TIP3    H243432   0.818   3.573  10.989 -0.2023  0.4733 -0.4309
 6413TIP3   OH243433   2.241   1.062  12.403  0.0526 -0.4513  0.2487
 6413TIP3    H143434   2.229   1.097  12.492  0.1901  0.1361  0.0399
 6413TIP3    H243435   2.194   1.124  12.347  0.2138 -0.6618 -0.1196
 6414TIP3   OH243436   0.502   2.512  11.755 -0.6542  0.5425 -0.9265
 6414TIP3    H143437   0.456   2.428  11.760  1.7951 -0.8567 -0.0082
 6414TIP3    H243438   0.536   2.516  11.666 -0.0468  0.1292 -0.7169
 6415TIP3   OH243439   6.247   0.468  11.565 -0.2538 -0.3479  0.0954
 6415TIP3    H143440   6.228   0.545  11.512 -2.0796 -1.2423 -0.6094
 6415TIP3    H243441   6.332   0.488  11.606 -0.4450  1.8023 -0.4401
 6416TIP3   OH243442   0.191   3.380  12.322 -0.0612  0.0365  0.7754
 6416TIP3    H143443   0.279   3.414  12.336  0.0170  0.1351  0.1044
 6416TIP3    H243444   0.204   3.292  12.287 -0.1857  0.4420 -0.3539
 6417TIP3   OH243445   1.015   4.728  11.623 -0.2505 -0.5317 -0.1902
 6417TIP3    H143446   0.983   4.818  11.629 -0.8035 -0.6795 -0.7424
 6417TIP3    H243447   0.974   4.683  11.697  0.9117 -0.0819  0.7428
 6418TIP3   OH243448   0.858   2.471   9.892  0.7514 -0.0272  0.8545
 6418TIP3    H143449   0.806   2.394   9.869 -1.8961  1.4504  1.4912
 6418TIP3    H243450   0.881   2.458   9.985  0.8975 -0.3353  0.7768
 6419TIP3   OH243451   4.577   2.989  12.810 -0.3126  0.3975  0.7934
 6419TIP3    H143452   4.615   3.066  12.766 -0.9699 -0.1683 -0.8365
 6419TIP3    H243453   4.614   2.914  12.764 -0.2750 -0.2658  1.8702
 6420TIP3   OH243454   1.256   2.931  11.718 -0.0839 -0.1651 -0.2835
 6420TIP3    H143455   1.290   3.001  11.662  0.2472 -0.3326 -0.2938
 6420TIP3    H243456   1.290   2.850  11.679  2.0880 -0.1804  1.4538
 6421TIP3   OH243457   0.982   2.308  10.730 -0.3981  0.1161  0.3881
 6421TIP3    H143458   0.899   2.352  10.718 -1.2150 -0.8886  1.9529
 6421TIP3    H243459   0.980   2.277  10.821  0.0342 -3.2246 -0.6180
 6422TIP3   OH243460   0.240   3.693  10.991 -0.0391 -0.2776 -0.6079
 6422TIP3    H143461   0.181   3.721  10.920  0.2109  1.9631  0.0002
 6422TIP3    H243462   0.327   3.714  10.959  0.4260 -2.6786 -1.0912
 6423TIP3   OH243463   4.937   1.145  10.422  0.0053 -0.3671  0.1791
 6423TIP3    H143464   4.925   1.129  10.515  2.5752 -0.3475  0.5761
 6423TIP3    H243465   4.982   1.067  10.389  0.1445  0.1111 -0.8069
 6424TIP3   OH243466   3.066   4.135  10.092 -0.2357  0.2263  0.3557
 6424TIP3    H143467   3.130   4.065  10.103 -0.2946 -0.0570 -1.0349
 6424TIP3    H243468   3.118   4.214  10.081 -0.1275  0.0444 -0.4503
 6425TIP3   OH243469   2.425   0.479  11.205  0.0480  0.3818 -0.0282
 6425TIP3    H143470   2.331   0.483  11.226  0.4079  1.4151  1.5729
 6425TIP3    H243471   2.467   0.527  11.276  1.9421 -1.3705  0.1211
 6426TIP3   OH243472   4.349   1.563  10.925 -0.2890 -0.0547 -0.1049
 6426TIP3    H143473   4.358   1.492  10.989  0.8809  0.7329  0.6391
 6426TIP3    H243474   4.278   1.534  10.867 -0.8452 -1.1495  1.0679
 6427TIP3   OH243475   1.446   4.375  11.189 -0.0733  0.2051 -0.0922
 6427TIP3    H143476   1.368   4.415  11.152 -1.3918 -1.2420  0.9648
 6427TIP3    H243477   1.448   4.406  11.280 -0.1859 -0.7650  0.2594
 6428TIP3   OH243478   1.950   1.988  10.114  0.2352  0.1115  0.0970
 6428TIP3    H143479   2.026   1.950  10.158  0.8377 -0.2544 -1.2000
 6428TIP3    H243480   1.962   2.083  10.122 -0.6790  0.1005  2.3545
 6429TIP3   OH243481   2.430   3.311  10.910  0.1315  0.1270 -0.4082
 6429TIP3    H143482   2.522   3.290  10.927 -0.3617 -2.4460 -0.5552
 6429TIP3    H243483   2.421   3.403  10.937  2.9907  0.8300 -1.5144
 6430TIP3   OH243484   4.041   1.488  10.479 -0.2040  0.4030 -0.3676
 6430TIP3    H143485   4.115   1.439  10.441 -0.7175  0.1370 -1.0398
 6430TIP3    H243486   4.080   1.571  10.506  0.8544 -0.6424  1.5180
 6431TIP3   OH243487   2.794   4.407  11.629 -0.3367 -0.2012 -0.5517
 6431TIP3    H143488   2.853   4.481  11.613  0.9070 -0.3866  2.4829
 6431TIP3    H243489   2.706   4.445  11.624  0.2524  1.4397  0.4987
 6432TIP3   OH243490   2.082   5.969  12.343  0.2774 -0.2222 -0.1677
 6432TIP3    H143491   2.140   5.893  12.341  2.8763  1.6045  0.7300
 6432TIP3    H243492   2.100   6.014  12.260 -0.7914 -0.2537 -0.4252
 6433TIP3   OH243493   3.226   1.569  11.518 -0.6161 -0.3291 -0.3677
 6433TIP3    H143494   3.199   1.478  11.534 -0.0028 -1.0067 -2.7464
 6433TIP3    H243495   3.321   1.567  11.529 -0.4371 -0.3343 -1.7724
 6434TIP3   OH243496   6.440   2.656   9.501 -0.2456  0.2214 -0.0483
 6434TIP3    H143497   6.515   2.692   9.548  1.3483 -0.5335 -1.8858
 6434TIP3    H243498   6.398   2.597   9.565  1.2100  0.0331  0.7806
 6435TIP3   OH243499   1.179   3.493   9.282 -0.2197 -0.1214  0.0725
 6435TIP3    H143500   1.223   3.440   9.215 -1.8589 -0.3228 -0.9022
 6435TIP3    H243501   1.231   3.479   9.361 -0.5667 -3.2015 -0.1206
 6436TIP3   OH243502   6.150   5.777  11.669  0.0337  0.4815  0.7521
 6436TIP3    H143503   6.141   5.827  11.749 -1.1141 -0.7732  1.4529
 6436TIP3    H243504   6.104   5.829  11.602 -1.7873  0.0914  1.6240
 6437TIP3   OH243505   5.108   0.639  11.496  0.0587 -0.7148  0.2848
 6437TIP3    H143506   5.044   0.690  11.446  0.3384 -0.7900 -0.1576
 6437TIP3    H243507   5.059   0.607  11.571 -0.5749 -1.2120 -0.3200
 6438TIP3   OH243508   1.062   5.947   9.580  0.2495  0.3244  0.0157
 6438TIP3    H143509   1.001   6.001   9.631  0.1581  0.2558 -0.0192
 6438TIP3    H243510   1.017   5.863   9.571  0.9012 -0.1565  1.0804
 6439TIP3   OH243511   5.325   3.808  11.969  0.3467  0.2294  0.1652
 6439TIP3    H143512   5.317   3.813  12.064  1.0086 -1.0860  0.3045
 6439TIP3    H243513   5.258   3.868  11.936  0.0677  0.6470  1.4534
 6440TIP3   OH243514   3.480   2.396  10.643 -0.2276 -0.3358 -0.5427
 6440TIP3    H143515   3.505   2.427  10.730 -1.1473  1.1153 -0.7766
 6440TIP3    H243516   3.415   2.327  10.660 -0.5034  0.0337 -0.0816
 6441TIP3   OH243517   2.377   1.287  11.059  0.2522 -0.1150  0.2383
 6441TIP3    H143518   2.349   1.265  10.970 -1.1578 -0.2622  0.6918
 6441TIP3    H243519   2.466   1.254  11.065  0.4244  0.0251 -1.1611
 6442TIP3   OH243520   3.672   1.819  10.841 -0.5804 -0.6523 -0.2789
 6442TIP3    H143521   3.756   1.849  10.809 -0.0229 -1.9080 -0.0452
 6442TIP3    H243522   3.607   1.866  10.789  0.1286  2.7577  1.6061
 6443TIP3   OH243523   6.379   4.652  11.292  0.1368  0.6829  0.1548
 6443TIP3    H143524   6.357   4.745  11.300 -3.3117  0.1004 -0.7525
 6443TIP3    H243525   6.436   4.647  11.215  1.1033  2.1131  0.7476
 6444TIP3   OH243526   6.230   2.895   9.759 -0.8557 -0.6668  0.1077
 6444TIP3    H143527   6.193   2.827   9.702 -1.0239 -0.6319  0.1749
 6444TIP3    H243528   6.298   2.936   9.706 -3.3186  1.7575 -1.4441
 6445TIP3   OH243529   2.603   0.986  12.297 -0.3300 -0.2396 -0.1240
 6445TIP3    H143530   2.590   0.892  12.281 -0.0264 -0.1686 -0.8412
 6445TIP3    H243531   2.531   1.011  12.355  0.5829 -1.2967  1.5610
 6446TIP3   OH243532   0.057   1.462  10.807 -0.3078  0.3738  0.3620
 6446TIP3    H143533   0.086   1.443  10.896  0.3020 -1.2681 -0.1585
 6446TIP3    H243534   0.085   1.553  10.793  1.6606 -0.0585  1.0639
 6447TIP3   OH243535   2.885   1.065  10.752  0.4751  0.3305  0.0501
 6447TIP3    H143536   2.887   1.003  10.679 -0.5947  0.7836 -0.3875
 6447TIP3    H243537   2.792   1.080  10.769  0.5813 -1.7311  3.2365
 6448TIP3   OH243538   3.782   3.210  10.272  0.5800  0.0284 -0.4223
 6448TIP3    H143539   3.713   3.275  10.258  2.7215  2.5394 -0.0974
 6448TIP3    H243540   3.760   3.138  10.213 -2.5945  0.4225  0.1270
 6449TIP3   OH243541   0.977   1.060  12.660  0.2739 -0.0888  0.1285
 6449TIP3    H143542   0.887   1.036  12.679  0.1470  0.4914  0.2548
 6449TIP3    H243543   0.980   1.155  12.669  0.6224  0.0268 -1.0060
 6450TIP3   OH243544   1.655   2.085  11.916  0.5442  0.1099 -0.6438
 6450TIP3    H143545   1.659   2.119  12.006  0.0518 -1.5274  0.0312
 6450TIP3    H243546   1.643   2.163  11.862 -1.7544  0.9746  0.9260
 6451TIP3   OH243547   5.355   1.179   9.818  0.1276 -0.1080 -0.1594
 6451TIP3    H143548   5.390   1.172   9.907  1.3165  3.1785 -0.2235
 6451TIP3    H243549   5.432   1.183   9.762 -0.5646 -0.3459 -1.1554
 6452TIP3   OH243550   5.101   2.367  10.036 -0.1629  0.1558  0.2763
 6452TIP3    H143551   5.157   2.292  10.015 -0.5848 -0.0307 -0.2083
 6452TIP3    H243552   5.036   2.332  10.097  0.1769  0.3497  0.7621
 6453TIP3   OH243553   5.888   6.295  12.163  0.2045  0.1167  0.2318
 6453TIP3    H143554   5.856   6.341  12.240  0.8398  0.8716  0.0530
 6453TIP3    H243555   5.816   6.301  12.100  0.0490  0.3261  0.4271
 6454TIP3   OH243556   3.601   4.992  11.877  0.4529  0.1313  0.1805
 6454TIP3    H143557   3.540   5.000  11.804  1.2030  0.1646 -0.4619
 6454TIP3    H243558   3.665   4.927  11.847  2.0705  1.8088 -0.1457
 6455TIP3   OH243559   5.011   0.505  10.001 -0.0042  0.3810 -0.0451
 6455TIP3    H143560   5.055   0.578   9.959  2.5003 -1.5521 -1.0138
 6455TIP3    H243561   4.984   0.448   9.929  0.1023 -0.7164  0.7467
 6456TIP3   OH243562   1.678   6.464   9.571 -0.3512 -0.3139  0.1107
 6456TIP3    H143563   1.588   6.469   9.603  0.0786  0.9094  1.1946
 6456TIP3    H243564   1.715   6.388   9.616 -0.0546  0.8018  1.8333
 6457TIP3   OH243565   5.976   5.890  12.795  0.7892 -0.1835  0.5502
 6457TIP3    H143566   5.971   5.986  12.796  0.0300 -0.1554 -1.2958
 6457TIP3    H243567   5.964   5.867  12.703 -2.6114 -2.2042  1.3258
 6458TIP3   OH243568   3.996   4.193  11.653  0.4369 -0.8590  0.2379
 6458TIP3    H143569   3.940   4.117  11.639 -1.7269  0.9252 -1.6947
 6458TIP3    H243570   3.967   4.229  11.737 -0.4012 -0.7184 -0.1002
 6459TIP3   OH243571   0.821   5.266  10.372 -0.2099  0.3327 -0.4967
 6459TIP3    H143572   0.894   5.293  10.427  0.5065  1.6188 -1.9714
 6459TIP3    H243573   0.790   5.184  10.409  1.1838  0.4082  0.8960
 6460TIP3   OH243574   5.564   2.668  12.306 -0.5604  0.0372 -0.4720
 6460TIP3    H143575   5.512   2.741  12.341 -0.3297  0.3109 -0.7019
 6460TIP3    H243576   5.634   2.710  12.256 -0.9995 -0.3529 -1.4349
 6461TIP3   OH243577   1.994   5.572  10.129  0.3924  0.0619  0.2902
 6461TIP3    H143578   2.079   5.536  10.102 -0.8768 -0.6365 -3.2588
 6461TIP3    H243579   1.930   5.512  10.093 -1.6934  1.5448  1.3199
 6462TIP3   OH243580   3.792   1.403   9.706  0.2351 -0.1037  0.0816
 6462TIP3    H143581   3.887   1.395   9.697  0.4915  0.3885  1.8974
 6462TIP3    H243582   3.768   1.471   9.644  1.1783  0.2712  0.1115
 6463TIP3   OH243583   4.110   1.164   9.448 -0.2308 -0.5000  0.6327
 6463TIP3    H143584   4.032   1.159   9.393  0.4175 -1.6373 -0.2210
 6463TIP3    H243585   4.098   1.244   9.499 -1.0435  0.4044 -0.8815
 6464TIP3   OH243586   2.883   1.402  12.053 -0.4873  0.3003 -0.2106
 6464TIP3    H143587   2.966   1.441  12.024  0.0419 -0.4220  0.2936
 6464TIP3    H243588   2.907   1.315  12.084 -1.6041 -0.3170 -1.0153
 6465TIP3   OH243589   0.609   1.465  13.001 -0.2575  0.1543  0.2739
 6465TIP3    H143590   0.535   1.407  13.018  0.2238 -0.4037  0.4915
 6465TIP3    H243591   0.682   1.427  13.050  0.6406 -0.3476 -1.3533
 6466TIP3   OH243592   3.553   5.315  10.279 -0.0466  0.0299  0.0167
 6466TIP3    H143593   3.549   5.261  10.359  0.4948 -2.7814 -1.7184
 6466TIP3    H243594   3.601   5.393  10.306 -2.0331  0.4055  3.0163
 6467TIP3   OH243595   1.751   5.697   9.538  0.1574 -0.3728  0.0447
 6467TIP3    H143596   1.756   5.633   9.467  2.4839  2.9000 -3.0666
 6467TIP3    H243597   1.835   5.689   9.584  0.6540  0.6835 -0.6524
 6468TIP3   OH243598   0.868   1.784  12.479 -0.2495  0.0642 -0.4426
 6468TIP3    H143599   0.869   1.779  12.383  0.7446  0.2301 -0.4552
 6468TIP3    H243600   0.893   1.696  12.508  1.5274  0.5378 -0.3962
 6469TIP3   OH243601   5.522   5.084  12.790 -0.4448 -0.4252  0.0548
 6469TIP3    H143602   5.480   5.168  12.770  0.2524  0.2552  1.3342
 6469TIP3    H243603   5.454   5.019  12.772 -1.9749  0.6252  1.6921
 6470TIP3   OH243604   3.347   1.941   9.476  0.3397 -0.4423 -0.4059
 6470TIP3    H143605   3.295   2.021   9.480  1.6554  0.4552 -0.7200
 6470TIP3    H243606   3.286   1.871   9.500 -0.8216  0.6507 -0.1014
 6471TIP3   OH243607   4.609   3.868  11.303  0.1888 -0.0227 -0.4199
 6471TIP3    H143608   4.620   3.943  11.244  1.8786  0.5879  0.5978
 6471TIP3    H243609   4.514   3.859  11.312 -0.0698  1.1690 -1.5955
 6472TIP3   OH243610   1.245   1.497  11.523 -0.0653  0.3230  1.0797
 6472TIP3    H143611   1.176   1.506  11.587  0.2018 -0.9144  1.5617
 6472TIP3    H243612   1.261   1.403  11.516  1.8358  0.5798  1.2862
 6473TIP3   OH243613   0.627   4.724  10.982  0.3528 -0.6267  1.1402
 6473TIP3    H143614   0.642   4.647  10.927 -0.0909  0.3589 -0.4097
 6473TIP3    H243615   0.532   4.737  10.980  0.5344  0.9072 -0.0263
 6474TIP3   OH243616   5.075   5.216  12.186 -0.3320 -0.1239  0.2800
 6474TIP3    H143617   5.103   5.305  12.206 -1.2991  1.0975 -3.1159
 6474TIP3    H243618   5.156   5.169  12.167  0.0441  0.8629 -0.6597
 6475TIP3   OH243619   4.805   2.001  11.052 -0.7018 -0.3939 -0.6604
 6475TIP3    H143620   4.742   1.996  10.981  1.6992  0.7456 -3.0747
 6475TIP3    H243621   4.829   1.910  11.069 -0.3828 -0.6563 -2.2986
 6476TIP3   OH243622   4.082   2.593  12.138  0.7225 -0.0398 -0.4722
 6476TIP3    H143623   4.138   2.671  12.134  0.3074  0.2376 -1.0197
 6476TIP3    H243624   4.007   2.615  12.083 -0.0483 -0.3122  0.4431
 6477TIP3   OH243625   4.218   0.925  11.594  0.7563  0.2145 -0.1195
 6477TIP3    H143626   4.239   0.832  11.603 -1.6629 -0.3604  0.4503
 6477TIP3    H243627   4.211   0.939  11.500  0.1282 -0.4460 -0.1791
 6478TIP3   OH243628   4.446   0.180  10.709  0.0690  0.1142 -0.3446
 6478TIP3    H143629   4.495   0.177  10.791  1.7226  0.7511 -1.2652
 6478TIP3    H243630   4.495   0.123  10.650 -1.4586 -0.8445 -0.7392
 6479TIP3   OH243631   0.212   5.819  13.260  0.3455  0.1131  0.2114
 6479TIP3    H143632   0.121   5.835  13.286  0.1603  0.4177 -0.6013
 6479TIP3    H243633   0.258   5.804  13.342 -0.6807 -1.2813  0.5710
 6480TIP3   OH243634   2.726   0.624  12.094 -0.2185 -0.2588 -0.2515
 6480TIP3    H143635   2.783   0.678  12.149 -0.9541  0.0741  0.2009
 6480TIP3    H243636   2.654   0.599  12.152 -1.1804  0.3620 -1.1388
 6481TIP3   OH243637   4.477   5.181  10.974  0.0941 -0.5582  0.1421
 6481TIP3    H143638   4.572   5.195  10.984  0.0923  1.1572 -1.5838
 6481TIP3    H243639   4.470   5.107  10.914  0.2725 -2.0264  1.8689
 6482TIP3   OH243640   2.124   4.154  10.663 -0.4146 -0.1469 -0.4768
 6482TIP3    H143641   2.143   4.247  10.672 -0.4733 -0.1594 -0.2173
 6482TIP3    H243642   2.100   4.126  10.752  1.3663 -0.8012 -0.1401
 6483TIP3   OH243643   4.292   2.808  12.508  0.4149  0.0755 -0.1091
 6483TIP3    H143644   4.287   2.893  12.466  1.7492 -0.8330 -2.3169
 6483TIP3    H243645   4.201   2.779  12.518  0.0355  0.7561 -1.5181
 6484TIP3   OH243646   6.519   1.100  10.004 -0.1244  0.0935  0.5365
 6484TIP3    H143647   6.602   1.114  10.049 -0.0017  0.5716  0.1696
 6484TIP3    H243648   6.516   1.006   9.985  0.3573  0.0868  0.4978
 6485TIP3   OH243649   3.115   4.844  10.639 -0.4391  0.2189 -0.2092
 6485TIP3    H143650   3.180   4.793  10.590  0.6263 -0.6468  1.9725
 6485TIP3    H243651   3.126   4.933  10.607 -0.2395 -0.4045 -1.9796
 6486TIP3   OH243652   3.083   6.047   9.674 -0.3618  0.6054  0.1713
 6486TIP3    H143653   3.138   5.970   9.693 -0.9687  0.0179 -0.3716
 6486TIP3    H243654   2.994   6.013   9.676 -0.6209  1.2234 -0.4321
 6487TIP3   OH243655   2.182   5.033  12.948 -0.9135 -0.1781 -0.7992
 6487TIP3    H143656   2.139   5.008  13.030 -1.1431 -0.2483 -0.9393
 6487TIP3    H243657   2.249   5.096  12.974 -0.2052 -1.0610 -0.4202
 6488TIP3   OH243658   5.276   0.216  11.616 -0.7290 -0.1767 -0.1498
 6488TIP3    H143659   5.298   0.297  11.661 -3.1896 -0.2855  1.4678
 6488TIP3    H243660   5.354   0.161  11.625 -0.5265  0.4477  2.5629
 6489TIP3   OH243661   1.429   0.277  12.298  0.8201 -0.1363  0.1678
 6489TIP3    H143662   1.389   0.210  12.243 -0.6332  0.8223  0.0137
 6489TIP3    H243663   1.359   0.307  12.355  1.8443  0.1856  1.2897
 6490TIP3   OH243664   5.282   3.359   9.895 -0.0158 -0.2625 -0.3238
 6490TIP3    H143665   5.300   3.390   9.806  1.0333 -1.0195 -0.3955
 6490TIP3    H243666   5.366   3.363   9.940 -0.2502 -1.1336  0.2353
 6491TIP3   OH243667   0.016   2.374  11.703  0.8972  0.3127  0.1282
 6491TIP3    H143668   0.039   2.283  11.723  0.2382  0.5640  2.1927
 6491TIP3    H243669   0.089   2.425  11.738  0.6513  0.6596  0.1376
 6492TIP3   OH243670   3.189   0.163   9.414  0.6570  0.4703 -0.0977
 6492TIP3    H143671   3.160   0.125   9.497 -1.0039 -0.1045 -0.8961
 6492TIP3    H243672   3.174   0.257   9.424 -1.2015  0.2428 -0.3143
 6493TIP3   OH243673   2.049   5.192  12.017  0.3964 -0.0864 -0.6589
 6493TIP3    H143674   1.965   5.148  12.009  1.4153 -1.9643 -1.8613
 6493TIP3    H243675   2.075   5.179  12.108 -0.3140 -0.0280 -0.4419
 6494TIP3   OH243676   4.071   3.595  10.406 -0.0768 -0.0589  0.1773
 6494TIP3    H143677   4.043   3.687  10.411 -2.6973 -0.6888 -1.1511
 6494TIP3    H243678   4.038   3.565  10.322 -1.1594 -2.8000  1.4847
 6495TIP3   OH243679   5.978   4.647  11.827 -0.1146 -0.9054  0.2592
 6495TIP3    H143680   6.070   4.661  11.850 -0.0199  0.7913 -1.0079
 6495TIP3    H243681   5.930   4.671  11.906  0.4885 -1.1234  0.6982
 6496TIP3   OH243682   1.031   5.783   9.911 -0.2352  0.3460 -0.0171
 6496TIP3    H143683   1.125   5.797   9.896 -0.3096  0.2751 -0.5524
 6496TIP3    H243684   0.990   5.803   9.827 -0.3156 -3.5666 -1.1205
 6497TIP3   OH243685   5.769   2.358  12.319  0.3890  0.2768  0.0920
 6497TIP3    H143686   5.808   2.402  12.244  0.9412  1.4432  1.0229
 6497TIP3    H243687   5.789   2.415  12.394 -2.8640  0.8237  0.7022
 6498TIP3   OH243688   1.515   1.717  11.090 -0.7276 -0.0154 -0.1501
 6498TIP3    H143689   1.501   1.701  10.997 -0.7900 -0.1868 -0.1101
 6498TIP3    H243690   1.609   1.705  11.102 -1.0701 -2.8288  0.3602
 6499TIP3   OH243691   5.634   0.246  10.738 -0.2774  0.2331  0.1169
 6499TIP3    H143692   5.556   0.283  10.779 -1.0807 -1.3978  0.1602
 6499TIP3    H243693   5.707   0.291  10.780 -1.0983 -0.4761  2.4778
 6500TIP3   OH243694   4.281   1.034   9.617  0.1560 -0.1034  0.2039
 6500TIP3    H143695   4.212   1.063   9.557  0.6748  1.0754  0.1401
 6500TIP3    H243696   4.348   1.102   9.610 -0.1725  0.5871  2.8550
 6501TIP3   OH243697   4.741   0.298  11.569  0.0090  0.1715  0.3896
 6501TIP3    H143698   4.712   0.216  11.610  4.8862 -2.2598 -0.3344
 6501TIP3    H243699   4.702   0.296  11.481  0.1575 -1.5182  0.3244
 6502TIP3   OH243700   1.006   5.016  11.574  0.1066 -0.0371  0.1211
 6502TIP3    H143701   0.994   5.101  11.531  0.4521 -0.3281 -0.5617
 6502TIP3    H243702   1.062   5.036  11.649  0.9131  0.2107 -0.5257
 6503TIP3   OH243703   0.046   5.469  10.399  0.3752  0.7286  0.9844
 6503TIP3    H143704  -0.038   5.514  10.387  0.0112 -0.1949 -0.1324
 6503TIP3    H243705   0.104   5.509  10.334 -0.2498 -1.0483 -0.7781
 6504TIP3   OH243706   3.596   1.714  11.076 -0.4139 -0.2712  0.9463
 6504TIP3    H143707   3.649   1.760  11.141  1.8667 -1.1013 -0.2263
 6504TIP3    H243708   3.618   1.755  10.993 -0.1763 -1.8686  0.1883
 6505TIP3   OH243709   0.706   0.437  11.194 -0.4785  0.5092  0.6748
 6505TIP3    H143710   0.756   0.509  11.155  0.6114 -0.9305 -0.7399
 6505TIP3    H243711   0.639   0.417  11.128 -1.5648  0.9879  1.5966
 6506TIP3   OH243712   5.335   0.570  10.153 -0.0374  0.0091  0.2310
 6506TIP3    H143713   5.249   0.597  10.184 -0.1357  0.8087 -0.6914
 6506TIP3    H243714   5.353   0.488  10.200 -0.3012  0.9950  2.1261
 6507TIP3   OH243715   3.686   5.830  11.771  0.6787 -0.1374 -1.0537
 6507TIP3    H143716   3.747   5.801  11.838  1.2801 -0.2132 -1.6232
 6507TIP3    H243717   3.632   5.753  11.753  0.0335  0.0880 -0.1557
 6508TIP3   OH243718   0.915   6.203  10.459 -0.4101  0.0016  0.0302
 6508TIP3    H143719   0.912   6.209  10.363  1.6919  1.7717 -0.0075
 6508TIP3    H243720   0.938   6.112  10.476 -0.7792 -0.3391 -1.1440
 6509TIP3   OH243721   3.329   2.513  11.157 -0.0994 -0.6042 -0.0997
 6509TIP3    H143722   3.345   2.606  11.169  0.5995 -0.4453 -1.9151
 6509TIP3    H243723   3.238   2.507  11.129  0.8596  0.0355 -3.8944
 6510TIP3   OH243724   5.221   3.413  10.303  0.0771  0.5464 -0.2269
 6510TIP3    H143725   5.295   3.473  10.296 -1.4936  2.5095 -1.1232
 6510TIP3    H243726   5.172   3.444  10.380  0.0248 -0.5538  0.2009
 6511TIP3   OH243727   2.009   3.783   9.615  0.5150  0.7027  0.0805
 6511TIP3    H143728   1.958   3.735   9.550 -0.0903 -0.1781  1.1871
 6511TIP3    H243729   2.017   3.723   9.689  0.7276  1.8826  1.0391
 6512TIP3   OH243730   4.597   1.659  10.900  0.3541 -0.5349  0.6792
 6512TIP3    H143731   4.656   1.592  10.936 -0.4678 -2.2032 -0.9419
 6512TIP3    H243732   4.510   1.620  10.907  0.0400 -0.4267 -1.9281
 6513TIP3   OH243733   4.232   3.418  10.801 -0.3306  0.2579 -0.5650
 6513TIP3    H143734   4.309   3.471  10.782  0.3614  0.0518  1.4180
 6513TIP3    H243735   4.215   3.433  10.894 -1.0954 -1.7410 -0.3349
 6514TIP3   OH243736   1.847   0.225  11.549  0.3712  0.2473  0.2450
 6514TIP3    H143737   1.937   0.218  11.582  0.6574  0.1391 -0.5213
 6514TIP3    H243738   1.839   0.152  11.487  0.9305  2.2469 -2.3405
 6515TIP3   OH243739   0.624   5.445  10.292 -0.0435 -0.1097  0.5825
 6515TIP3    H143740   0.543   5.393  10.285 -0.1557 -0.3579  2.8622
 6515TIP3    H243741   0.686   5.386  10.335  1.0723  0.4018 -0.2917
 6516TIP3   OH243742   1.013   2.603  11.339 -0.3726 -0.4474 -0.3089
 6516TIP3    H143743   0.961   2.620  11.417 -0.8551  1.2977 -0.9813
 6516TIP3    H243744   0.971   2.527  11.298 -0.4794 -0.9906  0.7703
 6517TIP3   OH243745   2.439   1.828  10.847 -0.5066 -0.1925  0.0004
 6517TIP3    H143746   2.505   1.764  10.873 -1.1804 -1.4101 -1.1614
 6517TIP3    H243747   2.465   1.909  10.891  0.4022 -1.2388  1.4552
 6518TIP3   OH243748   3.020   2.071  10.530 -0.0065  0.1347  0.6882
 6518TIP3    H143749   3.094   2.043  10.476  1.0019  1.2511  1.4534
 6518TIP3    H243750   2.954   2.002  10.517  0.0610  0.4888 -2.1523
 6519TIP3   OH243751   5.613   2.034   9.415 -0.2592 -0.4203 -0.1971
 6519TIP3    H143752   5.604   2.069   9.327  0.3162 -2.7462 -1.2750
 6519TIP3    H243753   5.654   2.103   9.466 -0.5483  0.9459 -1.7625
 6520TIP3   OH243754   3.561   3.467  11.803 -0.1894 -0.0995  0.2382
 6520TIP3    H143755   3.609   3.386  11.786  0.0867  0.3593 -1.2610
 6520TIP3    H243756   3.617   3.536  11.767 -2.4993  0.3592 -2.8014
 6521TIP3   OH243757   0.998   0.666  12.911 -0.7534  0.2302  0.0369
 6521TIP3    H143758   1.078   0.669  12.858 -1.3291 -1.7329 -1.0256
 6521TIP3    H243759   0.952   0.747  12.888  0.1937  0.6259 -0.5273
 6522TIP3   OH243760   3.581   6.005  12.340  0.0776  0.2064 -0.0510
 6522TIP3    H143761   3.585   6.100  12.354 -1.2431  0.1350  1.0522
 6522TIP3    H243762   3.673   5.977  12.336  0.4839  1.5590 -0.6853
 6523TIP3   OH243763   6.123   4.195  10.651 -0.5648 -0.0427  0.2752
 6523TIP3    H143764   6.112   4.269  10.711 -0.4996 -0.2217  0.5110
 6523TIP3    H243765   6.036   4.183  10.612 -0.0880  1.5360 -1.4016
 6524TIP3   OH243766   2.614   1.255  10.774 -0.0124 -0.3074  0.3814
 6524TIP3    H143767   2.634   1.294  10.689 -1.8028  0.1013  0.0908
 6524TIP3    H243768   2.598   1.163  10.755 -1.8927  0.0578 -0.0456
 6525TIP3   OH243769   2.531   6.079  10.481  0.5548 -0.0166 -0.4209
 6525TIP3    H143770   2.567   5.995  10.454 -1.5806 -0.8778 -0.8032
 6525TIP3    H243771   2.489   6.113  10.401 -3.2530 -1.1871  0.8479
 6526TIP3   OH243772   2.047   3.784  12.062 -0.0997  0.4375 -0.0746
 6526TIP3    H143773   1.985   3.812  12.130 -0.6127  0.0315 -0.3680
 6526TIP3    H243774   2.112   3.855  12.059 -1.8432  2.0752 -1.4156
 6527TIP3   OH243775   6.138   2.534  10.055  0.0223  0.4441 -0.8371
 6527TIP3    H143776   6.119   2.507  10.145  2.0706 -2.5588 -1.1488
 6527TIP3    H243777   6.181   2.619  10.064 -0.4925  0.5487  0.9502
 6528TIP3   OH243778   0.380   5.638  12.102 -0.1375 -0.5047 -0.0194
 6528TIP3    H143779   0.390   5.543  12.113  1.0991 -0.3431  0.3396
 6528TIP3    H243780   0.467   5.674  12.117 -1.3187  1.1566  4.5591
 6529TIP3   OH243781   1.472   2.457  10.594  0.2992  0.2861 -0.1839
 6529TIP3    H143782   1.521   2.442  10.675 -0.1839  0.0842  0.0681
 6529TIP3    H243783   1.384   2.427  10.613  0.2088  0.1460 -0.8182
 6530TIP3   OH243784   3.131   5.140  10.329 -0.2414 -0.2217  0.9537
 6530TIP3    H143785   3.182   5.120  10.408  2.3348 -1.8680 -0.9847
 6530TIP3    H243786   3.160   5.227  10.304 -1.3458  0.4676  1.9444
 6531TIP3   OH243787   2.195   4.876  11.998  0.0640  0.3989  0.0058
 6531TIP3    H143788   2.100   4.870  11.986  0.0377 -0.5340  0.5992
 6531TIP3    H243789   2.215   4.810  12.064  1.3200 -0.3795 -1.1182
 6532TIP3   OH243790   0.119   2.551  12.574 -0.1948  0.3526 -0.1752
 6532TIP3    H143791   0.098   2.607  12.499 -0.3443  1.5841  0.7628
 6532TIP3    H243792   0.036   2.541  12.621 -0.0686 -0.2869 -0.0732
 6533TIP3   OH243793   6.546   2.627  11.534  0.3725  0.4757  0.0060
 6533TIP3    H143794   6.609   2.666  11.473 -0.8093  0.9577 -0.9554
 6533TIP3    H243795   6.460   2.652  11.499 -0.3821  2.0344  2.6864
 6534TIP3   OH243796   1.815   3.634  10.580  0.3155 -0.0543  0.0533
 6534TIP3    H143797   1.756   3.583  10.635 -0.2475  0.8350  0.3028
 6534TIP3    H243798   1.902   3.597  10.597  0.2733  0.6837  2.1818
 6535TIP3   OH243799   1.855   3.565   9.527  0.1393 -0.4884  0.2939
 6535TIP3    H143800   1.782   3.625   9.509  0.1258 -0.1110  1.5108
 6535TIP3    H243801   1.814   3.479   9.531 -0.1559 -0.3450  0.4338
 6536TIP3   OH243802   6.177   4.491  11.989  0.3106 -0.5527  0.9126
 6536TIP3    H143803   6.237   4.506  12.062 -0.6110  0.5170  1.4875
 6536TIP3    H243804   6.104   4.441  12.028  0.5344 -1.3335  0.3575
 6537TIP3   OH243805   0.983   0.108  11.038 -0.5363  0.5204  0.1147
 6537TIP3    H143806   1.049   0.044  11.013 -2.2503 -1.0023 -0.7685
 6537TIP3    H243807   0.984   0.108  11.134 -0.5610 -0.9337  0.1351
 6538TIP3   OH243808   2.149   2.355  10.342  0.1806 -0.1643  0.4746
 6538TIP3    H143809   2.171   2.336  10.433 -1.2316 -0.3513  0.7989
 6538TIP3    H243810   2.178   2.278  10.293  0.7508 -0.1527  0.7880
 6539TIP3   OH243811   0.257   0.493  10.869  0.1860  0.2146 -0.3609
 6539TIP3    H143812   0.321   0.475  10.799 -1.1917 -3.2100 -0.9545
 6539TIP3    H243813   0.173   0.494  10.824 -0.5313  0.5433  0.9501
 6540TIP3   OH243814   4.833   0.585  12.199  0.5559  0.0634 -0.2298
 6540TIP3    H143815   4.773   0.523  12.242  0.8017  0.6799  1.0395
 6540TIP3    H243816   4.879   0.628  12.271  3.1761 -0.9833 -1.1701
 6541TIP3   OH243817   1.248   0.287  11.066  0.2699 -0.0953 -0.3714
 6541TIP3    H143818   1.235   0.365  11.012  0.0136 -0.4121 -0.7722
 6541TIP3    H243819   1.341   0.289  11.090  1.5654 -2.1852 -4.3623
 6542TIP3   OH243820   2.584   6.344   9.601  0.1349  0.0559 -0.0613
 6542TIP3    H143821   2.495   6.379   9.598  1.0578  2.6514 -2.7658
 6542TIP3    H243822   2.585   6.277   9.533  0.3081  0.3500 -0.3566
 6543TIP3   OH243823   4.093   1.548  10.813  0.3863 -0.1942  0.0890
 6543TIP3    H143824   4.034   1.592  10.752  0.4725 -0.9556 -0.5554
 6543TIP3    H243825   4.108   1.462  10.775  1.2526 -0.3190  0.6701
 6544TIP3   OH243826   2.463   6.454  11.444  0.1780  0.3778  0.5407
 6544TIP3    H143827   2.425   6.452  11.357 -0.7745  0.2864  0.9454
 6544TIP3    H243828   2.452   6.545  11.473 -1.7281 -0.0935  1.4836
 6545TIP3   OH243829   0.184   4.413  12.009 -0.3674  0.2389  0.2584
 6545TIP3    H143830   0.153   4.441  11.923  1.7084  1.0068 -0.2938
 6545TIP3    H243831   0.126   4.457  12.071 -0.1569  1.9628 -0.7064
 6546TIP3   OH243832   4.362   4.467  11.602 -0.0662  0.6686 -0.2527
 6546TIP3    H143833   4.342   4.375  11.620  0.6038  0.5842  0.0957
 6546TIP3    H243834   4.279   4.503  11.570 -1.1579  0.6129  2.2146
 6547TIP3   OH243835   4.884   0.570  11.153  0.4061 -0.3497  0.1964
 6547TIP3    H143836   4.789   0.580  11.165  0.5493  0.3824  0.8528
 6547TIP3    H243837   4.904   0.485  11.191  0.2719  0.2978  1.7811
 6548TIP3   OH243838   4.640   5.039  11.446 -0.1438  0.3696  0.0370
 6548TIP3    H143839   4.719   5.087  11.421  0.0939 -0.3887 -0.7070
 6548TIP3    H243840   4.575   5.064  11.380  0.5015 -1.6772 -1.4497
 6549TIP3   OH243841   0.532   3.467   9.557  0.4952  0.2290  0.1383
 6549TIP3    H143842   0.498   3.399   9.499  2.0896  0.2584 -0.8901
 6549TIP3    H243843   0.624   3.444   9.571  0.4682  0.9057  1.6819
 6550TIP3   OH243844   3.582   3.968   9.905 -0.1483  0.1641 -0.0693
 6550TIP3    H143845   3.508   4.029   9.902 -1.9753 -1.9424 -1.5013
 6550TIP3    H243846   3.553   3.900   9.966  1.9829  0.7975  1.7712
 6551TIP3   OH243847   5.293   6.282  11.473 -0.4189  1.0057 -0.1018
 6551TIP3    H143848   5.223   6.289  11.407  0.8673  3.9493 -1.3037
 6551TIP3    H243849   5.353   6.218  11.436 -1.0421  0.6057 -0.4539
 6552TIP3   OH243850   1.314   2.725   9.221 -0.1536 -0.6554  0.1966
 6552TIP3    H143851   1.321   2.693   9.311  0.7544 -2.1310 -0.3668
 6552TIP3    H243852   1.244   2.674   9.182  0.5476 -1.1920 -0.3901
 6553TIP3   OH243853   0.601   2.274  10.932  0.0011  0.0761 -0.1653
 6553TIP3    H143854   0.573   2.215  10.862 -1.5278 -0.1754  0.6213
 6553TIP3    H243855   0.570   2.234  11.012  0.3161  1.1683  0.5316
 6554TIP3   OH243856   3.151   4.162  11.197 -0.3515  0.4645 -0.3106
 6554TIP3    H143857   3.113   4.084  11.239  1.9298 -0.9939 -0.7274
 6554TIP3    H243858   3.076   4.217  11.176 -1.9895 -1.1274  0.9773
 6555TIP3   OH243859   0.818   6.188  11.368 -0.0848  0.3829 -0.5751
 6555TIP3    H143860   0.744   6.212  11.423  0.0297  1.7879 -0.9979
 6555TIP3    H243861   0.841   6.269  11.321  3.0767  0.6532  1.1372
 6556TIP3   OH243862   2.166   6.603  11.179 -0.3354 -0.2432 -0.3613
 6556TIP3    H143863   2.098   6.593  11.111 -1.8339 -0.5499  1.1138
 6556TIP3    H243864   2.138   6.680  11.228  0.2448 -0.5396  0.4386
 6557TIP3   OH243865   2.147   6.235  10.570 -0.0533 -0.6219 -0.4512
 6557TIP3    H143866   2.064   6.244  10.523  0.1481  1.1033 -0.5574
 6557TIP3    H243867   2.123   6.201  10.656 -0.9125  0.0806 -0.4001
 6558TIP3   OH243868   1.729   1.317   9.921  0.3988  0.2631 -0.3323
 6558TIP3    H143869   1.702   1.245   9.978 -2.3699  0.4292 -1.2961
 6558TIP3    H243870   1.703   1.396   9.969  0.2107  0.4847 -0.8011
 6559TIP3   OH243871   3.465   4.787   9.980  0.4346 -0.1960  0.3177
 6559TIP3    H143872   3.473   4.849  10.052 -0.1702  0.3876 -0.1091
 6559TIP3    H243873   3.514   4.710  10.010  1.0359  0.4043  0.9279
 6560TIP3   OH243874   2.151   2.813  10.818  0.2570 -0.2009 -0.0660
 6560TIP3    H143875   2.139   2.793  10.910  0.1586 -0.6633 -0.1791
 6560TIP3    H243876   2.103   2.895  10.805 -0.2263 -0.4469  0.1636
 6561TIP3   OH243877   4.779   3.854  11.896  0.6629 -0.1540 -0.9599
 6561TIP3    H143878   4.867   3.816  11.897  0.8276  0.0383  2.1067
 6561TIP3    H243879   4.732   3.806  11.963 -0.3951  2.2009  0.1004
 6562TIP3   OH243880   2.034   4.239  13.237 -0.3315 -0.4830  0.5880
 6562TIP3    H143881   2.118   4.216  13.197 -0.4868  0.4343 -0.3259
 6562TIP3    H243882   2.013   4.325  13.200 -0.9999 -0.0628  1.8820
 6563TIP3   OH243883   3.726   5.259  11.550 -0.7809 -0.3240  0.0858
 6563TIP3    H143884   3.706   5.166  11.539 -3.5787  0.1133  0.8884
 6563TIP3    H243885   3.644   5.304  11.532  0.4651  2.0317 -0.1333
 6564TIP3   OH243886   3.886   0.162  10.511  0.2829  0.3010  0.3786
 6564TIP3    H143887   3.839   0.080  10.518  0.4010  0.1976 -0.0198
 6564TIP3    H243888   3.826   0.222  10.467 -0.1645  0.7183  1.5245
 6565TIP3   OH243889   3.550   4.306  11.739  0.1630 -0.2887  0.0953
 6565TIP3    H143890   3.581   4.395  11.756 -1.5923 -0.0012  2.3594
 6565TIP3    H243891   3.454   4.315  11.735 -0.0099 -1.9932 -0.1697
 6566TIP3   OH243892   3.299   5.244   9.736  0.1089  0.1411 -0.5029
 6566TIP3    H143893   3.285   5.153   9.708 -1.1602 -0.6123  2.2011
 6566TIP3    H243894   3.391   5.247   9.763 -0.0731 -0.6423  0.2550
 6567TIP3   OH243895   5.543   6.296  11.771 -0.1910  0.8922 -0.0212
 6567TIP3    H143896   5.454   6.329  11.768 -0.1559  0.8801 -1.7398
 6567TIP3    H243897   5.551   6.237  11.696  1.2217  0.7772  0.1776
 6568TIP3   OH243898   1.960   0.104  12.196  0.3789 -0.2362 -0.3759
 6568TIP3    H143899   1.911   0.128  12.274  0.1973 -0.8611 -0.2936
 6568TIP3    H243900   2.043   0.070  12.230 -0.3020 -1.9830 -0.3566
 6569TIP3   OH243901   3.137   1.076  12.790 -0.5563  0.2375  0.2876
 6569TIP3    H143902   3.116   1.140  12.859  1.2888  1.4974 -0.2505
 6569TIP3    H243903   3.191   1.011  12.833  1.3983  1.5303 -0.0947
 6570TIP3   OH243904   0.205   3.397   9.312 -0.1808 -0.0607  0.0399
 6570TIP3    H143905   0.177   3.484   9.341 -1.7987  0.4878 -2.8083
 6570TIP3    H243906   0.157   3.337   9.369 -0.9932  0.9045  0.4183
 6571TIP3   OH243907   2.313   6.346   9.603  0.1922 -0.4945  0.4740
 6571TIP3    H143908   2.275   6.291   9.672  1.1614 -0.2914  1.2072
 6571TIP3    H243909   2.274   6.432   9.617 -0.7833 -0.8138 -0.2215
 6572TIP3   OH243910   2.312   1.888  12.205 -0.5645 -0.0842  0.0971
 6572TIP3    H143911   2.375   1.820  12.180 -1.6921 -1.2990  0.4038
 6572TIP3    H243912   2.307   1.945  12.128  0.4687 -0.2989 -0.1413
 6573TIP3   OH243913   0.447   0.622  10.352 -0.1748  0.3091 -0.0642
 6573TIP3    H143914   0.375   0.634  10.414  0.7443  2.3847  0.7059
 6573TIP3    H243915   0.523   0.659  10.397  1.5640 -2.3974 -0.5900
 6574TIP3   OH243916   5.385   2.757  11.645 -0.5607 -0.0645 -0.0167
 6574TIP3    H143917   5.391   2.767  11.740 -0.7207 -0.1799  0.0059
 6574TIP3    H243918   5.292   2.741  11.628 -0.5402  0.0110 -0.1982
 6575TIP3   OH243919   3.215   3.613  11.092  0.6221 -0.1043 -0.2522
 6575TIP3    H143920   3.179   3.590  11.006  0.3189 -0.9364  0.0883
 6575TIP3    H243921   3.262   3.695  11.077 -1.0855  0.8326 -0.8123
 6576TIP3   OH243922   4.077   0.357  10.441 -0.0826  0.4406  0.5207
 6576TIP3    H143923   4.015   0.425  10.468 -0.1284 -0.5881  3.4619
 6576TIP3    H243924   4.049   0.279  10.490  1.7858 -0.8576 -0.3462
 6577TIP3   OH243925   3.653   3.376  11.415 -0.5204  0.4922  0.2777
 6577TIP3    H143926   3.745   3.400  11.413 -0.9370  2.1534 -0.0640
 6577TIP3    H243927   3.606   3.459  11.411 -2.0396 -0.3128  0.6227
 6578TIP3   OH243928   2.854   1.218  10.975  0.2677 -0.4170  0.1912
 6578TIP3    H143929   2.911   1.290  11.003 -1.5211  1.9736 -1.9369
 6578TIP3    H243930   2.902   1.175  10.905 -0.0321  1.0126 -0.9569
 6579TIP3   OH243931   1.038   1.310  13.027  0.1054 -0.1995 -0.1992
 6579TIP3    H143932   1.006   1.328  12.938  2.5206  0.8636 -0.9536
 6579TIP3    H243933   1.068   1.395  13.059 -0.6669 -0.5786  1.6660
 6580TIP3   OH243934   3.452   4.953  10.189  0.1935 -0.0468  0.1853
 6580TIP3    H143935   3.455   4.927  10.281  0.6840 -1.0402 -0.0910
 6580TIP3    H243936   3.529   5.009  10.177 -0.8583  1.6106  0.7819
 6581TIP3   OH243937   1.166   1.733  11.930  0.6079  0.2150  0.0246
 6581TIP3    H143938   1.198   1.734  11.839  1.5993 -1.1928  0.3380
 6581TIP3    H243939   1.206   1.811  11.969 -0.6797  1.4530 -0.9850
 6582TIP3   OH243940   5.983   4.496  11.277  0.1397  0.3187 -1.0711
 6582TIP3    H143941   6.029   4.416  11.299  2.0863  1.9318  1.2879
 6582TIP3    H243942   6.029   4.531  11.201 -1.0087 -0.9241 -2.4042
 6583TIP3   OH243943   0.218   0.820  13.462  0.1711  0.2604  0.1684
 6583TIP3    H143944   0.163   0.763  13.517  1.7942 -0.2216  1.3667
 6583TIP3    H243945   0.169   0.902  13.457 -1.6430 -0.7992 -0.5804
 6584TIP3   OH243946   0.963   0.579  11.849  0.0569  0.7324  0.0825
 6584TIP3    H143947   1.027   0.554  11.783 -1.0814  0.1691 -0.8404
 6584TIP3    H243948   0.954   0.502  11.905 -1.7270 -0.2150 -1.3792
 6585TIP3   OH243949   0.755   6.131  12.980  0.0658 -0.2715  0.0074
 6585TIP3    H143950   0.794   6.095  12.900 -0.0135  0.1042 -0.2028
 6585TIP3    H243951   0.827   6.132  13.043  0.4759  0.6572 -0.4532
 6586TIP3   OH243952   2.607   2.901  10.939 -0.1209  0.1478  0.2129
 6586TIP3    H143953   2.580   2.816  10.974  2.3711 -1.1276 -0.6701
 6586TIP3    H243954   2.629   2.953  11.016  0.7244 -0.9340  0.7456
 6587TIP3   OH243955   5.685   3.870  11.584 -0.4287 -0.3807  0.4498
 6587TIP3    H143956   5.731   3.929  11.644 -2.7208  1.5153  0.4668
 6587TIP3    H243957   5.631   3.815  11.640 -0.6006 -0.4071  0.2592
 6588TIP3   OH243958   1.037   3.448  11.890 -0.6645 -0.1567 -0.1593
 6588TIP3    H143959   1.052   3.453  11.984 -2.3751  0.2862  0.1210
 6588TIP3    H243960   1.121   3.419  11.854 -0.6512 -2.7302  1.7197
 6589TIP3   OH243961   5.309   2.279  11.705 -0.2222 -0.1423 -0.1986
 6589TIP3    H143962   5.295   2.310  11.795 -1.1250 -0.3432 -0.2574
 6589TIP3    H243963   5.229   2.232  11.684  0.5236 -1.2286 -0.6538
 6590TIP3   OH243964   4.547   5.384  11.871 -0.4467 -0.1646 -0.1635
 6590TIP3    H143965   4.531   5.312  11.932 -0.9540 -0.6294 -0.8317
 6590TIP3    H243966   4.539   5.344  11.784  1.3977  0.2200 -0.5693
 6591TIP3   OH243967   0.254   4.254  11.742  0.4426  0.0070  0.3327
 6591TIP3    H143968   0.336   4.215  11.773  0.8706 -0.1518 -0.9438
 6591TIP3    H243969   0.198   4.179  11.722  0.6747  0.0510 -0.5578
 6592TIP3   OH243970   5.404   6.488   9.868  0.2639  0.0097  0.3464
 6592TIP3    H143971   5.434   6.540   9.794 -0.2976 -0.8662 -0.5093
 6592TIP3    H243972   5.420   6.397   9.843 -2.1217 -0.4493  0.2423
 6593TIP3   OH243973   0.420   6.245   9.881 -0.2105 -0.1584 -0.2640
 6593TIP3    H143974   0.330   6.218   9.862 -0.0024 -0.9775 -0.1308
 6593TIP3    H243975   0.436   6.320   9.824 -1.9581  1.9171  1.7637
 6594TIP3   OH243976   4.411   4.253   9.945  0.2177 -0.2436  0.5267
 6594TIP3    H143977   4.499   4.290   9.941 -0.6325  1.9991  1.0568
 6594TIP3    H243978   4.365   4.308  10.008 -2.5902  1.0145 -2.3693
 6595TIP3   OH243979   5.557   0.337  12.119 -0.3137  0.1017 -0.7342
 6595TIP3    H143980   5.484   0.301  12.068 -0.3343 -0.6038 -0.2201
 6595TIP3    H243981   5.515   0.374  12.197 -0.3034  1.3457 -1.2906
 6596TIP3   OH243982   6.249   2.261  11.826  0.2663  0.0069  0.3743
 6596TIP3    H143983   6.170   2.274  11.878  1.5784 -0.7133  2.6885
 6596TIP3    H243984   6.228   2.188  11.768 -1.1897  0.7331 -0.0709
 6597TIP3   OH243985   1.047   2.693  12.875  0.1082  0.0489 -0.0343
 6597TIP3    H143986   1.039   2.690  12.970  1.8589  0.4913  0.1660
 6597TIP3    H243987   0.957   2.690  12.843 -0.6476  2.0726  1.6984
 6598TIP3   OH243988   2.304   6.486  12.034 -0.8760 -0.2738  0.6692
 6598TIP3    H143989   2.353   6.436  12.098 -0.4565  0.6551  1.0986
 6598TIP3    H243990   2.361   6.490  11.957 -1.7742 -2.2069 -0.1535
 6599TIP3   OH243991   5.071   0.148  11.984  0.1964 -0.5890 -0.7308
 6599TIP3    H143992   5.058   0.243  11.984  2.9611 -0.1242 -2.1380
 6599TIP3    H243993   5.031   0.119  11.901  0.7883 -0.3929 -1.0904
 6600TIP3   OH243994   6.466   1.938  11.442 -0.2609  0.2991 -0.5135
 6600TIP3    H143995   6.469   1.915  11.349 -0.6981  2.4272 -1.1130
 6600TIP3    H243996   6.541   1.996  11.454 -0.2677  0.1215  0.4501
 6601TIP3   OH243997   3.400   2.624  12.258  0.0521 -0.5868  0.2986
 6601TIP3    H143998   3.368   2.556  12.199 -0.2032  0.1135 -0.3909
 6601TIP3    H243999   3.489   2.598  12.280  0.4975 -0.3526 -1.1835
 6602TIP3   OH244000   5.016   5.608   9.797 -0.1214  0.1531 -0.4576
 6602TIP3    H144001   5.094   5.573   9.839  0.2159 -0.6380 -1.6904
 6602TIP3    H244002   4.986   5.538   9.738 -0.3758  1.3026 -1.7667
 6603TIP3   OH244003   1.766   2.825  12.194  0.2848  0.3061 -0.0136
 6603TIP3    H144004   1.733   2.736  12.183  1.8488 -0.1830 -0.9493
 6603TIP3    H244005   1.700   2.880  12.151 -0.7246 -0.3665  0.6230
 6604TIP3   OH244006   4.617   0.588  12.353 -0.2798  0.0008  0.8734
 6604TIP3    H144007   4.523   0.577  12.341 -0.2945 -0.1686  1.1426
 6604TIP3    H244008   4.630   0.582  12.448  0.0102 -0.0482  0.8315
 6605TIP3   OH244009   1.750   0.985  10.126  0.3983  0.4483  0.2661
 6605TIP3    H144010   1.834   0.999  10.084  0.1222 -0.0548 -0.4721
 6605TIP3    H244011   1.759   0.901  10.172 -0.4584 -0.8774 -1.8545
 6606TIP3   OH244012   5.464   6.244   9.780 -0.3115  0.0302 -0.4535
 6606TIP3    H144013   5.465   6.167   9.724 -1.5291  0.0450 -0.5288
 6606TIP3    H244014   5.529   6.302   9.741  0.6051 -0.9449 -0.4029
 6607TIP3   OH244015   3.916   4.191   9.468  0.2436 -0.2581 -0.1157
 6607TIP3    H144016   3.889   4.100   9.461 -0.3920 -0.1557  0.8628
 6607TIP3    H244017   3.839   4.241   9.441  0.6906 -0.0035 -0.9533
 6608TIP3   OH244018   2.674   3.222   9.546 -0.2417  0.0901 -0.3716
 6608TIP3    H144019   2.744   3.265   9.594 -0.5864  1.6512 -1.1954
 6608TIP3    H244020   2.705   3.218   9.455 -0.8899  0.0703 -0.6025
 6609TIP3   OH244021   4.518   0.326  10.484  0.3284  0.0520 -0.3260
 6609TIP3    H144022   4.582   0.398  10.491 -1.5882  1.8929 -0.7254
 6609TIP3    H244023   4.487   0.314  10.574  0.2925  0.0490 -0.3388
 6610TIP3   OH244024   4.327   1.755  18.703 -0.0952 -0.4388 -0.2207
 6610TIP3    H144025   4.339   1.792  18.791  1.6562 -2.0684  0.3047
 6610TIP3    H244026   4.362   1.821  18.644  1.7772 -0.6378  0.6020
 6611TIP3   OH244027   5.605   2.983  12.097  0.0963 -0.4673 -0.2008
 6611TIP3    H144028   5.582   3.040  12.169  0.5888  0.3732 -0.7006
 6611TIP3    H244029   5.665   2.918  12.135  0.8771  0.3614  0.0091
 6612TIP3   OH244030   6.219   3.673  11.455 -0.2392 -0.0213  0.1431
 6612TIP3    H144031   6.191   3.691  11.545 -1.1083 -0.0618 -0.1120
 6612TIP3    H244032   6.314   3.665  11.461 -0.3118 -0.3345  1.1118
 6613TIP3   OH244033   0.658   4.841  12.367  0.2830  0.1054 -0.5821
 6613TIP3    H144034   0.594   4.822  12.299 -1.7136  0.1864  1.1949
 6613TIP3    H244035   0.631   4.789  12.442  1.4505  1.2442  0.6951
 6614TIP3   OH244036   5.999   2.210  11.561  0.2003 -0.5959  0.1399
 6614TIP3    H144037   6.001   2.216  11.465  0.1549 -0.5124  0.1435
 6614TIP3    H244038   6.079   2.164  11.584  0.2813 -0.4931  0.0686
 6615TIP3   OH244039   1.904   2.945  10.950  0.0561  0.0262  0.1094
 6615TIP3    H144040   1.883   2.992  11.031  1.1836  2.4657 -0.9071
 6615TIP3    H244041   1.862   2.860  10.961 -1.7877  1.0817  2.2752
 6616TIP3   OH244042   5.750   6.198  10.683  0.2092 -0.0964 -0.2447
 6616TIP3    H144043   5.804   6.276  10.692  0.2268 -0.1368  0.0254
 6616TIP3    H244044   5.688   6.219  10.614  1.0533 -0.3283 -1.0931
 6617TIP3   OH244045   5.400   2.189  11.052  0.4141  0.5775 -0.0263
 6617TIP3    H144046   5.415   2.276  11.089  0.9033  1.3035 -1.8340
 6617TIP3    H244047   5.316   2.196  11.008 -0.3268 -0.3775  1.1890
 6618TIP3   OH244048   4.324   0.906  11.075  0.3116 -0.3115 -0.5242
 6618TIP3    H144049   4.346   0.898  10.982  0.1133 -0.2620 -0.5770
 6618TIP3    H244050   4.241   0.860  11.083  0.9708 -1.4553 -0.1126
 6619TIP3   OH244051   2.770   0.860   9.954  0.2350  0.2596 -1.0957
 6619TIP3    H144052   2.762   0.861   9.859 -1.5765 -2.0890 -1.0631
 6619TIP3    H244053   2.818   0.780   9.974 -0.2471  0.2210 -0.0097
 6620TIP3   OH244054   3.300   2.179  10.079  0.0490  0.6227  0.0258
 6620TIP3    H144055   3.298   2.274  10.066  0.8435  0.8709  1.4952
 6620TIP3    H244056   3.255   2.165  10.163 -0.9227 -0.4207 -0.6289
 6621TIP3   OH244057   5.665   2.290   9.571 -0.2782  0.2079  0.3195
 6621TIP3    H144058   5.624   2.372   9.545 -0.4946 -0.0617 -0.2106
 6621TIP3    H244059   5.725   2.314   9.641  0.1969  0.9311 -0.3211
 6622TIP3   OH244060   3.048   5.564  11.686  0.6431 -0.3198 -0.6249
 6622TIP3    H144061   3.002   5.646  11.672  1.3853  0.2943  0.4314
 6622TIP3    H244062   2.999   5.500  11.634 -0.8358  0.4835 -0.2606
 6623TIP3   OH244063   0.522   5.318  13.347 -0.5324 -0.2628 -0.0371
 6623TIP3    H144064   0.492   5.345  13.434 -0.4321 -0.7401  0.1455
 6623TIP3    H244065   0.524   5.223  13.350  2.5818 -0.2883  0.5315
 6624TIP3   OH244066   2.178   4.324  11.587 -0.1854  0.4109 -0.5616
 6624TIP3    H144067   2.229   4.403  11.567 -2.1474  1.8375 -0.2344
 6624TIP3    H244068   2.122   4.312  11.510 -1.6554  0.8507  0.3951
 6625TIP3   OH244069   1.530   6.322  12.207  0.2162 -0.2993  0.7386
 6625TIP3    H144070   1.558   6.269  12.281 -0.4276 -2.1740 -0.2816
 6625TIP3    H244071   1.601   6.314  12.143  0.3639  0.5625  0.7815
 6626TIP3   OH244072   5.649   4.373  10.987 -0.1585  0.0361 -0.7096
 6626TIP3    H144073   5.717   4.423  10.942  0.6599  0.2886  0.7383
 6626TIP3    H244074   5.639   4.416  11.072 -0.4195 -1.4300  0.0418
 6627TIP3   OH244075   2.686   6.148  11.077 -0.4649 -0.2034 -0.4487
 6627TIP3    H144076   2.653   6.116  10.993 -0.2772 -0.4172 -0.4395
 6627TIP3    H244077   2.658   6.239  11.080 -2.6403 -0.8373  0.3468
 6628TIP3   OH244078   2.668   4.698   9.204 -0.0132 -0.1341 -0.0392
 6628TIP3    H144079   2.652   4.604   9.206  0.9159 -0.2912  0.7999
 6628TIP3    H244080   2.759   4.708   9.230 -0.0320  0.9926 -0.3331
 6629TIP3   OH244081   3.685   3.314  12.333 -0.5011  0.4067 -0.0503
 6629TIP3    H144082   3.758   3.300  12.394 -0.6177  0.9021  0.2126
 6629TIP3    H244083   3.728   3.340  12.251 -0.3672  0.3966  0.0155
 6630TIP3   OH244084   3.907   5.523   9.566  0.2047 -0.4283  0.0385
 6630TIP3    H144085   3.843   5.578   9.522  1.5727  1.3769  0.1711
 6630TIP3    H244086   3.858   5.479   9.636 -0.9311  0.7098 -0.0041
 6631TIP3   OH244087   3.573   3.690   9.975 -0.0595 -0.3587  0.0037
 6631TIP3    H144088   3.565   3.745  10.053 -0.2762 -0.2404 -0.1020
 6631TIP3    H244089   3.620   3.612  10.006  0.7867  0.1428  0.0193
 6632TIP3   OH244090   5.858   4.791  10.481  0.0837 -0.5201 -0.0552
 6632TIP3    H144091   5.867   4.806  10.387  0.6074  0.7342  0.1814
 6632TIP3    H244092   5.930   4.732  10.503  1.2779  0.8793 -0.0865
 6633TIP3   OH244093   4.665   4.050  10.436  0.3119 -0.7485 -0.4092
 6633TIP3    H144094   4.741   3.995  10.419  0.7846 -1.8028  3.7833
 6633TIP3    H244095   4.698   4.139  10.434  1.6865 -1.1780  0.9882
 6634TIP3   OH244096   3.395   0.753  10.706  0.2795  0.0642 -0.3972
 6634TIP3    H144097   3.341   0.832  10.694  1.7569  0.9372 -1.6470
 6634TIP3    H244098   3.407   0.719  10.617  0.0497 -1.3371  0.0828
 6635TIP3   OH244099   5.986   3.390   9.934 -0.6392 -0.6089 -0.2089
 6635TIP3    H144100   6.064   3.338   9.914  0.0738  0.1689  0.4775
 6635TIP3    H244101   5.962   3.363  10.022  0.6895  1.2931  0.8224
 6636TIP3   OH244102   6.385   3.683   9.929  1.1093 -0.0096  0.1735
 6636TIP3    H144103   6.479   3.695   9.942  1.7070 -3.3637 -0.1523
 6636TIP3    H244104   6.352   3.651  10.013  0.6039 -0.4710 -0.1914
 6637TIP3   OH244105   2.822   4.293  10.090 -0.5775  0.3200 -0.0369
 6637TIP3    H144106   2.868   4.219  10.050 -0.1428  0.5852 -0.0319
 6637TIP3    H244107   2.735   4.290  10.052 -0.8327 -0.6913  0.5842
 6638TIP3   OH244108   3.717   3.796   9.724 -0.0748  0.6264 -0.0250
 6638TIP3    H144109   3.666   3.864   9.768 -1.4036  0.1505 -0.7825
 6638TIP3    H244110   3.744   3.737   9.794 -0.3107  1.0448  0.4237
 6639TIP3   OH244111   0.393   1.677  12.902  0.0263  0.0007 -0.2447
 6639TIP3    H144112   0.426   1.591  12.929  1.8872  0.8339  0.2831
 6639TIP3    H244113   0.325   1.697  12.966 -1.2565 -1.5382 -1.0498
 6640TIP3   OH244114   5.475   2.873  12.470 -0.5622  0.8608 -0.4138
 6640TIP3    H144115   5.563   2.909  12.454  0.1313 -0.5514  0.0166
 6640TIP3    H244116   5.429   2.941  12.518  1.6534  0.1850  2.9982
 6641TIP3   OH244117   4.100   3.386   9.906 -0.4116  0.2938  0.2842
 6641TIP3    H144118   4.151   3.312   9.874 -1.8044 -1.3422  1.6796
 6641TIP3    H244119   4.080   3.437   9.828  1.1174 -0.4327 -0.6258
 6642TIP3   OH244120   6.087   6.282  11.697  0.4719  0.3452  0.0497
 6642TIP3    H144121   6.054   6.336  11.625 -0.3078 -1.7030 -1.2202
 6642TIP3    H244122   6.037   6.310  11.774 -0.9220  0.4691 -0.8783
 6643TIP3   OH244123   1.515   2.197  11.719 -0.3433  0.1953  0.0755
 6643TIP3    H144124   1.428   2.160  11.711 -0.3293  0.3919 -1.5111
 6643TIP3    H244125   1.512   2.277  11.665  1.2421 -0.6531 -1.3733
 6644TIP3   OH244126   4.969   3.495  10.978  0.2131  0.2832  0.3409
 6644TIP3    H144127   4.989   3.424  10.917  1.7963  0.7746  0.2554
 6644TIP3    H244128   5.054   3.523  11.013 -0.3470  2.1684  0.3340
 6645TIP3   OH244129   5.763   0.223   9.734 -0.1602  0.2734 -0.0227
 6645TIP3    H144130   5.784   0.274   9.812  0.8832  1.0817 -0.8002
 6645TIP3    H244131   5.700   0.277   9.687 -1.7980 -0.7858  0.8281
 6646TIP3   OH244132   4.760   1.791  11.321 -0.2642 -0.1693 -0.4991
 6646TIP3    H144133   4.850   1.824  11.319 -1.5508  4.1087  0.9580
 6646TIP3    H244134   4.745   1.756  11.233  2.4851 -0.0933 -1.0884
 6647TIP3   OH244135   6.335   3.472   9.767 -0.3343 -0.0177 -0.3048
 6647TIP3    H144136   6.352   3.551   9.818 -0.2544 -0.4142  0.3027
 6647TIP3    H244137   6.398   3.474   9.696  0.0052  0.2151 -0.0001
 6648TIP3   OH244138   0.758   2.172  11.326 -0.0146  0.0144 -0.0459
 6648TIP3    H144139   0.679   2.227  11.326 -0.4196 -0.5359 -0.8599
 6648TIP3    H244140   0.819   2.218  11.382 -0.7037  0.7803  0.1010
 6649TIP3   OH244141   0.153   1.679   9.980  0.3510  0.4548  0.5875
 6649TIP3    H144142   0.063   1.692   9.951  0.1515 -2.2884 -0.3584
 6649TIP3    H244143   0.198   1.761   9.960 -1.5152  1.2308 -0.6312
 6650TIP3   OH244144   5.622   5.926  12.093 -0.1097  0.8806  0.0549
 6650TIP3    H144145   5.665   6.004  12.058 -0.7391  1.2322  0.0330
 6650TIP3    H244146   5.540   5.921  12.043 -1.5884  2.0483  2.1832
 6651TIP3   OH244147   4.320   1.494  10.580  0.3367 -0.0665  0.4226
 6651TIP3    H144148   4.362   1.462  10.501 -1.2520  0.7434 -0.8293
 6651TIP3    H244149   4.297   1.585  10.559 -2.8724 -0.7368  0.5948
 6652TIP3   OH244150   3.099   3.258  10.905 -0.2266 -0.2186  0.6351
 6652TIP3    H144151   3.077   3.260  10.812  0.7534 -1.4496  0.3473
 6652TIP3    H244152   3.042   3.323  10.945 -0.9747  0.0118 -0.7600
 6653TIP3   OH244153   4.479   1.661   9.727 -0.6878  0.8039 -0.2735
 6653TIP3    H144154   4.541   1.707   9.671  0.5300 -2.6293 -2.0988
 6653TIP3    H244155   4.534   1.613   9.789 -1.8045  0.9446  0.8688
 6654TIP3   OH244156   5.437   0.662   9.614 -0.0845 -0.5980  0.4216
 6654TIP3    H144157   5.423   0.594   9.679  0.1426  0.1800  1.3137
 6654TIP3    H244158   5.468   0.616   9.536  1.9102 -1.3746  1.5840
 6655TIP3   OH244159   6.487   4.254  12.286 -0.1654 -0.7730 -0.1477
 6655TIP3    H144160   6.461   4.283  12.199  0.1929 -0.5228 -0.1736
 6655TIP3    H244161   6.571   4.211  12.273  1.3049  1.7268  0.4449
 6656TIP3   OH244162   0.210   5.350  12.630 -1.4844 -0.6489 -0.3846
 6656TIP3    H144163   0.227   5.418  12.565 -0.0621 -0.3632  0.2446
 6656TIP3    H244164   0.125   5.314  12.605 -1.4086  0.0874 -1.8348
 6657TIP3   OH244165   2.579   0.165  10.657 -0.0189  0.3868 -0.1186
 6657TIP3    H144166   2.532   0.081  10.651  0.6930 -0.0513  0.2562
 6657TIP3    H244167   2.545   0.206  10.737 -0.6750  0.6591 -0.5268
 6658TIP3   OH244168   1.351   5.227  12.250 -0.1691  0.1795 -0.5831
 6658TIP3    H144169   1.345   5.181  12.166  1.9046  0.3325 -0.8684
 6658TIP3    H244170   1.274   5.199  12.299  0.4085 -2.7144 -1.1765
 6659TIP3   OH244171   4.301   4.118  10.978 -0.2699 -0.5611 -0.7218
 6659TIP3    H144172   4.267   4.029  10.977  0.7386 -1.0097  0.7033
 6659TIP3    H244173   4.299   4.143  11.070  1.4139  0.0702 -0.8072
 6660TIP3   OH244174   4.916   0.854   9.994 -0.0219  0.3337  0.0719
 6660TIP3    H144175   4.965   0.773   9.979  1.4720  0.6913  2.5967
 6660TIP3    H244176   4.839   0.826  10.044  1.1654  0.5796  2.1001
 6661TIP3   OH244177   0.716   4.207  10.918 -0.5660 -0.1830  0.6232
 6661TIP3    H144178   0.738   4.116  10.936 -1.4489 -0.6589 -0.5563
 6661TIP3    H244179   0.625   4.216  10.945 -0.6594  0.1774  0.2000
 6662TIP3   OH244180   2.164   4.629  10.576  0.2482  0.2557  0.0069
 6662TIP3    H144181   2.174   4.723  10.592  0.5152  0.0549  1.1484
 6662TIP3    H244182   2.095   4.623  10.511 -0.2242  1.2242  0.3990
 6663TIP3   OH244183   0.469   1.874  11.364  0.0355  0.0497  0.2555
 6663TIP3    H144184   0.480   1.966  11.340 -0.7512  0.3532  1.0222
 6663TIP3    H244185   0.420   1.835  11.291  1.2192 -0.0106 -0.5383
 6664TIP3   OH244186   1.268   3.253   9.147  0.3703 -0.0466 -0.7211
 6664TIP3    H144187   1.308   3.175   9.109  3.5217  0.5598  1.0261
 6664TIP3    H244188   1.225   3.221   9.226  1.8882 -0.0341  0.1384
 6665TIP3   OH244189   1.209   6.469  11.651  0.7883 -0.9548  0.0251
 6665TIP3    H144190   1.253   6.554  11.648  1.9562 -1.5500 -1.0546
 6665TIP3    H244191   1.117   6.489  11.664  0.9606  0.5155 -0.8567
 6666TIP3   OH244192   6.004   0.341  12.148  0.3973 -0.2749 -0.3323
 6666TIP3    H144193   6.015   0.278  12.077 -3.0690  0.5259 -1.7785
 6666TIP3    H244194   5.997   0.426  12.104 -1.2463  0.3210  0.9909
 6667TIP3   OH244195   3.872   1.683   9.485  0.6371  0.0337 -0.4817
 6667TIP3    H144196   3.890   1.622   9.413  1.8935 -1.3448  0.9211
 6667TIP3    H244197   3.958   1.712   9.515  0.2787 -0.9447  1.6782
 6668TIP3   OH244198   0.305   5.398   9.759 -0.0818  0.4556  0.2683
 6668TIP3    H144199   0.303   5.305   9.736 -0.9580  0.3843  0.5972
 6668TIP3    H244200   0.396   5.415   9.782  0.6059  0.2488 -2.0478
 6669TIP3   OH244201   2.170   6.150  10.077  0.0515  0.0359  0.0761
 6669TIP3    H144202   2.085   6.108  10.080  1.0226 -2.1092 -0.7702
 6669TIP3    H244203   2.188   6.174  10.168 -1.3284  0.3620  0.2889
 6670TIP3   OH244204   3.967   1.504   9.321  0.5009  0.2191 -0.4060
 6670TIP3    H144205   3.984   1.463   9.236 -0.1015  0.2525 -0.5484
 6670TIP3    H244206   4.051   1.542   9.346  0.3043  1.7114 -1.7971
 6671TIP3   OH244207   5.850   6.195   9.641 -0.3210 -0.7052 -0.1432
 6671TIP3    H144208   5.944   6.206   9.635 -0.4836  1.3934  0.3891
 6671TIP3    H244209   5.836   6.100   9.637  1.7453 -1.0172 -0.7270
 6672TIP3   OH244210   3.319   6.489  10.064  0.1983 -0.1846  0.0215
 6672TIP3    H144211   3.316   6.447   9.978 -0.9255  0.8998 -0.4991
 6672TIP3    H244212   3.369   6.428  10.118  1.7410 -0.4473 -1.6148
 6673TIP3   OH244213   5.419   2.818  10.677 -0.5609  0.2854  0.0466
 6673TIP3    H144214   5.377   2.751  10.731  0.7582 -1.6801 -1.2509
 6673TIP3    H244215   5.513   2.809  10.696 -0.2146  0.6146 -1.4039
 6674TIP3   OH244216   3.839   1.349  11.745  0.0500  0.4941  0.1863
 6674TIP3    H144217   3.794   1.341  11.661  2.9175  0.6138 -1.4691
 6674TIP3    H244218   3.836   1.261  11.782 -2.4552  0.7343  0.7157
 6675TIP3   OH244219   4.216   3.069  12.377 -0.5218  0.5451 -0.1780
 6675TIP3    H144220   4.258   3.105  12.298 -1.2744  0.1652 -0.7673
 6675TIP3    H244221   4.131   3.036  12.346 -0.9989  0.7545  0.8761
 6676TIP3   OH244222   2.461   0.045  11.272 -0.3099  0.0160  0.0772
 6676TIP3    H144223   2.436   0.103  11.344  0.0737 -0.3251  0.4869
 6676TIP3    H244224   2.380   0.035  11.221 -0.4444  0.7028  0.1446
 6677TIP3   OH244225   3.546   2.497   9.847 -0.1050  0.2045 -0.5432
 6677TIP3    H144226   3.586   2.450   9.774 -0.0359  1.0916 -1.0856
 6677TIP3    H244227   3.609   2.566   9.869  0.4836 -0.8255  1.2139
 6678TIP3   OH244228   2.097   0.514  10.703  0.6178 -0.4275  0.7781
 6678TIP3    H144229   2.006   0.527  10.675  1.6982  0.3648 -2.8456
 6678TIP3    H244230   2.126   0.601  10.730  1.0371 -0.1077 -0.6552
 6679TIP3   OH244231   0.088   1.259  11.388 -0.2861 -0.3506  1.0486
 6679TIP3    H144232   0.022   1.201  11.426  1.2711 -1.1575  2.6152
 6679TIP3    H244233   0.068   1.345  11.426 -1.6221 -0.1192 -0.0629
 6680TIP3   OH244234   3.736   5.013  11.001  0.5930 -0.5902 -0.0417
 6680TIP3    H144235   3.755   5.105  10.984  0.4269 -0.5072  0.2093
 6680TIP3    H244236   3.706   5.012  11.092 -0.1917 -0.7713 -0.2923
 6681TIP3   OH244237   6.589   1.146   9.497 -0.1215 -0.3127  0.3347
 6681TIP3    H144238   6.511   1.095   9.519  0.2037 -1.4721 -1.0053
 6681TIP3    H244239   6.661   1.082   9.498  0.1933 -0.1053 -2.0539
 6682TIP3   OH244240   4.894   5.264  11.798  0.4586 -0.5077  0.1311
 6682TIP3    H144241   4.852   5.210  11.864  0.0732  0.5889  0.8148
 6682TIP3    H244242   4.988   5.254  11.815  0.3468  1.2434  2.1312
 6683TIP3   OH244243   5.805   2.164  10.037  0.0145 -0.4268 -0.5722
 6683TIP3    H144244   5.790   2.251   9.999 -1.0724 -0.5515 -0.4740
 6683TIP3    H244245   5.720   2.121  10.031 -0.1242 -0.5897  1.6800
 6684TIP3   OH244246   5.572   0.840  10.533  0.4867 -0.4945  0.1449
 6684TIP3    H144247   5.486   0.800  10.520 -0.5354  1.4621  0.4430
 6684TIP3    H244248   5.628   0.769  10.563 -1.5725 -1.4481  2.0197
 6685TIP3   OH244249   1.929   3.276  10.503  0.4804 -0.0162  0.0907
 6685TIP3    H144250   1.888   3.225  10.572  0.6755 -1.0111 -0.5054
 6685TIP3    H244251   2.006   3.315  10.545  0.9740 -1.1552  0.2889
 6686TIP3   OH244252   6.082   1.927   9.932 -0.0755 -0.2581 -0.2506
 6686TIP3    H144253   6.104   1.866   9.861  0.0020  1.0921 -1.4332
 6686TIP3    H244254   6.086   1.874  10.011  2.4933 -1.2563 -0.9350
 6687TIP3   OH244255   1.299   0.880   9.544  0.1105 -0.4399 -0.2824
 6687TIP3    H144256   1.349   0.808   9.505  2.1158  0.9345 -0.4407
 6687TIP3    H244257   1.264   0.928   9.468 -0.5015 -0.7619 -0.2056
 6688TIP3   OH244258   0.936   0.770  10.838 -0.3110  0.7206  0.1836
 6688TIP3    H144259   1.029   0.766  10.864 -0.3690  0.9001  0.4221
 6688TIP3    H244260   0.936   0.818  10.756  0.1400 -1.8171 -1.4221
 6689TIP3   OH244261   3.701   4.313   9.750  0.6170 -0.3052 -0.4226
 6689TIP3    H144262   3.668   4.388   9.801  1.6211  0.6843 -1.1867
 6689TIP3    H244263   3.749   4.260   9.814  2.0205  1.0190 -0.3425
 6690TIP3   OH244264   2.632   1.599  10.167  0.6422  0.9024  1.1405
 6690TIP3    H144265   2.634   1.518  10.116  1.1133  0.3794  1.9694
 6690TIP3    H244266   2.688   1.660  10.119 -1.4066  1.5162 -0.6970
 6691TIP3   OH244267   2.423   0.732   9.477 -1.1299  0.1679 -0.7173
 6691TIP3    H144268   2.364   0.664   9.443 -1.0985 -0.8703  1.1765
 6691TIP3    H244269   2.367   0.789   9.529 -0.6930 -0.1278  0.1033
 6692TIP3   OH244270   2.112   2.930   9.490  0.1058 -0.2037  0.4071
 6692TIP3    H144271   2.111   2.922   9.585 -1.9462  0.9946  0.5552
 6692TIP3    H244272   2.061   3.009   9.472  3.4328  1.6845 -1.5903
 6693TIP3   OH244273   2.613   3.823   9.295  0.7637 -0.2516 -0.0854
 6693TIP3    H144274   2.528   3.836   9.336  0.0821 -1.5098 -1.0191
 6693TIP3    H244275   2.603   3.859   9.207  0.3395 -2.5817 -1.0694
 6694TIP3   OH244276   5.868   3.893  10.080 -0.0141  0.3816 -0.1448
 6694TIP3    H144277   5.910   3.817  10.040  1.5313  0.2240  1.6456
 6694TIP3    H244278   5.919   3.968  10.048 -1.6412  0.7751 -2.0489
 6695TIP3   OH244279   0.201   0.825  11.641 -0.2419 -0.0742  0.2685
 6695TIP3    H144280   0.287   0.867  11.646 -0.5559  1.2524 -3.1607
 6695TIP3    H244281   0.140   0.890  11.675 -0.0857 -0.4115  1.2254
 6696TIP3   OH244282   6.458   6.457  10.967 -0.1204 -0.1486  0.8106
 6696TIP3    H144283   6.412   6.535  10.997  1.4093  1.1751 -0.1511
 6696TIP3    H244284   6.540   6.489  10.930  1.1782 -2.3364  1.5627
 6697TIP3   OH244285   5.318   1.123  11.372  0.3584 -0.0833 -0.0408
 6697TIP3    H144286   5.264   1.078  11.438 -0.4915  0.2826 -0.4653
 6697TIP3    H244287   5.392   1.158  11.421  0.7440 -1.4552  0.3913
 6698TIP3   OH244288   2.733   1.155  11.543  0.2601 -0.4098 -0.1252
 6698TIP3    H144289   2.719   1.124  11.633  0.7725 -1.0614 -0.2609
 6698TIP3    H244290   2.661   1.117  11.492  1.1980 -1.9112 -0.4022
 6699TIP3   OH244291   5.639   1.121  11.631 -0.0226 -0.2632 -0.0015
 6699TIP3    H144292   5.597   1.055  11.686  0.1053 -0.6497 -0.3643
 6699TIP3    H244293   5.567   1.156  11.577 -0.3280  0.7827  1.0560
 6700TIP3   OH244294   6.259   5.527  11.685  0.0262 -0.2451  0.9687
 6700TIP3    H144295   6.218   5.613  11.685  0.0729 -0.2008 -0.3812
 6700TIP3    H244296   6.348   5.542  11.717  0.3461  0.4008 -0.1457
 6701TIP3   OH244297   0.805   1.928  11.474  0.3546 -0.7000 -0.3453
 6701TIP3    H144298   0.789   1.877  11.395  0.3107 -0.2433 -0.6386
 6701TIP3    H244299   0.794   2.019  11.446 -0.1401 -0.5513  0.2920
 6702TIP3   OH244300   1.090   0.509   9.975  0.5446 -0.4607 -0.0404
 6702TIP3    H144301   1.036   0.443  10.019  0.3066 -1.1438 -1.3304
 6702TIP3    H244302   1.036   0.541   9.903  1.3268 -0.1351 -0.4977
 6703TIP3   OH244303   2.498   1.318  10.223  0.4743  0.1403 -0.4284
 6703TIP3    H144304   2.574   1.308  10.166  2.1785 -0.6948  1.8379
 6703TIP3    H244305   2.486   1.231  10.263 -0.3655  0.7869  0.8051
 6704TIP3   OH244306   0.114   5.001  12.334 -0.0974  0.0444 -0.1667
 6704TIP3    H144307   0.124   4.942  12.259  0.1354  1.2175 -1.0780
 6704TIP3    H244308   0.194   5.053  12.335  0.1213 -0.2907  1.2141
 6705TIP3   OH244309   4.429   0.998  11.765  0.2060 -0.0430  0.3862
 6705TIP3    H144310   4.384   1.001  11.680  0.3914  1.9214  0.3243
 6705TIP3    H244311   4.363   0.962  11.824 -0.4759  0.0688 -0.2783
 6706TIP3   OH244312   6.444   3.702  10.618 -0.4698 -0.3493 -0.0516
 6706TIP3    H144313   6.367   3.737  10.663 -1.4052 -1.3926 -0.7808
 6706TIP3    H244314   6.519   3.741  10.664 -1.4104  2.4364 -0.7329
 6707TIP3   OH244315   0.038   2.431   9.504 -0.4857  0.3310  0.1790
 6707TIP3    H144316   0.066   2.464   9.419 -0.6037  1.6214  0.6274
 6707TIP3    H244317  -0.033   2.489   9.531 -1.4760 -0.9745  0.4995
 6708TIP3   OH244318   0.307   3.420   9.728 -0.2749  0.1122  0.0917
 6708TIP3    H144319   0.387   3.464   9.701 -0.1335 -0.2504 -0.0886
 6708TIP3    H244320   0.335   3.332   9.753 -0.2747  0.6562  2.1941
 6709TIP3   OH244321   5.339   0.504   9.802 -0.0829 -0.0634 -0.0587
 6709TIP3    H144322   5.299   0.584   9.836  0.4050  0.2844 -0.2860
 6709TIP3    H244323   5.392   0.471   9.874  0.2858  0.2148 -0.1991
 6710TIP3   OH244324   0.377   0.876  10.696 -0.4404  0.0259 -0.1333
 6710TIP3    H144325   0.379   0.789  10.656 -1.5987  0.2185 -0.6369
 6710TIP3    H244326   0.444   0.926  10.649 -2.0927  0.3933 -2.2267
 6711TIP3   OH244327   0.982   4.731  10.456 -0.2876 -0.5295  0.2947
 6711TIP3    H144328   0.912   4.715  10.393 -0.4056 -0.6549  0.4563
 6711TIP3    H244329   0.937   4.757  10.537 -0.1569 -0.7561  0.4424
 6712TIP3   OH244330   2.912   3.930  10.002  0.2365  0.3779 -0.2779
 6712TIP3    H144331   2.940   3.944   9.911  1.8534 -0.4281  0.0494
 6712TIP3    H244332   2.962   3.994  10.053 -0.1656  0.3819  0.1208
 6713TIP3   OH244333   0.861   0.999  10.700 -1.0245  0.6270 -0.7696
 6713TIP3    H144334   0.895   0.963  10.618 -0.1040  1.3243 -0.7123
 6713TIP3    H244335   0.895   1.088  10.702 -0.3558  0.3661  0.7442
 6714TIP3   OH244336   5.738   0.536  10.454 -0.2313 -0.2644 -0.0142
 6714TIP3    H144337   5.798   0.609  10.439 -1.4847  1.0303  0.9685
 6714TIP3    H244338   5.775   0.464  10.403  0.6232  1.2673 -1.6776
 6715TIP3   OH244339   5.143   0.772   9.583  0.3714  0.1861 -0.2625
 6715TIP3    H144340   5.215   0.713   9.562 -0.2292 -0.5090 -0.4234
 6715TIP3    H244341   5.184   0.848   9.624  1.0613 -0.8631  1.0317
 6716TIP3   OH244342   6.119   0.756   9.781 -0.3651 -0.1468 -0.2756
 6716TIP3    H144343   6.170   0.721   9.853  0.7346 -0.5074 -1.2057
 6716TIP3    H244344   6.084   0.679   9.736  0.4771 -0.0063 -1.1994
 6717TIP3   OH244345   5.523   6.371  12.099  0.2449  0.2498  0.2833
 6717TIP3    H144346   5.437   6.346  12.132  0.4025 -0.1389  0.4071
 6717TIP3    H244347   5.584   6.311  12.142  0.7058  1.2071  1.0243
 6718TIP3   OH244348   3.537   5.584  11.188 -0.3495 -0.1317  0.8540
 6718TIP3    H144349   3.465   5.532  11.151 -0.1587 -1.3955  2.1691
 6718TIP3    H244350   3.503   5.673  11.192 -0.9835 -0.2605 -0.7171
 6719TIP3   OH244351   0.363   6.234  11.572 -0.2402  0.2575 -0.3162
 6719TIP3    H144352   0.307   6.308  11.595  1.2763  0.9883  1.2210
 6719TIP3    H244353   0.305   6.158  11.576 -1.7542  1.2811 -1.6466
 6720TIP3   OH244354   5.145   1.528  10.218 -0.4302  0.5494 -0.2934
 6720TIP3    H144355   5.178   1.466  10.154 -0.1730 -0.2652  0.6088
 6720TIP3    H244356   5.223   1.562  10.262 -0.5659  1.5277 -0.7740
 6721TIP3   OH244357   2.200   4.010  11.020  0.7887 -0.0075  0.2963
 6721TIP3    H144358   2.140   3.955  11.071  1.2941 -0.7383  0.1172
 6721TIP3    H244359   2.274   4.025  11.079  0.3835  1.0079  0.5678
 6722TIP3   OH244360   0.711   0.813  13.517 -0.0739  0.4158 -0.1744
 6722TIP3    H144361   0.631   0.762  13.533 -0.5811  1.2210 -0.0751
 6722TIP3    H244362   0.698   0.853  13.431  1.1888 -1.1834 -1.1666
 6723TIP3   OH244363   2.620   0.687  11.797 -0.1323 -0.0258  0.1019
 6723TIP3    H144364   2.648   0.646  11.878 -0.3413  0.7070  0.5540
 6723TIP3    H244365   2.537   0.730  11.818  0.3210  1.0432 -0.2086
 6724TIP3   OH244366   2.618   4.650  11.740 -0.3632  0.1850  0.2509
 6724TIP3    H144367   2.599   4.709  11.812 -1.7684  0.8020 -0.5806
 6724TIP3    H244368   2.679   4.699  11.684  0.2992 -0.0812  0.7325
 6725TIP3   OH244369   2.365   4.486  12.892 -0.4867  0.2506 -0.2749
 6725TIP3    H144370   2.424   4.413  12.874 -0.7703 -0.3595  1.1576
 6725TIP3    H244371   2.302   4.485  12.820  0.2942 -0.0629 -0.9745
 6726TIP3   OH244372   2.565   3.976  12.088  0.4764 -0.0102  0.1602
 6726TIP3    H144373   2.594   4.066  12.072  0.1252  0.0412 -0.2043
 6726TIP3    H244374   2.601   3.925  12.016 -0.5286  0.1002 -0.4467
 6727TIP3   OH244375   2.845   1.756  12.070 -0.0926  0.6815  0.3708
 6727TIP3    H144376   2.837   1.684  12.131  1.0377 -0.5448 -0.8663
 6727TIP3    H244377   2.912   1.728  12.007 -0.3795  2.3526 -0.7621
 6728TIP3   OH244378   1.480   0.385  10.665 -0.4730  0.4443 -0.2665
 6728TIP3    H144379   1.524   0.426  10.591  0.2177  0.5658  0.1968
 6728TIP3    H244380   1.522   0.423  10.742  0.1643 -1.0806  0.1820
 6729TIP3   OH244381   1.871   4.427  11.658  0.0068  0.3907  0.2239
 6729TIP3    H144382   1.931   4.400  11.727 -0.2671  1.0509  0.7289
 6729TIP3    H244383   1.866   4.522  11.665  0.4215  0.5359 -1.0824
 6730TIP3   OH244384   3.791   2.120  11.275 -0.2946  0.5413  0.1398
 6730TIP3    H144385   3.885   2.105  11.261 -0.6487 -0.8336 -0.9570
 6730TIP3    H244386   3.770   2.067  11.352 -0.7631 -1.7501 -1.4748
 6731TIP3   OH244387   3.566   1.603  11.415  0.3204 -0.1807  0.2541
 6731TIP3    H144388   3.581   1.684  11.367 -0.6943  1.0116  1.8560
 6731TIP3    H244389   3.653   1.576  11.445  0.6044  0.6502  0.1953
 6732TIP3   OH244390   6.162   4.761  12.569  0.1097 -0.1934  0.9282
 6732TIP3    H144391   6.170   4.713  12.651  0.6466  0.4832  1.2768
 6732TIP3    H244392   6.249   4.796  12.552 -0.0385 -0.1716  0.1642
 6733TIP3   OH244393   4.858   4.389  12.459 -0.4323  0.1033  0.4731
 6733TIP3    H144394   4.779   4.434  12.430  0.1809 -0.0755 -1.6612
 6733TIP3    H244395   4.831   4.299  12.475 -0.6964  0.0961 -0.0154
 6734TIP3   OH244396   1.660   4.916  12.631  0.3199 -0.5512 -0.3147
 6734TIP3    H144397   1.669   4.832  12.584  0.4545  1.1318 -3.5815
 6734TIP3    H244398   1.742   4.961  12.614 -0.0574  0.5614  0.7359
 6735TIP3   OH244399   0.309   0.484   9.755  0.0075 -0.7502 -0.0869
 6735TIP3    H144400   0.293   0.563   9.807 -0.2650  0.3482 -1.7460
 6735TIP3    H244401   0.402   0.464   9.769  0.1379  0.0109  0.1827
 6736TIP3   OH244402   5.130   2.714  10.588 -0.2110  0.4903 -0.0626
 6736TIP3    H144403   5.197   2.759  10.639  0.9509 -1.8590  0.5893
 6736TIP3    H244404   5.177   2.651  10.535 -1.8532 -1.1739  0.3442
 6737TIP3   OH244405   1.645   1.787   9.334  0.3132 -0.3813  0.6901
 6737TIP3    H144406   1.680   1.868   9.371 -0.0663  0.4325 -0.6647
 6737TIP3    H244407   1.553   1.787   9.360 -0.5043  1.2312 -1.7695
 6738TIP3   OH244408   3.574   0.619  10.983  0.0939 -0.6644 -0.3106
 6738TIP3    H144409   3.634   0.553  11.018  0.4895 -1.2172 -1.9804
 6738TIP3    H244410   3.623   0.701  10.987 -0.6398 -0.2388  2.4335
 6739TIP3   OH244411   1.233   2.188  14.043  0.0375 -0.0758 -0.1844
 6739TIP3    H144412   1.188   2.201  13.960 -0.3882 -0.4566 -0.0204
 6739TIP3    H244413   1.311   2.138  14.021 -1.0116 -1.8084 -0.1337
 6740TIP3   OH244414   0.771   2.741  11.782  0.3943 -0.2372 -0.2272
 6740TIP3    H144415   0.739   2.825  11.750  2.2685  0.9565  0.8018
 6740TIP3    H244416   0.744   2.740  11.874 -0.2600 -1.1255 -0.4218
 6741TIP3   OH244417   0.555   3.239  12.990 -0.2372 -0.1627 -0.1847
 6741TIP3    H144418   0.542   3.334  12.990  2.5950  0.3150 -0.5347
 6741TIP3    H244419   0.560   3.216  13.083 -0.7352  0.0720 -0.0988
 6742TIP3   OH244420   6.376   1.477  10.969  0.4347 -0.5828  0.4930
 6742TIP3    H144421   6.410   1.413  10.907 -0.6780 -1.5020  0.8037
 6742TIP3    H244422   6.283   1.456  10.978  0.4213 -0.0378  1.9495
 6743TIP3   OH244423   3.503   1.716  11.818 -0.2657 -0.1905 -0.0529
 6743TIP3    H144424   3.489   1.634  11.771  1.0042  0.1981 -1.2001
 6743TIP3    H244425   3.521   1.690  11.908 -0.6781 -1.1037 -0.2201
 6744TIP3   OH244426   6.530   0.483  11.239  0.2574 -0.3823 -0.0367
 6744TIP3    H144427   6.569   0.412  11.291  0.5181 -0.3344 -0.1692
 6744TIP3    H244428   6.602   0.520  11.189 -0.1487 -1.0912 -1.2124
 6745TIP3   OH244429   0.366   3.294  13.472 -0.0460  0.1860 -0.1301
 6745TIP3    H144430   0.279   3.323  13.498 -0.0773  0.0292 -0.0527
 6745TIP3    H244431   0.426   3.350  13.521 -0.0957  0.7252 -0.6728
 6746TIP3   OH244432   5.587   5.796  13.051  0.6735 -0.8164  0.2598
 6746TIP3    H144433   5.635   5.878  13.053  0.1065 -0.4520 -0.4577
 6746TIP3    H244434   5.499   5.820  13.022  0.0067 -1.4498  1.6710
 6747TIP3   OH244435   5.073   6.138  10.884 -0.5241  0.5889 -0.5251
 6747TIP3    H144436   4.992   6.148  10.834 -1.2872  0.9159  0.7327
 6747TIP3    H244437   5.046   6.097  10.966  1.0862 -2.5797 -1.3938
 6748TIP3   OH244438   0.833   2.595  12.127  0.0677 -0.2118  0.4380
 6748TIP3    H144439   0.759   2.655  12.138  0.4162  0.5589 -1.1063
 6748TIP3    H244440   0.817   2.552  12.043  0.9021 -0.7215  0.5281
 6749TIP3   OH244441   3.398   3.120  11.724 -0.1271  0.3850  0.9071
 6749TIP3    H144442   3.470   3.137  11.784  0.7941 -1.2952  0.3481
 6749TIP3    H244443   3.395   3.025  11.716 -0.0565  0.5321 -1.8307
 6750TIP3   OH244444   5.501   2.406  12.334  0.1024 -0.3411 -0.5088
 6750TIP3    H144445   5.520   2.497  12.312  0.0964 -0.4245 -0.8764
 6750TIP3    H244446   5.585   2.361  12.328  0.0947 -0.3707 -0.3937
 6751TIP3   OH244447   5.301   4.219  10.525  0.1314  0.7056 -0.2626
 6751TIP3    H144448   5.277   4.312  10.530 -0.8572  0.6039 -2.1263
 6751TIP3    H244449   5.395   4.220  10.506 -0.1381  1.4110 -1.7254
 6752TIP3   OH244450   5.699   6.172  10.003  0.3175  0.4903  0.6617
 6752TIP3    H144451   5.716   6.218   9.920  1.4603 -0.9634  0.0370
 6752TIP3    H244452   5.664   6.239  10.061  0.9748  1.9147 -0.5189
 6753TIP3   OH244453   4.991   2.444  11.433 -0.5957  0.1073 -0.4459
 6753TIP3    H144454   5.058   2.385  11.396  0.3333  1.3578 -0.8148
 6753TIP3    H244455   4.993   2.520  11.376 -1.9003  0.4401 -0.0595
 6754TIP3   OH244456   4.567   2.551  12.488  0.1070  0.1146  0.0567
 6754TIP3    H144457   4.633   2.531  12.422 -0.6010 -0.3515 -0.5323
 6754TIP3    H244458   4.562   2.471  12.542  1.3790  0.8378  1.3121
 6755TIP3   OH244459   4.874   5.665  10.496 -0.5551  0.3294 -0.6134
 6755TIP3    H144460   4.849   5.626  10.412 -2.0249  0.6025 -0.3243
 6755TIP3    H244461   4.795   5.708  10.527 -0.1270 -0.0501  1.0818
 6756TIP3   OH244462   3.307   3.661  10.710  0.7193  0.1842 -0.6140
 6756TIP3    H144463   3.282   3.740  10.758 -1.8128 -0.3720 -0.8349
 6756TIP3    H244464   3.349   3.605  10.775 -0.6254  0.3482  0.4450
 6757TIP3   OH244465   6.345   0.274   9.598  1.1265 -0.0894  0.2310
 6757TIP3    H144466   6.411   0.204   9.592  1.8010  0.6344 -1.8065
 6757TIP3    H244467   6.278   0.248   9.534  1.0240  0.7340 -0.0051
 6758TIP3   OH244468   3.987   4.909   9.527  0.0439 -0.2381 -0.1056
 6758TIP3    H144469   3.974   4.969   9.453 -1.4633  0.1167  0.4146
 6758TIP3    H244470   4.082   4.911   9.542 -0.0063  2.6361  0.3720
 6759TIP3   OH244471   1.153   4.464  11.829 -0.2069 -0.0846 -0.2652
 6759TIP3    H144472   1.238   4.422  11.817  1.0425  1.4836  2.1892
 6759TIP3    H244473   1.102   4.403  11.881  0.2699 -0.1053  0.1850
 6760TIP3   OH244474   2.042   3.395  12.597  0.1390 -0.0951 -0.1206
 6760TIP3    H144475   2.006   3.347  12.522 -1.8419  1.1255 -0.0192
 6760TIP3    H244476   1.978   3.464  12.614  1.5097  0.8444  1.5025
 6761TIP3   OH244477   2.982   3.570  10.287 -0.0022  0.0476  0.1984
 6761TIP3    H144478   3.013   3.481  10.274  0.3064  0.2118 -0.2386
 6761TIP3    H244479   2.962   3.601  10.199  1.4300  0.9513  0.1506
 6762TIP3   OH244480   2.466   6.383  10.204  0.7581  0.6685 -0.6229
 6762TIP3    H144481   2.461   6.478  10.190  0.7396  0.2688 -4.5981
 6762TIP3    H244482   2.553   6.359  10.171  0.5043 -0.7537 -0.3222
 6763TIP3   OH244483   1.430   4.809  12.367  0.0020 -0.6014 -0.4435
 6763TIP3    H144484   1.442   4.775  12.456  0.1410 -3.7200 -1.4994
 6763TIP3    H244485   1.343   4.848  12.368  1.1115  2.1757  1.7207
 6764TIP3   OH244486   1.064   1.898   9.444 -0.0404  0.2677 -0.1108
 6764TIP3    H144487   1.133   1.907   9.509 -0.2859 -0.6234  0.2857
 6764TIP3    H244488   1.108   1.911   9.360  0.6804 -0.5997  0.1184
 6765TIP3   OH244489   0.030   5.364  11.247  0.1410 -0.3026 -0.4947
 6765TIP3    H144490   0.107   5.326  11.204 -0.5150  0.3603 -2.3331
 6765TIP3    H244491   0.032   5.456  11.221  0.4817  0.5216  2.0891
 6766TIP3   OH244492   1.119   3.762  10.043  0.2453  0.6370  0.1956
 6766TIP3    H144493   1.045   3.703  10.027 -1.2808  2.6246 -0.4216
 6766TIP3    H244494   1.182   3.707  10.090 -1.2153 -1.3856 -0.0313
 6767TIP3   OH244495   3.789   4.984  11.526  0.5271  0.9987  0.3821
 6767TIP3    H144496   3.827   4.975  11.614 -0.5879 -0.1683  0.7687
 6767TIP3    H244497   3.699   4.952  11.535  0.1451  1.6050 -1.0156
 6768TIP3   OH244498   4.787   5.284  11.519 -0.0126  0.3061 -0.0486
 6768TIP3    H144499   4.834   5.272  11.602  0.7058 -1.3183 -0.6437
 6768TIP3    H244500   4.695   5.290  11.544  0.1554 -0.6163  0.8559
 6769TIP3   OH244501   2.678   0.066  12.570 -0.0755 -0.6586  0.4388
 6769TIP3    H144502   2.588   0.095  12.555 -0.4668 -0.6369  2.5792
 6769TIP3    H244503   2.675  -0.029  12.560 -0.1575 -0.5924 -0.2225
 6770TIP3   OH244504   2.179   4.436   9.829  0.4013  0.2637  0.4022
 6770TIP3    H144505   2.247   4.374   9.802 -1.1772 -1.8601  0.9930
 6770TIP3    H244506   2.128   4.388   9.895 -0.0838  2.7454  1.9376
 6771TIP3   OH244507   4.379   1.828  10.228 -0.1059 -0.3053  0.5638
 6771TIP3    H144508   4.378   1.891  10.300 -0.5025 -1.0661  1.2344
 6771TIP3    H244509   4.332   1.873  10.157  0.4067  0.5006  0.7214
 6772TIP3   OH244510   6.284   5.623  12.734  0.5461  0.1402  0.2664
 6772TIP3    H144511   6.201   5.609  12.689  0.9140 -0.5783 -0.1934
 6772TIP3    H244512   6.350   5.587  12.675  1.0697 -0.4203  1.1710
 6773TIP3   OH244513   5.294   4.815  10.668 -0.0452 -0.4812  0.2567
 6773TIP3    H144514   5.222   4.830  10.730 -2.8300 -1.1713 -2.5383
 6773TIP3    H244515   5.274   4.730  10.628  3.1100 -1.3340  0.2285
 6774TIP3   OH244516   4.798   2.703  11.724 -0.0332  0.3023  0.0701
 6774TIP3    H144517   4.742   2.681  11.649  0.5241  1.3290 -0.6678
 6774TIP3    H244518   4.830   2.618  11.755 -2.2964 -0.3575  0.7886
 6775TIP3   OH244519   3.530   3.434  10.804 -0.6703 -0.5308 -0.7669
 6775TIP3    H144520   3.445   3.412  10.765 -1.2635  1.8059 -0.9186
 6775TIP3    H244521   3.587   3.447  10.729 -0.2304 -1.7282 -0.6686
 6776TIP3   OH244522   3.247   1.975  10.828  0.1293  0.3118 -0.3825
 6776TIP3    H144523   3.163   1.999  10.867 -0.1340 -3.5935  2.0344
 6776TIP3    H244524   3.312   2.004  10.892  0.3290  0.3961 -0.6241
 6777TIP3   OH244525   5.673   4.268  11.566 -0.4028 -0.5403 -0.2500
 6777TIP3    H144526   5.618   4.346  11.561  0.2604 -0.0568 -0.1651
 6777TIP3    H244527   5.745   4.294  11.624 -2.4742 -2.6200  3.6721
 6778TIP3   OH244528   6.068   0.263   9.554 -0.4346 -0.0799  0.1625
 6778TIP3    H144529   6.022   0.219   9.625 -2.1954 -0.6116 -1.2389
 6778TIP3    H244530   6.107   0.192   9.503 -0.4821  0.1851 -0.2512
 6779TIP3   OH244531   4.066   3.780  11.600 -0.0286 -0.0824  0.5727
 6779TIP3    H144532   4.140   3.836  11.626  0.0634 -0.1207  0.3936
 6779TIP3    H244533   4.095   3.692  11.623  0.7837 -0.3399 -1.2534
 6780TIP3   OH244534   0.989   5.038  10.302 -0.7067  0.6305  0.2741
 6780TIP3    H144535   0.904   5.017  10.262 -0.2721  0.1306 -0.4059
 6780TIP3    H244536   0.967   5.062  10.393 -1.5591  0.3771  0.1482
 6781TIP3   OH244537   1.284   6.186  10.408  0.1411 -0.0363  0.1531
 6781TIP3    H144538   1.356   6.226  10.359  0.0305  0.2146  0.1945
 6781TIP3    H244539   1.223   6.156  10.341 -0.3797  0.9868  0.1374
 6782TIP3   OH244540   2.301   3.171  11.917  0.2834  0.1002  0.1776
 6782TIP3    H144541   2.268   3.196  12.004  0.5639  1.0580  0.0173
 6782TIP3    H244542   2.307   3.075  11.921 -2.0757 -0.1078  0.3769
 6783TIP3   OH244543   1.593   5.496  11.073 -0.2555  0.0923 -0.1260
 6783TIP3    H144544   1.674   5.525  11.115  0.9282 -0.3271 -2.0057
 6783TIP3    H244545   1.558   5.429  11.132 -1.0531  2.5635  2.3827
 6784TIP3   OH244546   5.653   2.560  11.735 -0.3012  0.1134  0.1905
 6784TIP3    H144547   5.607   2.543  11.652 -1.0393 -3.7015  1.1852
 6784TIP3    H244548   5.729   2.613  11.710 -1.0898  0.0314 -2.7530
 6785TIP3   OH244549   3.123   6.373  11.424 -0.5879 -0.1389  0.0160
 6785TIP3    H144550   3.151   6.464  11.415  1.3383 -0.7096 -0.2219
 6785TIP3    H244551   3.036   6.370  11.384 -1.7149  2.0494  2.1006
 6786TIP3   OH244552   2.277   1.848  10.531  0.1170  0.0244  0.2559
 6786TIP3    H144553   2.329   1.812  10.459 -0.5111 -0.8152  0.2066
 6786TIP3    H244554   2.339   1.854  10.604  0.7383  0.8115 -0.3190
 6787TIP3   OH244555   2.166   4.351  13.743  0.4130  0.0798 -0.3237
 6787TIP3    H144556   2.117   4.320  13.667  0.9166 -1.3326 -0.1023
 6787TIP3    H244557   2.252   4.374  13.708  0.9277 -1.3578 -0.1059
 6788TIP3   OH244558   4.871   3.420  12.128  0.1862  0.2466  0.6607
 6788TIP3    H144559   4.921   3.351  12.173 -2.3251 -1.5232  0.9928
 6788TIP3    H244560   4.797   3.438  12.187 -0.3999  1.6379 -0.4505
 6789TIP3   OH244561   1.311   2.036  11.591 -0.0633 -0.0345  0.0188
 6789TIP3    H144562   1.334   1.958  11.642 -0.7148  0.6316  1.4008
 6789TIP3    H244563   1.224   2.017  11.556 -0.8737  0.6111  1.5907
 6790TIP3   OH244564   2.493   1.720  12.064 -0.4450 -0.1103 -0.0651
 6790TIP3    H144565   2.534   1.633  12.067 -1.0677 -0.6077 -2.9678
 6790TIP3    H244566   2.545   1.768  12.000 -1.1181  1.1301  0.2947
 6791TIP3   OH244567   0.935   4.759  11.082 -0.2730 -0.2893 -0.6125
 6791TIP3    H144568   0.955   4.852  11.088 -0.3097 -0.2014 -1.7083
 6791TIP3    H244569   0.856   4.754  11.028 -1.1944 -0.8696  0.7101
 6792TIP3   OH244570   1.399   1.112  11.795  0.1686  0.3532  0.2112
 6792TIP3    H144571   1.415   1.029  11.749  0.7934  0.4323  0.2769
 6792TIP3    H244572   1.473   1.167  11.771 -0.2351  0.8909  0.1867
 6793TIP3   OH244573   5.422   5.165   9.836 -0.3387 -0.2187  0.2842
 6793TIP3    H144574   5.455   5.104   9.771  0.1857 -1.0911  1.3520
 6793TIP3    H244575   5.471   5.146   9.916  0.9706  2.6315  0.2786
 6794TIP3   OH244576   4.434   2.133  12.232 -0.4904 -0.4462  0.4729
 6794TIP3    H144577   4.495   2.198  12.267 -0.6893 -0.3849  0.7083
 6794TIP3    H244578   4.469   2.049  12.261  0.4953 -0.5554 -0.9188
 6795TIP3   OH244579   5.163   3.736  10.994 -0.1603  0.2648 -0.5001
 6795TIP3    H144580   5.217   3.812  11.015 -0.5275  0.2465  0.6129
 6795TIP3    H244581   5.159   3.733  10.899  0.5763  1.1284 -0.5610
 6796TIP3   OH244582   0.818   4.844  11.400  0.4513 -0.0695  0.2397
 6796TIP3    H144583   0.780   4.760  11.375  1.2521  0.1947 -2.1521
 6796TIP3    H244584   0.912   4.833  11.388  0.4396  1.7567 -2.4148
 6797TIP3   OH244585   0.400   0.483  13.844 -0.4516 -0.2750 -0.5349
 6797TIP3    H144586   0.382   0.391  13.864 -1.5619  0.5741  3.1045
 6797TIP3    H244587   0.486   0.498  13.883 -0.8301  0.4852  0.0265
 6798TIP3   OH244588   2.904   5.721  10.248 -0.2473  0.3610 -0.9263
 6798TIP3    H144589   2.880   5.789  10.184 -1.0408  1.0280  0.0378
 6798TIP3    H244590   2.830   5.660  10.247  0.4368 -0.4826 -1.7449
 6799TIP3   OH244591   5.301   6.020  11.717  0.3914  0.2743 -0.1202
 6799TIP3    H144592   5.385   6.002  11.760  0.5771  0.4087 -0.4233
 6799TIP3    H244593   5.281   6.110  11.743  0.1809  0.1314  0.2162
 6800TIP3   OH244594   0.575   5.539  11.323 -0.6421  0.6212 -0.3164
 6800TIP3    H144595   0.602   5.573  11.238  0.2847 -0.9222 -0.6747
 6800TIP3    H244596   0.623   5.457  11.333 -0.8739  0.6629  1.6210
 6801TIP3   OH244597   0.929   0.882  11.225 -0.1587  0.1316  0.1710
 6801TIP3    H144598   0.941   0.960  11.170  1.0786  1.2054  1.8634
 6801TIP3    H244599   0.974   0.812  11.177 -1.2066  0.4383 -1.3384
 6802TIP3   OH244600   3.096   6.352  11.056 -0.4974 -0.4782  0.2248
 6802TIP3    H144601   3.166   6.301  11.097 -0.4880  0.5663  1.5637
 6802TIP3    H244602   3.015   6.314  11.092 -0.4891  0.4357  1.2527
 6803TIP3   OH244603   0.317   6.412  12.715  0.1317  0.0490 -0.1263
 6803TIP3    H144604   0.262   6.371  12.648 -2.0217  1.2555  0.8396
 6803TIP3    H244605   0.352   6.338  12.766  1.0760 -0.8334 -1.9396
 6804TIP3   OH244606   2.646   5.600  10.185 -0.0884  0.0856 -0.5567
 6804TIP3    H144607   2.621   5.630  10.098 -0.0948 -0.5911 -0.7999
 6804TIP3    H244608   2.566   5.560  10.220 -0.4776  1.5987  0.3293
 6805TIP3   OH244609   4.614   2.011   9.915  0.1506  0.5112  0.3007
 6805TIP3    H144610   4.604   1.916   9.927 -0.6520  0.6444  0.7438
 6805TIP3    H244611   4.531   2.039   9.877  0.8325  0.8658 -0.9976
 6806TIP3   OH244612   2.312   3.441  12.609  0.0844  0.2656  0.1113
 6806TIP3    H144613   2.219   3.453  12.624 -0.5336 -3.3076  0.0029
 6806TIP3    H244614   2.325   3.466  12.518 -0.6313  1.2845  0.2752
 6807TIP3   OH244615   0.215   6.396  10.615  0.3579 -0.3675  0.6306
 6807TIP3    H144616   0.276   6.450  10.564 -0.2801 -0.3070 -0.0886
 6807TIP3    H244617   0.134   6.447  10.616 -0.7676 -1.9675 -1.4237
 6808TIP3   OH244618   0.656   0.928  13.264  0.0584  0.0097  0.1037
 6808TIP3    H144619   0.598   1.005  13.263  1.2703  0.9473 -0.2766
 6808TIP3    H244620   0.740   0.961  13.234  0.4514 -1.6154 -0.6789
 6809TIP3   OH244621   3.173   1.220  12.290 -0.7662 -0.3255 -0.6064
 6809TIP3    H144622   3.143   1.189  12.375 -1.5906  0.6893 -0.5066
 6809TIP3    H244623   3.261   1.183  12.280 -0.3047  0.2454  1.0708
 6810TIP3   OH244624   5.536   4.862  10.878  0.1638  0.1631  0.5167
 6810TIP3    H144625   5.458   4.892  10.831  0.4903  1.4468  0.7681
 6810TIP3    H244626   5.501   4.813  10.953 -0.3620 -2.1044 -1.0895
 6811TIP3   OH244627   1.878   2.380  10.326 -0.3433 -0.1439  0.1194
 6811TIP3    H144628   1.882   2.475  10.336  0.6521  0.0992 -2.0098
 6811TIP3    H244629   1.969   2.351  10.332 -0.6166 -0.9563  0.5456
 6812TIP3   OH244630   0.023   3.008  12.249 -0.3438 -0.1162 -0.1755
 6812TIP3    H144631   0.024   2.963  12.164  0.8364 -1.4869  0.5070
 6812TIP3    H244632   0.079   3.084  12.237  0.1524 -0.5298 -0.5307
 6813TIP3   OH244633   5.714   0.741  11.038  0.2579 -0.0190 -0.0727
 6813TIP3    H144634   5.640   0.699  10.993 -1.2658  1.6431  0.7062
 6813TIP3    H244635   5.780   0.754  10.970 -1.6083  1.5886 -1.7163
 6814TIP3   OH244636   1.837   3.645  11.373 -0.0759 -0.4517  0.3405
 6814TIP3    H144637   1.874   3.623  11.459  0.3731 -2.5380 -0.3200
 6814TIP3    H244638   1.886   3.722  11.345  0.8966 -0.6873  1.2970
 6815TIP3   OH244639   1.074   3.510  11.116  0.4698  0.2891  0.3247
 6815TIP3    H144640   1.103   3.492  11.027 -1.1814 -3.2014  0.3043
 6815TIP3    H244641   1.031   3.595  11.111  1.8353  0.9277 -1.7836
 6816TIP3   OH244642   5.166   4.988  10.443  0.0442 -0.0410 -0.4998
 6816TIP3    H144643   5.132   4.951  10.524 -0.6728  0.9023 -0.3539
 6816TIP3    H244644   5.102   4.963  10.377  1.0742 -1.5796 -0.9900
 6817TIP3   OH244645   0.742   2.899  11.025  0.3461 -0.1207 -0.0710
 6817TIP3    H144646   0.718   2.911  11.116 -1.5443  0.8508 -0.6393
 6817TIP3    H244647   0.681   2.955  10.976  0.6754 -1.3275 -1.9904
 6818TIP3   OH244648   5.921   1.074  12.851  0.4811  0.7155  0.1809
 6818TIP3    H144649   5.904   1.168  12.858  0.9279  0.7370  1.1069
 6818TIP3    H244650   5.999   1.060  12.904  0.1446 -0.2541  0.4314
 6819TIP3   OH244651   6.053   2.294  10.521 -0.0427 -0.5946 -0.3024
 6819TIP3    H144652   6.018   2.266  10.436  1.1666 -1.6586 -0.4708
 6819TIP3    H244653   6.110   2.223  10.549  0.0667  0.0160  1.1271
 6820TIP3   OH244654   0.376   3.495  10.344 -0.0355  0.0853 -0.0809
 6820TIP3    H144655   0.449   3.528  10.397 -0.6727  0.1901  0.7660
 6820TIP3    H244656   0.332   3.433  10.401 -0.7795  0.2470 -0.4732
 6821TIP3   OH244657   5.972   2.485  12.201  0.5443  0.1819  0.0934
 6821TIP3    H144658   6.023   2.563  12.221 -0.4388  0.7102  0.6269
 6821TIP3    H244659   6.036   2.421  12.170  1.5024  0.8450  0.6752
 6822TIP3   OH244660   5.828   2.822  12.640 -0.2360  0.0942 -0.4529
 6822TIP3    H144661   5.769   2.881  12.594  1.9276  2.2834 -0.6351
 6822TIP3    H244662   5.831   2.856  12.730  0.1845 -0.4093 -0.2727
 6823TIP3   OH244663   1.853   1.775   9.655  0.5047  0.2405  0.2449
 6823TIP3    H144664   1.878   1.685   9.678 -0.6456 -0.4744 -1.1078
 6823TIP3    H244665   1.935   1.816   9.628  0.8797 -0.7905 -0.2665
 6824TIP3   OH244666   1.114   1.043  20.462 -0.0258 -1.0600  0.5212
 6824TIP3    H144667   1.024   1.027  20.491 -0.1150  0.0028  0.8479
 6824TIP3    H244668   1.105   1.092  20.381  0.2423  1.1096  1.7485
 6825TIP3   OH244669   0.322   6.317   9.484 -0.5437 -0.0378 -0.0913
 6825TIP3    H144670   0.405   6.293   9.444 -0.1360  1.3140 -0.1014
 6825TIP3    H244671   0.345   6.380   9.552 -1.6406  1.2414 -0.8452
 6826TIP3   OH244672   0.736   1.702  10.984 -0.1695 -0.7747  0.0094
 6826TIP3    H144673   0.668   1.768  10.976 -1.3897 -1.9065  0.6371
 6826TIP3    H244674   0.695   1.621  10.953 -0.3771 -2.2663  3.6844
 6827TIP3   OH244675   1.774   5.369  11.908 -0.1070  0.9355  0.1343
 6827TIP3    H144676   1.769   5.399  11.999  1.1849  0.3072  0.4438
 6827TIP3    H244677   1.697   5.407  11.866  0.2734  2.8448  1.0269
 6828TIP3   OH244678   4.304   4.092  10.718  0.3873 -0.1593  0.4087
 6828TIP3    H144679   4.347   4.007  10.721 -0.2252 -0.4668  0.6502
 6828TIP3    H244680   4.292   4.116  10.810  0.7363  0.2790  0.3410
 6829TIP3   OH244681   0.499   5.931  11.320  0.0511 -0.6292  0.0203
 6829TIP3    H144682   0.432   5.956  11.384  0.4754  1.8149 -0.3739
 6829TIP3    H244683   0.574   5.903  11.373 -1.5106 -4.5139  0.4634
 6830TIP3   OH244684   0.051   1.029  11.769  0.0833 -0.3949  0.1334
 6830TIP3    H144685   0.017   1.119  11.772  2.1603  0.4185  0.8261
 6830TIP3    H244686   0.042   0.997  11.859 -1.3866 -1.2301 -0.2681
 6831TIP3   OH244687   3.194   1.670  10.089  0.0960  0.1262  0.1702
 6831TIP3    H144688   3.137   1.732  10.044  0.1072  0.1899  0.2424
 6831TIP3    H244689   3.278   1.676  10.043  0.4333  0.9745  0.8420
 6832TIP3   OH244690   6.235   4.573  12.773  0.0412 -0.5926  0.3915
 6832TIP3    H144691   6.270   4.592  12.860  1.5940 -4.5123  0.8311
 6832TIP3    H244692   6.183   4.493  12.785 -0.2994 -0.8177 -2.1408
 6833TIP3   OH244693   2.974   6.462  10.212  0.3360 -0.9602  0.2550
 6833TIP3    H144694   2.994   6.393  10.149 -1.3809 -2.0086  0.7835
 6833TIP3    H244695   2.884   6.486  10.193  1.2164  2.0713 -0.7012
 6834TIP3   OH244696   4.205   6.414  12.745  0.5049  0.1090  0.1615
 6834TIP3    H144697   4.128   6.361  12.724  0.5327  0.4595 -0.9325
 6834TIP3    H244698   4.279   6.353  12.740  0.7863  0.5245 -3.0553
 6835TIP3   OH244699   4.437   2.290  11.082 -0.0490  0.1281 -0.1967
 6835TIP3    H144700   4.531   2.274  11.091 -0.1147  0.4125  1.1053
 6835TIP3    H244701   4.411   2.235  11.008  0.9476 -0.7695  0.0924
 6836TIP3   OH244702   5.649   3.356  11.340  0.9231  0.0688  0.2636
 6836TIP3    H144703   5.621   3.446  11.351  1.3192  0.1836  0.3391
 6836TIP3    H244704   5.743   3.357  11.358  0.6501 -0.6308  1.9042
 6837TIP3   OH244705   3.322   2.496  10.009 -0.3775  0.3049  0.4497
 6837TIP3    H144706   3.416   2.499   9.989 -0.5336 -0.8871 -0.5717
 6837TIP3    H244707   3.281   2.545   9.938 -0.5333  0.8127  0.8886
 6838TIP3   OH244708   6.020   2.723  11.100 -0.3360 -0.4346  0.1008
 6838TIP3    H144709   5.953   2.761  11.157 -0.7296 -2.0769  0.8018
 6838TIP3    H244710   6.076   2.673  11.160 -0.1904 -1.4155 -0.8269
 6839TIP3   OH244711   5.887   0.109  11.676 -0.5364 -0.0221 -0.2696
 6839TIP3    H144712   5.813   0.065  11.634 -1.4955  1.2043  0.0624
 6839TIP3    H244713   5.934   0.151  11.604 -1.3525  0.8900 -0.2815
 6840TIP3   OH244714   4.469   4.228  11.388  0.1388 -0.8313  0.2062
 6840TIP3    H144715   4.473   4.200  11.479  1.6571 -1.6008 -0.0669
 6840TIP3    H244716   4.557   4.212  11.354 -0.4393 -0.6821 -1.4360
 6841TIP3   OH244717   1.578   4.604   9.674  0.0040 -0.2079  0.1470
 6841TIP3    H144718   1.642   4.658   9.626 -1.0693  0.8130 -0.2057
 6841TIP3    H244719   1.631   4.543   9.725  1.2649  0.7545  0.0423
 6842TIP3   OH244720   1.976   0.385  11.820  0.0121  0.3036  0.3260
 6842TIP3    H144721   1.913   0.333  11.870  1.6439 -0.6050  1.5526
 6842TIP3    H244722   2.015   0.322  11.759 -1.6441  1.3054 -1.8890
 6843TIP3   OH244723   5.940   1.275  10.510 -0.2861  0.1639 -0.3368
 6843TIP3    H144724   6.019   1.240  10.551 -0.9513 -0.1056  0.7605
 6843TIP3    H244725   5.904   1.335  10.575 -1.5804 -0.5626 -0.3495
 6844TIP3   OH244726   5.313   5.896  12.009 -0.6368 -0.1244  0.3513
 6844TIP3    H144727   5.231   5.940  11.991 -1.0083 -0.8138  0.3299
 6844TIP3    H244728   5.348   5.874  11.923 -0.4240  0.1757  0.3598
 6845TIP3   OH244729   1.499   1.381  12.719 -0.3371 -0.3705 -0.4457
 6845TIP3    H144730   1.471   1.336  12.639 -0.7833 -2.3586  0.7546
 6845TIP3    H244731   1.576   1.332  12.748 -0.3153  0.1892  0.4597
 6846TIP3   OH244732   4.641   0.377  11.970  0.1562  0.4573 -0.5081
 6846TIP3    H144733   4.654   0.287  11.941 -1.5543  0.6876 -2.1460
 6846TIP3    H244734   4.656   0.374  12.064 -0.2586 -1.6287 -0.4580
 6847TIP3   OH244735   4.652   3.003  11.096  0.2651  0.9292  0.6743
 6847TIP3    H144736   4.560   3.025  11.081  0.5748  1.2462 -0.9551
 6847TIP3    H244737   4.695   3.088  11.110  0.6912  1.0318 -1.0266
 6848TIP3   OH244738   3.562   4.442   9.947  0.1903 -0.2299 -0.2354
 6848TIP3    H144739   3.593   4.499  10.018  2.2186  0.2537 -1.4451
 6848TIP3    H244740   3.479   4.482   9.920  0.9707  1.4772 -0.2561
 6849TIP3   OH244741   3.375   1.890  10.061  0.1202  0.0337 -0.1997
 6849TIP3    H144742   3.355   1.951   9.990  0.1026  0.1555 -0.0924
 6849TIP3    H244743   3.446   1.932  10.109  0.7921 -0.5105 -0.7118
 6850TIP3   OH244744   4.556   1.724  11.482  0.4121  0.0582 -0.2708
 6850TIP3    H144745   4.559   1.730  11.577  0.6958 -2.6962 -0.0481
 6850TIP3    H244746   4.645   1.746  11.453  0.8221 -0.8807  0.2476
 6851TIP3   OH244747   5.104   4.001  10.232  0.1618  0.5466 -0.0018
 6851TIP3    H144748   5.126   3.916  10.269  1.2886  2.0722  3.2268
 6851TIP3    H244749   5.160   4.008  10.154  0.0635 -1.5700 -0.3323
 6852TIP3   OH244750   2.002   4.933  13.111  0.3464  0.3141 -0.8094
 6852TIP3    H144751   1.987   4.926  13.205  0.7591  0.7143 -0.7089
 6852TIP3    H244752   1.987   4.844  13.077  0.7933  0.0314 -0.2789
 6853TIP3   OH244753   6.614   4.768  12.769  0.1761 -0.5085 -0.0314
 6853TIP3    H144754   6.632   4.859  12.745  1.0555 -0.1311  1.9127
 6853TIP3    H244755   6.656   4.756  12.854 -1.2737 -2.2717  0.5088
 6854TIP3   OH244756   1.844   6.061  11.643  0.0661  0.4498 -0.3670
 6854TIP3    H144757   1.871   6.052  11.552  0.4704  1.6350 -0.3817
 6854TIP3    H244758   1.925   6.049  11.693 -0.3984 -1.6833 -0.0477
 6855TIP3   OH244759   1.430   5.956  10.472 -0.1931  0.6667 -0.7782
 6855TIP3    H144760   1.348   6.004  10.481 -1.1152 -1.0710  0.8963
 6855TIP3    H244761   1.404   5.870  10.438  1.0825  0.4813 -1.3328
 6856TIP3   OH244762   0.458   4.256   9.894  0.1724 -0.1505 -0.7460
 6856TIP3    H144763   0.410   4.268   9.812 -0.9248 -1.4789 -0.3306
 6856TIP3    H244764   0.405   4.194   9.944  1.3686 -0.1845  0.5345
 6857TIP3   OH244765   5.552   5.484  11.202 -0.7374 -0.0949  0.3540
 6857TIP3    H144766   5.636   5.520  11.229 -1.0937 -1.2439  3.4186
 6857TIP3    H244767   5.571   5.393  11.179 -0.6986  0.4773 -2.2174
 6858TIP3   OH244768   6.217   5.883  12.457  0.6477 -0.6317 -0.1064
 6858TIP3    H144769   6.243   5.948  12.392 -2.0320 -0.7564 -1.4316
 6858TIP3    H244770   6.243   5.799  12.419 -1.1024 -0.7235 -1.2318
 6859TIP3   OH244771   3.024   1.897  11.198  0.0436  0.3081  0.7418
 6859TIP3    H144772   3.052   1.961  11.263 -0.4696  0.9860  0.3078
 6859TIP3    H244773   2.931   1.913  11.186 -0.0164 -0.2726  0.3442
 6860TIP3   OH244774   5.869   4.464  12.371  0.5090 -0.0690  0.1087
 6860TIP3    H144775   5.909   4.457  12.458 -1.2114 -0.2975  0.9319
 6860TIP3    H244776   5.813   4.541  12.376  0.1258 -0.2802 -0.6763
 6861TIP3   OH244777   4.206   5.790  11.031 -0.2058 -0.2827  0.0832
 6861TIP3    H144778   4.263   5.716  11.048  1.9030  1.2283  0.0245
 6861TIP3    H244779   4.124   5.769  11.076  0.0702 -2.8958 -0.5171
 6862TIP3   OH244780   2.854   5.887  10.022  0.0769  0.5357  0.0742
 6862TIP3    H144781   2.803   5.840   9.956 -4.0651  1.2884  2.4235
 6862TIP3    H244782   2.884   5.966   9.977 -2.6532  1.0591 -1.0130
 6863TIP3   OH244783   1.499   5.842  12.840 -0.5102 -0.3329 -0.1597
 6863TIP3    H144784   1.440   5.874  12.908  0.2174  0.9580 -0.0971
 6863TIP3    H244785   1.560   5.785  12.887 -1.7502 -1.7909 -0.2514
 6864TIP3   OH244786   2.394   2.205   9.317 -0.4055 -0.7550 -0.2707
 6864TIP3    H144787   2.468   2.157   9.278  0.6003 -0.9303  1.7551
 6864TIP3    H244788   2.360   2.146   9.383 -2.2495 -0.5586 -0.9974
 6865TIP3   OH244789   6.580   3.060  10.186  0.6602  0.6775 -0.3737
 6865TIP3    H144790   6.488   3.059  10.163  1.0019  0.7585 -1.8333
 6865TIP3    H244791   6.590   2.988  10.248 -0.4104  0.8045 -0.0404
 6866TIP3   OH244792   1.487   0.685   9.447  0.4759  0.5649 -0.0014
 6866TIP3    H144793   1.577   0.680   9.414  0.2687 -0.8030 -0.3908
 6866TIP3    H244794   1.469   0.598   9.483 -0.8392  0.6982 -0.2989
 6867TIP3   OH244795   0.201   3.435  11.077 -0.2523  0.2014 -0.2211
 6867TIP3    H144796   0.268   3.406  11.139  0.5804  1.6577 -0.4023
 6867TIP3    H244797   0.221   3.526  11.060 -1.4012  0.2618 -1.4576
 6868TIP3   OH244798   6.474   0.183  10.716 -0.1479  0.3873 -0.2995
 6868TIP3    H144799   6.507   0.253  10.771 -0.6872  0.4172 -0.0117
 6868TIP3    H244800   6.551   0.129  10.697  0.0878  0.5337  0.2460
 6869TIP3   OH244801   1.871   0.488  11.328  0.6632  0.5651  0.0473
 6869TIP3    H144802   1.843   0.405  11.290  1.1591  0.2614  0.3267
 6869TIP3    H244803   1.806   0.552  11.298  1.4468  0.5001 -1.9544
 6870TIP3   OH244804   4.957   2.450   9.775  0.2847 -0.3255 -0.4777
 6870TIP3    H144805   4.882   2.395   9.754 -0.7185  0.9531 -0.4052
 6870TIP3    H244806   4.989   2.417   9.858  0.4541 -1.5353 -1.0073
 6871TIP3   OH244807   6.089   3.066   9.528 -0.2577  0.0291 -0.3295
 6871TIP3    H144808   6.036   3.058   9.448 -0.4616  0.7683 -0.2808
 6871TIP3    H244809   6.136   3.149   9.517  1.9959 -1.2516 -0.9949
 6872TIP3   OH244810   0.460   0.962  11.086 -0.2400 -0.0785  0.3591
 6872TIP3    H144811   0.493   0.999  11.005 -0.3809  1.0119  0.7772
 6872TIP3    H244812   0.533   0.968  11.148 -0.7951  1.1524  0.9241
 6873TIP3   OH244813   4.068   3.927  10.796  0.0728 -0.2908 -0.4185
 6873TIP3    H144814   4.074   3.924  10.891  2.7168  2.1780 -0.3654
 6873TIP3    H244815   4.119   3.852  10.766  1.3825  0.3299  0.1722
 6874TIP3   OH244816   0.834   3.865  10.120 -0.2142  1.0007 -0.8825
 6874TIP3    H144817   0.914   3.834  10.078 -0.5158 -0.0167 -0.7317
 6874TIP3    H244818   0.764   3.811  10.083 -0.2111 -2.0705  2.9089
 6875TIP3   OH244819   0.615   2.881   9.459 -0.0979 -0.3481  0.0327
 6875TIP3    H144820   0.702   2.871   9.420 -1.0535  1.7909 -2.9645
 6875TIP3    H244821   0.571   2.798   9.440  0.1736 -0.1403 -1.6351
 6876TIP3   OH244822   4.106   0.698  11.124  0.2002  0.0059  0.0248
 6876TIP3    H144823   4.181   0.640  11.108  1.4180  1.5152 -0.0521
 6876TIP3    H244824   4.056   0.655  11.193  1.1314 -1.0585  0.0671
 6877TIP3   OH244825   1.992   1.935  13.288 -0.3390 -0.0906  0.0843
 6877TIP3    H144826   1.955   2.021  13.306 -0.6963 -0.2277  0.0182
 6877TIP3    H244827   2.067   1.928  13.347  0.5565  0.8322 -0.8905
 6878TIP3   OH244828   0.078   1.247  13.120  0.2621 -0.3147 -0.6422
 6878TIP3    H144829   0.022   1.249  13.197 -1.3806  1.8146 -1.7602
 6878TIP3    H244830   0.114   1.336  13.114 -0.1737 -0.2145 -2.6432
 6879TIP3   OH244831   3.542   3.600  12.069 -0.3271 -0.4675 -0.7290
 6879TIP3    H144832   3.525   3.541  11.995 -2.1156 -0.0821 -0.6527
 6879TIP3    H244833   3.521   3.687  12.036  0.3998 -0.0866 -0.2235
 6880TIP3   OH244834   3.071   0.363  11.920 -0.1730 -0.6149  0.6503
 6880TIP3    H144835   3.016   0.297  11.877  0.0879  0.6006 -1.7337
 6880TIP3    H244836   3.012   0.436  11.938  0.2787  0.0332 -0.3862
 6881TIP3   OH244837   1.370   4.403   9.602 -0.1098 -0.4337  0.3396
 6881TIP3    H144838   1.401   4.494   9.606  0.8803 -0.7830  0.9262
 6881TIP3    H244839   1.275   4.411   9.593 -0.1832  0.6587  1.7258
 6882TIP3   OH244840   5.153   1.101  10.925 -0.1501 -0.3567  0.4236
 6882TIP3    H144841   5.212   1.157  10.975 -0.6148  2.8520 -2.2510
 6882TIP3    H244842   5.210   1.056  10.862 -0.1861  0.4596 -0.2113
 6883TIP3   OH244843   6.388   5.624  13.006  0.2003 -0.1123  0.2620
 6883TIP3    H144844   6.384   5.642  12.912 -1.1199  2.0091  0.6352
 6883TIP3    H244845   6.461   5.565  13.017  1.0968  0.4935 -1.9933
 6884TIP3   OH244846   1.426   0.136  11.860 -1.1613 -0.2121  0.2147
 6884TIP3    H144847   1.391   0.125  11.772  1.2191 -0.8393 -0.7316
 6884TIP3    H244848   1.451   0.047  11.887 -0.5085  0.1695  0.9151
 6885TIP3   OH244849   0.218   6.445  12.287 -0.8166  0.3887 -0.2545
 6885TIP3    H144850   0.257   6.358  12.286 -1.8068 -0.1286 -2.7152
 6885TIP3    H244851   0.228   6.478  12.197 -1.2478  2.4567  0.3799
 6886TIP3   OH244852   1.761   2.072  12.648  0.2702  0.2033 -0.2844
 6886TIP3    H144853   1.747   2.112  12.561 -0.1584  0.8662  0.0809
 6886TIP3    H244854   1.855   2.080  12.663  0.2020  1.0409 -0.2449
 6887TIP3   OH244855   3.480   3.679  12.383 -0.7697  0.0245  0.3667
 6887TIP3    H144856   3.572   3.687  12.406 -1.0650 -0.5373  1.8493
 6887TIP3    H244857   3.458   3.763  12.342  0.3958  0.1499 -0.0179
 6888TIP3   OH244858   5.911   5.749  11.931  0.4182  0.4883  1.1402
 6888TIP3    H144859   5.956   5.664  11.924  2.9682  1.8790 -0.9033
 6888TIP3    H244860   5.951   5.790  12.008 -2.1042 -0.7258  3.2603
 6889TIP3   OH244861   1.406   2.484  11.906  0.0920 -0.2722  0.3583
 6889TIP3    H144862   1.406   2.566  11.956 -1.1645 -1.2238  2.0090
 6889TIP3    H244863   1.321   2.483  11.863  0.7176 -0.0140 -0.9519
 6890TIP3   OH244864   4.834   5.708  12.136  0.0697  0.1513  0.1448
 6890TIP3    H144865   4.822   5.803  12.135 -0.5762  0.1064  1.3006
 6890TIP3    H244866   4.928   5.695  12.143  0.1393  0.7145  0.2916
 6891TIP3   OH244867   5.775   0.222  11.056  0.3567 -0.3249 -0.5851
 6891TIP3    H144868   5.683   0.238  11.076  0.7207  1.5593 -0.2635
 6891TIP3    H244869   5.817   0.307  11.064  2.2206 -1.2168 -0.3360
 6892TIP3   OH244870   2.890   6.028  10.692  0.8099  0.0973  0.0617
 6892TIP3    H144871   2.813   6.070  10.731  2.1983  1.8520  1.0319
 6892TIP3    H244872   2.872   6.029  10.598 -0.1984  0.8016  0.2385
 6893TIP3   OH244873   6.370   1.107   9.700 -0.0760  0.5025  0.4874
 6893TIP3    H144874   6.393   1.123   9.792 -0.3655  0.0890  0.6322
 6893TIP3    H244875   6.340   1.192   9.668 -2.4568  0.1219  1.4993
 6894TIP3   OH244876   0.988   2.930  10.192  0.1055  0.0744  0.3780
 6894TIP3    H144877   0.987   2.842  10.155  0.6346 -0.8228  2.3616
 6894TIP3    H244878   1.065   2.971  10.153 -0.3040 -0.2195 -0.7769
 6895TIP3   OH244879   1.629   1.439  13.039  0.0090  0.0002 -0.1893
 6895TIP3    H144880   1.636   1.348  13.012  0.2439 -0.4776  1.3709
 6895TIP3    H244881   1.684   1.445  13.117  1.1424  1.8312 -1.0607
 6896TIP3   OH244882   1.394   3.338  12.667  0.1296  0.1041 -0.0852
 6896TIP3    H144883   1.431   3.421  12.637  1.1539 -0.2859  0.0297
 6896TIP3    H244884   1.370   3.292  12.587 -2.5435  1.3648 -0.1243
 6897TIP3   OH244885   1.507   4.944  10.967 -0.6355 -1.0125 -0.5999
 6897TIP3    H144886   1.557   4.922  10.888 -1.1757  1.1125 -1.6137
 6897TIP3    H244887   1.415   4.936  10.939 -0.8300 -0.5191 -0.1198
 6898TIP3   OH244888   1.127   3.387   9.854 -0.3579 -0.1697  0.0144
 6898TIP3    H144889   1.079   3.415   9.932 -0.1728  0.6507 -0.1637
 6898TIP3    H244890   1.121   3.291   9.856 -2.1052 -0.0908 -0.0728
 6899TIP3   OH244891   0.019   0.963  12.286 -0.0808  0.0280  0.4611
 6899TIP3    H144892  -0.050   0.941  12.348  1.8591 -0.3354  2.5852
 6899TIP3    H244893   0.050   0.878  12.253  0.6071  0.0936  0.9382
 6900TIP3   OH244894   6.168   5.845  11.109  0.2181  0.2940 -0.2089
 6900TIP3    H144895   6.231   5.917  11.111 -1.0463  1.5521 -2.0235
 6900TIP3    H244896   6.188   5.798  11.028 -0.2921 -0.1190 -0.1015
 6901TIP3   OH244897   6.031   0.236  10.524 -0.4245  0.1114  0.1338
 6901TIP3    H144898   5.944   0.254  10.488 -0.1121 -0.2559 -0.8297
 6901TIP3    H244899   6.017   0.232  10.619 -1.7623 -1.5407 -0.0739
 6902TIP3   OH244900   3.371   0.050  11.941 -0.1040 -0.7872  0.6436
 6902TIP3    H144901   3.339   0.028  11.854 -0.0128  1.3125  0.0350
 6902TIP3    H244902   3.384  -0.035  11.984  0.5385 -1.8935 -1.6149
 6903TIP3   OH244903   3.563   5.692  10.420 -0.1044 -0.3547 -0.1561
 6903TIP3    H144904   3.630   5.626  10.434  0.0828  0.0010  0.6710
 6903TIP3    H244905   3.576   5.756  10.491 -0.8818  0.0692 -0.3783
 6904TIP3   OH244906   0.586   3.644  11.184  0.2464  0.1815 -0.6096
 6904TIP3    H144907   0.556   3.709  11.247 -1.9760 -0.8102 -0.5724
 6904TIP3    H244908   0.678   3.629  11.208  0.5507  2.5352 -0.0182
 6905TIP3   OH244909   6.248   6.484   9.890 -0.4974 -0.2070 -0.0699
 6905TIP3    H144910   6.272   6.567   9.931 -3.1130  0.0813  1.0438
 6905TIP3    H244911   6.319   6.424   9.913  0.3079  1.1281  1.0532
 6906TIP3   OH244912   6.207   3.310   9.571  0.1861  0.0894 -0.6456
 6906TIP3    H144913   6.257   3.340   9.495 -0.6876  0.8205 -0.9560
 6906TIP3    H244914   6.256   3.342   9.647  1.5159 -1.3666 -0.8596
 6907TIP3   OH244915   4.259   1.323  11.707  0.3543  0.2421 -0.2313
 6907TIP3    H144916   4.189   1.379  11.741 -0.2873 -0.5893 -0.1524
 6907TIP3    H244917   4.233   1.234  11.731  1.7711 -0.0297  0.3753
 6908TIP3   OH244918   3.008   0.285   9.808  0.1294 -0.5393 -0.3256
 6908TIP3    H144919   2.954   0.358   9.777  2.8725  1.4454 -0.8222
 6908TIP3    H244920   3.050   0.317   9.888  2.1349 -1.1383 -1.0596
 6909TIP3   OH244921   0.399   0.408  11.413 -0.1521  0.2825 -0.6697
 6909TIP3    H144922   0.490   0.377  11.413 -0.1755  0.1054  1.4372
 6909TIP3    H244923   0.407   0.503  11.406  0.2077  0.2871 -0.2258
 6910TIP3   OH244924   1.279   0.005  12.516  0.0753  0.3500  0.3923
 6910TIP3    H144925   1.194  -0.024  12.483 -0.7457  0.1700  2.5301
 6910TIP3    H244926   1.340  -0.064  12.489 -0.7981 -0.4605  0.4423
 6911TIP3   OH244927   1.548   2.705  10.497 -0.1629  0.0930  0.0975
 6911TIP3    H144928   1.504   2.625  10.527 -1.4650  0.6954 -0.1275
 6911TIP3    H244929   1.626   2.674  10.451 -0.6409 -1.0472  0.0294
 6912TIP3   OH244930   3.584   0.171  10.094  0.3170  0.0875  0.2560
 6912TIP3    H144931   3.602   0.145  10.185  1.2141  0.8280  0.3100
 6912TIP3    H244932   3.659   0.137  10.044  0.3624  0.5815 -0.0252
 6913TIP3   OH244933   2.759   3.953  12.278 -0.3403 -0.0197  0.1082
 6913TIP3    H144934   2.722   3.980  12.194 -0.6374 -1.1162 -0.1275
 6913TIP3    H244935   2.794   3.866  12.262  1.5131  0.6017  0.5833
 6914TIP3   OH244936   4.242   0.831  12.626  0.2417  0.3877  0.0843
 6914TIP3    H144937   4.212   0.901  12.684  1.0348  0.0503  0.9256
 6914TIP3    H244938   4.314   0.870  12.577  0.2215  0.3754  0.0450
 6915TIP3   OH244939   4.921   5.366   9.670  0.1816  0.7551  0.2306
 6915TIP3    H144940   4.874   5.330   9.746 -0.6892  0.3527 -0.4763
 6915TIP3    H244941   4.958   5.290   9.626  1.4111  1.0597  0.6977
 6916TIP3   OH244942   4.446   0.444  12.815  0.1309 -0.0208 -0.6358
 6916TIP3    H144943   4.496   0.471  12.892  1.6576  1.9405 -2.2035
 6916TIP3    H244944   4.370   0.502  12.814 -1.5479 -2.0330  0.9350
 6917TIP3   OH244945   4.225   4.321  10.155 -0.4266 -0.4895  0.0058
 6917TIP3    H144946   4.196   4.409  10.177 -0.8911 -0.6028 -0.1347
 6917TIP3    H244947   4.155   4.264  10.186  0.7937 -0.9915  1.9776
 6918TIP3   OH244948   5.214   1.323  11.654  0.2723 -0.0151  0.2275
 6918TIP3    H144949   5.302   1.301  11.625  0.0567 -1.1313  0.3341
 6918TIP3    H244950   5.171   1.359  11.576  0.4135 -0.7605 -0.2105
 6919TIP3   OH244951   4.969   0.707  10.924 -0.0191  0.1877 -0.3576
 6919TIP3    H144952   4.899   0.772  10.923  0.3318  0.7155  2.4499
 6919TIP3    H244953   4.951   0.653  11.000  2.1985 -0.1596 -0.0055
 6920TIP3   OH244954   2.863   5.352  11.019  0.2510 -0.2833 -0.1244
 6920TIP3    H144955   2.840   5.268  11.059  1.0696  0.6000  2.4126
 6920TIP3    H244956   2.928   5.329  10.952 -0.9824 -1.8097 -0.8878
 6921TIP3   OH244957   1.994   0.884  11.717 -0.2173  0.4274  0.5325
 6921TIP3    H144958   1.958   0.938  11.647 -0.6017  0.5224  0.8013
 6921TIP3    H244959   2.087   0.907  11.719 -0.4857  1.5437  1.0496
 6922TIP3   OH244960   2.776   1.359   9.692  0.4475 -0.2949  0.4494
 6922TIP3    H144961   2.750   1.306   9.767  0.2164  0.8276  1.1733
 6922TIP3    H244962   2.809   1.440   9.729  2.1657 -0.4627 -0.5722
 6923TIP3   OH244963   2.685   0.608   9.704 -0.0581 -0.0570  0.1998
 6923TIP3    H144964   2.624   0.631   9.774  0.1003 -0.9248  0.6259
 6923TIP3    H244965   2.644   0.643   9.625  0.2660  1.8857  0.8204
 6924TIP3   OH244966   5.233   1.935  10.882 -0.1794  0.2061 -0.1935
 6924TIP3    H144967   5.191   2.020  10.891 -0.9168 -0.1045 -0.5907
 6924TIP3    H244968   5.173   1.884  10.827  0.4333 -0.4439 -0.2823
 6925TIP3   OH244969   0.899   0.718  12.481 -0.2428 -0.1402  0.2254
 6925TIP3    H144970   0.865   0.711  12.392  1.2628 -1.3794 -0.2966
 6925TIP3    H244971   0.932   0.808  12.487 -0.2602 -0.0818 -0.5020
 6926TIP3   OH244972   0.860   5.410  12.695 -0.5702  0.2239 -0.1462
 6926TIP3    H144973   0.925   5.347  12.726  0.0299  0.1708 -1.4619
 6926TIP3    H244974   0.777   5.376  12.727 -0.2588 -1.2629 -0.8257
 6927TIP3   OH244975   5.905   3.148  12.289 -0.1074 -0.4166 -0.3662
 6927TIP3    H144976   5.980   3.135  12.232 -0.1605 -1.4156 -0.2263
 6927TIP3    H244977   5.942   3.184  12.370  0.2861 -1.2851 -0.1476
 6928TIP3   OH244978   2.599   5.512  10.714  0.4493  0.6090  0.2726
 6928TIP3    H144979   2.553   5.451  10.772  1.2357 -2.5063 -2.1452
 6928TIP3    H244980   2.532   5.576  10.689 -0.9144 -0.2691  1.4979
 6929TIP3   OH244981   4.087   6.080  10.717  0.1608 -0.1819 -0.2422
 6929TIP3    H144982   4.033   6.074  10.796 -2.1281 -1.0505 -1.7708
 6929TIP3    H244983   4.144   6.003  10.721  1.8130  1.0376  1.6716
 6930TIP3   OH244984   1.242   5.694  11.885  0.2310  0.1327  0.4187
 6930TIP3    H144985   1.330   5.708  11.920  0.2529 -0.7085  0.7332
 6930TIP3    H244986   1.190   5.767  11.919  0.7307  0.4596  0.4911
 6931TIP3   OH244987   6.606   2.891  12.480 -0.1306  0.0609 -0.1877
 6931TIP3    H144988   6.602   2.931  12.393 -2.9769  0.8149  0.1889
 6931TIP3    H244989   6.553   2.811  12.472  2.3355 -1.7387  0.0817
 6932TIP3   OH244990   2.378   3.028  10.876  0.1446  0.0349  0.9146
 6932TIP3    H144991   2.405   3.120  10.876  0.6651 -0.1085 -0.2040
 6932TIP3    H244992   2.458   2.980  10.896  0.0632 -0.2253  0.6141
 6933TIP3   OH244993   1.041   5.413   9.488  0.4791 -0.1370  0.1013
 6933TIP3    H144994   1.058   5.348   9.555 -0.3144 -1.0809 -0.5829
 6933TIP3    H244995   1.107   5.397   9.420 -0.0996 -0.6492 -0.3500
 6934TIP3   OH244996   2.246   0.667  13.368 -0.5349  0.7991 -0.0426
 6934TIP3    H144997   2.215   0.587  13.411  0.0130  0.8058  0.3599
 6934TIP3    H244998   2.202   0.666  13.283  1.3111 -1.2025 -1.0650
 6935TIP3   OH244999   5.324   4.501  10.571 -0.1266 -0.1307 -0.1086
 6935TIP3    H145000   5.394   4.512  10.636 -0.7199 -0.5840  0.6140
 6935TIP3    H245001   5.243   4.502  10.622 -0.7519  1.5419 -1.0524
 6936TIP3   OH245002   1.540   4.202   9.691  0.8274  0.6126 -0.7342
 6936TIP3    H145003   1.502   4.268   9.633  0.7027 -1.3660 -3.0219
 6936TIP3    H245004   1.511   4.118   9.656  3.6955 -0.8351 -0.0017
 6937TIP3   OH245005   5.691   4.394  11.877 -0.4770  0.2766  0.8982
 6937TIP3    H145006   5.716   4.463  11.938 -0.9751  1.4325 -0.1569
 6937TIP3    H245007   5.714   4.428  11.791  1.3433 -1.8205  0.4711
 6938TIP3   OH245008   1.266   6.445  12.134 -0.4406 -0.6856  0.0542
 6938TIP3    H145009   1.233   6.425  12.047 -0.2051 -0.3627 -0.1120
 6938TIP3    H245010   1.338   6.383  12.147  0.7955  0.5191 -0.7700
 6939TIP3   OH245011   0.547   4.933  10.376  0.4321  0.3638 -0.0474
 6939TIP3    H145012   0.463   4.976  10.390  0.8110  1.3935 -0.7813
 6939TIP3    H245013   0.534   4.843  10.407  0.2358  1.4995  3.6121
 6940TIP3   OH245014   4.987   2.107   9.418 -0.8199 -0.2942 -0.4410
 6940TIP3    H145015   5.080   2.114   9.394 -0.0165 -0.0849  2.3683
 6940TIP3    H245016   4.977   2.017   9.449 -1.0831  0.1429  0.8192
 6941TIP3   OH245017   4.444   1.437  12.795  0.0402  0.4905 -0.1796
 6941TIP3    H145018   4.352   1.456  12.813  0.3650  1.2951  0.7076
 6941TIP3    H245019   4.451   1.342  12.808 -0.7847  0.3286 -0.8618
 6942TIP3   OH245020   3.666   2.287  11.933 -0.0809 -0.6336  0.9243
 6942TIP3    H145021   3.680   2.286  11.839  0.1973  1.1153  0.9133
 6942TIP3    H245022   3.685   2.377  11.960  2.6682 -1.7104  3.0910
 6943TIP3   OH245023   4.640   5.983  10.790 -0.1487  0.2211  0.3352
 6943TIP3    H145024   4.652   5.931  10.870 -2.0377  0.1137  0.5955
 6943TIP3    H245025   4.712   6.047  10.792  1.6914 -1.7378  0.4678
 6944TIP3   OH245026   0.517   1.393   9.725 -0.6011 -0.1180  0.3924
 6944TIP3    H145027   0.542   1.465   9.667 -0.5282  0.9687  1.7186
 6944TIP3    H245028   0.425   1.408   9.745 -0.2067  0.5204  1.8783
 6945TIP3   OH245029   4.846   1.520   9.509 -0.1084 -0.5500 -0.4298
 6945TIP3    H145030   4.921   1.562   9.467 -0.3067  0.1579 -0.0919
 6945TIP3    H245031   4.778   1.587   9.510  0.4390  0.1453  2.5919
 6946TIP3   OH245032   5.089   1.610  11.119  0.1910 -0.5155 -0.3733
 6946TIP3    H145033   5.086   1.591  11.213 -0.6878 -1.3340 -0.5549
 6946TIP3    H245034   5.125   1.530  11.080  0.7379 -0.1067 -0.7240
 6947TIP3   OH245035   0.491   0.601  12.044  0.0147 -1.1081  0.2933
 6947TIP3    H145036   0.580   0.626  12.019  0.7892 -1.6140  2.3727
 6947TIP3    H245037   0.442   0.683  12.042  0.9002 -0.5575  0.5574
 6948TIP3   OH245038   1.140   1.287  10.689 -1.0206  0.0639  0.4151
 6948TIP3    H145039   1.172   1.198  10.676  0.3832  0.4212  1.0969
 6948TIP3    H245040   1.111   1.316  10.603 -0.9218 -0.8421  0.0710
 6949TIP3   OH245041   4.799   4.093  12.017 -0.6841 -0.0059  0.0189
 6949TIP3    H145042   4.874   4.139  11.980  0.4783 -0.9319  1.1324
 6949TIP3    H245043   4.789   4.016  11.962 -1.3062  0.4824 -0.5723
 6950TIP3   OH245044   6.495   2.530  10.204  0.1991 -0.3263  0.3411
 6950TIP3    H145045   6.417   2.504  10.252 -0.0327 -0.9897 -0.3742
 6950TIP3    H245046   6.523   2.612  10.246 -1.1858  0.2168  0.2500
 6951TIP3   OH245047   0.441   3.335  11.442 -0.1632  0.6081  0.0552
 6951TIP3    H145048   0.526   3.308  11.405 -0.5489  1.1261 -1.2824
 6951TIP3    H245049   0.399   3.253  11.466 -0.4594  0.0911 -2.0108
 6952TIP3   OH245050   3.130   1.793   9.304  0.3506 -0.3158 -0.2494
 6952TIP3    H145051   3.171   1.708   9.296 -0.3428 -1.0332  2.5574
 6952TIP3    H245052   3.202   1.856   9.305  0.9380 -0.9621 -1.1170
 6953TIP3   OH245053   0.897   3.189  10.690  0.1531  0.8481 -0.0112
 6953TIP3    H145054   0.945   3.110  10.713  0.4403  1.4005  1.3726
 6953TIP3    H245055   0.910   3.199  10.595 -0.1348 -0.8967 -0.2590
 6954TIP3   OH245056   4.081   3.252  10.240  0.6085 -1.1097  0.1294
 6954TIP3    H145057   4.138   3.230  10.313 -0.4921 -0.5934  1.1745
 6954TIP3    H245058   3.997   3.210  10.260 -0.1930  0.3352 -0.0122
 6955TIP3   OH245059   2.898   5.377  12.332 -0.2226  0.1987 -0.1138
 6955TIP3    H145060   2.815   5.332  12.348 -0.0916  0.1729  0.5442
 6955TIP3    H245061   2.943   5.374  12.417  0.7320 -0.3706 -0.6213
 6956TIP3   OH245062   2.007   0.557  12.865  0.2999 -0.3012 -0.2654
 6956TIP3    H145063   2.053   0.587  12.786  0.4108 -0.5189 -0.2839
 6956TIP3    H245064   2.039   0.468  12.879 -0.4366 -0.6129 -0.5232
 6957TIP3   OH245065   2.570   1.930  10.493  0.3036 -0.2490 -0.4432
 6957TIP3    H145066   2.551   1.946  10.400  0.4089 -0.2172 -0.4593
 6957TIP3    H245067   2.642   1.866  10.492  2.3156  1.8973 -0.4348
 6958TIP3   OH245068   1.772   1.795  13.386 -0.6854  0.1796  0.2258
 6958TIP3    H145069   1.863   1.817  13.365 -0.4503 -1.8552 -1.0753
 6958TIP3    H245070   1.728   1.880  13.391  1.5249  1.3282  2.2845
 6959TIP3   OH245071   1.837   0.487  10.664  0.5442 -0.5791  0.7336
 6959TIP3    H145072   1.827   0.392  10.658 -0.6904 -0.4268  0.0561
 6959TIP3    H245073   1.771   0.514  10.727  0.5745 -0.1145  0.5710
 6960TIP3   OH245074   3.867   1.496  11.037  0.0757 -0.2056 -0.7154
 6960TIP3    H145075   3.799   1.488  10.971  1.0288 -0.6566 -1.6644
 6960TIP3    H245076   3.944   1.527  10.989  0.2504  1.4375  0.5314
 6961TIP3   OH245077   1.174   6.509  10.979 -0.1214 -0.1681  0.0490
 6961TIP3    H145078   1.148   6.475  10.893  1.7102 -2.1338  0.2054
 6961TIP3    H245079   1.258   6.553  10.964 -0.7571  1.2997  0.5246
 6962TIP3   OH245080   1.753   3.737  12.958 -0.0121  0.2509  0.2713
 6962TIP3    H145081   1.674   3.781  12.926 -0.7329 -1.1491  0.0499
 6962TIP3    H245082   1.824   3.770  12.903 -0.9603 -0.8623 -1.7203
 6963TIP3   OH245083   2.754   0.700  10.276  0.2889 -0.0092 -0.3158
 6963TIP3    H145084   2.778   0.663  10.361  1.6480  1.9575  0.2168
 6963TIP3    H245085   2.730   0.791  10.295 -1.4641 -0.1055 -1.7687
 6964TIP3   OH245086   4.954   0.780  11.331  0.1862  0.1195 -0.4130
 6964TIP3    H145087   4.936   0.855  11.273  0.1098  0.0048 -0.5372
 6964TIP3    H245088   4.922   0.704  11.283  0.1585  0.0194 -0.2367
 6965TIP3   OH245089   2.339   0.262  12.075 -0.2243  0.6221 -0.3233
 6965TIP3    H145090   2.350   0.181  12.126 -0.7259 -0.7254 -2.2575
 6965TIP3    H245091   2.279   0.315  12.127  0.8404  0.1863  1.4434
 6966TIP3   OH245092   4.145   5.439  12.452  0.5659  0.4181  0.1713
 6966TIP3    H145093   4.105   5.363  12.410  1.0906  1.2809 -2.0365
 6966TIP3    H245094   4.225   5.406  12.491  0.2010 -0.3674  0.2752
 6967TIP3   OH245095   2.556   2.655   9.978  0.3718  0.0291  0.3252
 6967TIP3    H145096   2.507   2.602   9.915 -0.2808  0.9943  0.0024
 6967TIP3    H245097   2.599   2.722   9.926  1.7879 -0.5871  0.6489
 6968TIP3   OH245098   1.597   5.997  11.118 -0.2616 -0.5117 -0.5510
 6968TIP3    H145099   1.603   6.093  11.113  1.3647 -0.5891 -0.7476
 6968TIP3    H245100   1.618   5.977  11.209 -0.9353 -0.6738 -0.4268
 6969TIP3   OH245101   2.481   4.075   9.583  0.5148  0.2926  0.4451
 6969TIP3    H145102   2.446   3.986   9.591  0.4248  0.0238 -2.0295
 6969TIP3    H245103   2.576   4.062   9.571  0.6986  0.6444  1.4310
 6970TIP3   OH245104   4.473   5.060   9.818 -0.0490  0.4138 -0.2371
 6970TIP3    H145105   4.544   5.015   9.772 -0.2249  1.0911 -1.1972
 6970TIP3    H245106   4.503   5.066   9.909  1.2211  0.8791 -0.6660
 6971TIP3   OH245107   6.594   6.600  10.365  0.0849  0.3172  0.3299
 6971TIP3    H145108   6.684   6.580  10.342 -0.2354  0.0508 -0.7195
 6971TIP3    H245109   6.559   6.645  10.288 -0.9097 -0.2940  0.4090
 6972TIP3   OH245110   0.937   1.364   9.774 -0.3542  0.6292 -0.4868
 6972TIP3    H145111   0.943   1.452   9.812  1.4943  0.5680 -0.5361
 6972TIP3    H245112   0.982   1.308   9.838 -3.8629 -0.8402  0.9354
 6973TIP3   OH245113   5.422   0.870  11.314 -0.3314 -0.1481 -0.5347
 6973TIP3    H145114   5.378   0.955  11.307  3.1187  1.6849 -3.1994
 6973TIP3    H245115   5.408   0.843  11.404 -1.7654  3.1560  0.3980
 6974TIP3   OH245116   0.085   6.330  11.288  0.1456  0.0075  0.5291
 6974TIP3    H145117   0.048   6.380  11.361  0.0277  1.2878 -0.3625
 6974TIP3    H245118   0.020   6.262  11.270 -0.1007  0.0500  1.2357
 6975TIP3   OH245119   0.511   2.951  11.739 -1.1804  0.1299 -0.6333
 6975TIP3    H145120   0.454   2.998  11.679  0.3364  1.6461 -0.9547
 6975TIP3    H245121   0.597   2.952  11.697 -0.7691 -1.7095  0.0299
 6976TIP3   OH245122   1.379   5.294  10.456  0.2351  0.8388  0.0883
 6976TIP3    H145123   1.347   5.247  10.380  1.9483 -0.5595  0.1766
 6976TIP3    H245124   1.362   5.235  10.530  1.3957  0.8120  0.3524
 6977TIP3   OH245125   3.195   2.800  12.230  0.0339  0.0781  0.1161
 6977TIP3    H145126   3.272   2.752  12.259 -0.2537 -0.2933  0.2666
 6977TIP3    H245127   3.187   2.872  12.294 -0.0476 -0.1854  0.4028
 6978TIP3   OH245128   3.454   3.590  11.338 -0.3477 -0.3064  0.4200
 6978TIP3    H145129   3.441   3.636  11.256  1.1954  1.9786  1.3429
 6978TIP3    H245130   3.370   3.596  11.383 -1.2107 -1.5996 -0.9353
 6979TIP3   OH245131   5.456   5.512  11.867  0.4887  0.5497  0.2397
 6979TIP3    H145132   5.368   5.500  11.904 -0.1071  1.6573 -0.7551
 6979TIP3    H245133   5.508   5.544  11.941 -0.1225  0.5677  0.6735
 6980TIP3   OH245134   1.039   3.078  11.731 -0.1819 -0.0791 -0.3772
 6980TIP3    H145135   1.085   3.144  11.678  1.3755 -0.5746  0.3186
 6980TIP3    H245136   1.096   3.002  11.729 -1.8351 -1.3506 -0.9392
 6981TIP3   OH245137   2.789   4.764   9.429  0.1785  0.1419  0.2396
 6981TIP3    H145138   2.723   4.831   9.411 -0.3524 -0.8107 -1.6682
 6981TIP3    H245139   2.738   4.690   9.462  0.1158 -0.8359 -1.8687
 6982TIP3   OH245140   3.413   3.135   9.613  0.1268 -0.2841 -0.5682
 6982TIP3    H145141   3.489   3.154   9.558  0.5753  0.8733  0.4197
 6982TIP3    H245142   3.449   3.116   9.699 -0.7278  0.9154  0.0730
 6983TIP3   OH245143   1.316   5.692  10.668 -0.0279  0.3128 -0.1089
 6983TIP3    H145144   1.337   5.654  10.582  0.7883 -1.5840  0.8729
 6983TIP3    H245145   1.283   5.779  10.648  2.6028  0.9490 -2.1798
 6984TIP3   OH245146   1.103   4.385   9.665  0.6301 -0.5144  0.1240
 6984TIP3    H145147   1.045   4.361   9.593 -0.0188 -0.8518  0.7483
 6984TIP3    H245148   1.115   4.304   9.714  1.8997 -0.5270 -0.1758
 6985TIP3   OH245149   3.714   4.725  10.515  0.0461  0.3228  0.0950
 6985TIP3    H145150   3.765   4.802  10.491  1.6396 -0.5227  0.6269
 6985TIP3    H245151   3.723   4.718  10.610  0.8012 -1.0820 -0.0560
 6986TIP3   OH245152   0.296   3.317  10.574  0.0419  0.2242 -0.2282
 6986TIP3    H145153   0.234   3.289  10.507 -0.3513 -0.5508  0.4385
 6986TIP3    H245154   0.250   3.303  10.657  0.6262  0.8825  0.2233
 6987TIP3   OH245155   6.580   4.518  13.153 -0.0323 -0.2074  0.0293
 6987TIP3    H145156   6.520   4.447  13.130 -2.7763  1.9538 -0.0212
 6987TIP3    H245157   6.590   4.511  13.248  0.4275 -1.1139 -0.0692
 6988TIP3   OH245158   4.426   6.174  10.866  0.0507  0.2395 -0.0916
 6988TIP3    H145159   4.498   6.120  10.832  1.5802  2.0905  0.0047
 6988TIP3    H245160   4.399   6.227  10.791 -1.2744 -0.4637 -0.1326
 6989TIP3   OH245161   0.386   5.285  12.859 -0.2826 -0.2741  0.5907
 6989TIP3    H145162   0.363   5.344  12.930 -0.0210  0.3857  0.1356
 6989TIP3    H245163   0.302   5.263  12.818 -0.3841 -0.2564  0.7866
 6990TIP3   OH245164   0.500   3.157  10.687 -0.4670 -0.0684 -0.5658
 6990TIP3    H145165   0.573   3.217  10.670  0.4243 -1.1332 -0.6357
 6990TIP3    H245166   0.427   3.194  10.637 -0.0432  1.1308 -0.3385
 6991TIP3   OH245167   4.651   5.008  12.726  0.1274 -0.0583  0.4994
 6991TIP3    H145168   4.723   4.990  12.666  1.7429  2.0195  1.6944
 6991TIP3    H245169   4.677   4.966  12.808 -0.1829  0.4077  0.8404
 6992TIP3   OH245170   5.364   5.139  11.903 -0.1516  0.1031 -0.7656
 6992TIP3    H145171   5.434   5.201  11.926 -0.4835  0.4758 -0.7480
 6992TIP3    H245172   5.397   5.054  11.933  0.5071  0.1972 -1.2159
 6993TIP3   OH245173   1.554   6.275  11.357 -0.1543  0.5855 -0.2162
 6993TIP3    H145174   1.584   6.185  11.370  0.9292  0.9378 -0.2077
 6993TIP3    H245175   1.537   6.308  11.445  1.1119  0.9312 -0.0809
 6994TIP3   OH245176   1.339   5.570  10.418  0.0936 -0.2708  0.4369
 6994TIP3    H145177   1.269   5.619  10.375  1.6360  0.6232 -1.1901
 6994TIP3    H245178   1.313   5.478  10.410 -1.1047  0.0677  0.2843
 6995TIP3   OH245179   5.048   2.853  10.950 -0.0675 -0.4378  0.5475
 6995TIP3    H145180   5.123   2.896  10.909  1.5110  1.5626  4.9296
 6995TIP3    H245181   4.972   2.887  10.903  1.5352 -0.1657 -2.0912
 6996TIP3   OH245182   0.038   3.983  10.994 -0.0360 -0.5903 -0.3960
 6996TIP3    H145183   0.076   4.067  10.968 -2.2061  0.5810 -0.1110
 6996TIP3    H245184   0.030   3.989  11.089 -1.7335 -0.3409 -0.5131
 6997TIP3   OH245185   0.617   5.325   9.716 -0.0551 -0.1619 -0.3801
 6997TIP3    H145186   0.641   5.368   9.634 -0.8102 -0.8200 -0.9671
 6997TIP3    H245187   0.700   5.305   9.758  0.3360  0.5460 -0.7920
 6998TIP3   OH245188   2.585   0.249   9.838 -0.0589 -0.1946  0.6837
 6998TIP3    H145189   2.670   0.209   9.821  0.0958 -0.0947  1.2030
 6998TIP3    H245190   2.521   0.183   9.810  0.1629  0.2636 -1.0045
 6999TIP3   OH245191   0.230   1.358  10.575 -0.6393 -0.2507 -0.2636
 6999TIP3    H145192   0.260   1.427  10.516  1.7167 -0.4553  0.5868
 6999TIP3    H245193   0.195   1.404  10.651  1.1332  0.0530  0.4031
 7000TIP3   OH245194   6.002   2.107  10.949  0.4761  0.0707 -0.1031
 7000TIP3    H145195   6.044   2.091  10.865  1.5745 -1.0342  0.6082
 7000TIP3    H245196   5.975   2.020  10.979 -0.4041  0.5180  0.4324
 7001TIP3   OH245197   2.265   4.222  12.675  0.0281  0.1214  0.2264
 7001TIP3    H145198   2.353   4.244  12.705  0.6894 -1.3670 -0.4909
 7001TIP3    H245199   2.237   4.151  12.732 -0.9534  0.9413  0.7967
 7002TIP3   OH245200   1.622   2.292  10.197  0.3272  0.3641 -0.4604
 7002TIP3    H145201   1.694   2.289  10.260  0.3662  0.5896 -0.4927
 7002TIP3    H245202   1.543   2.284  10.250  0.4075 -2.0454 -0.5801
 7003TIP3   OH245203   3.167   2.098   9.849 -0.4311  0.2463 -0.4438
 7003TIP3    H145204   3.176   2.183   9.805 -1.7824  0.2307 -0.7885
 7003TIP3    H245205   3.208   2.111   9.934 -0.3683  1.1648 -0.6050
 7004TIP3   OH245206   2.942   2.331   9.443  0.1872  0.0011 -0.2300
 7004TIP3    H145207   2.916   2.345   9.534  1.5790 -0.9910  0.3573
 7004TIP3    H245208   2.860   2.328   9.395 -0.5917  0.2561  1.0420
 7005TIP3   OH245209   6.551   3.624   9.323 -0.1981 -0.7108 -0.0189
 7005TIP3    H145210   6.590   3.707   9.351 -0.7258 -0.3929 -0.2144
 7005TIP3    H245211   6.473   3.650   9.274 -1.4660 -1.3701  1.5779
 7006TIP3   OH245212   4.484   1.181  12.840  0.0853 -0.2443 -0.3725
 7006TIP3    H145213   4.443   1.110  12.790 -1.2810 -0.8566  1.4850
 7006TIP3    H245214   4.537   1.136  12.906 -0.4846  0.4340  0.5749
 7007TIP3   OH245215   5.827   3.691   9.766 -0.2663  0.1478  0.2433
 7007TIP3    H145216   5.885   3.720   9.836 -0.1727  1.8632 -0.4890
 7007TIP3    H245217   5.878   3.625   9.718 -0.0054 -0.3966  1.2435
 7008TIP3   OH245218   3.997   2.848   9.933 -0.0689  0.0255  0.2662
 7008TIP3    H145219   3.940   2.776   9.959  0.5430 -0.2886  0.7443
 7008TIP3    H245220   4.047   2.869  10.011 -0.7803  1.4874  0.3644
 7009TIP3   OH245221   3.036   3.457  10.650  0.5566 -0.4882 -0.2042
 7009TIP3    H145222   2.966   3.463  10.715  1.7746 -0.1232  1.1411
 7009TIP3    H245223   2.994   3.420  10.572 -1.2701  0.4378  0.2929
 7010TIP3   OH245224   1.411   2.971   9.211 -0.4270 -0.2529 -0.6777
 7010TIP3    H145225   1.396   3.010   9.297  1.9781  0.6274 -0.5942
 7010TIP3    H245226   1.348   2.899   9.206 -1.3289  0.3256  1.3567
 7011TIP3   OH245227   5.264   3.991   9.998  0.1690 -0.4896 -0.3910
 7011TIP3    H145228   5.290   4.023   9.911  0.8448  0.4206  0.1246
 7011TIP3    H245229   5.325   3.920  10.017  1.6616  0.9159  0.3457
 7012TIP3   OH245230   3.002   3.168  10.437 -0.3638  0.0983  0.3341
 7012TIP3    H145231   3.000   3.079  10.403 -3.2725  0.4365 -0.5924
 7012TIP3    H245232   3.047   3.219  10.370 -0.4343 -0.3420 -0.0493
 7013TIP3   OH245233   1.580   0.938  11.260 -0.0896 -0.2868  0.2617
 7013TIP3    H145234   1.540   0.851  11.252  0.4652 -0.3919 -1.9869
 7013TIP3    H245235   1.549   0.971  11.344 -0.4658 -2.5775  1.0895
 7014TIP3   OH245236   5.217   0.524  12.000 -0.3342 -0.1356 -0.0871
 7014TIP3    H145237   5.193   0.604  12.046 -0.1530  0.3609 -0.8328
 7014TIP3    H245238   5.134   0.480  11.982 -0.4341 -0.1047  0.3014
 7015TIP3   OH245239   6.549   3.956  12.216 -0.4780 -0.2740  0.2752
 7015TIP3    H145240   6.502   3.889  12.265  0.6980 -1.1198  0.2896
 7015TIP3    H245241   6.634   3.916  12.195 -0.4739  0.4949 -1.3836
 7016TIP3   OH245242   5.773   2.582  11.350  0.1643  0.3276 -0.1893
 7016TIP3    H145243   5.753   2.492  11.325 -0.8736  0.1745  1.0932
 7016TIP3    H245244   5.703   2.634  11.310  0.6115  0.5304 -0.7072
 7017TIP3   OH245245   1.940   0.057  12.457 -0.0418  0.0283  0.0318
 7017TIP3    H145246   1.993   0.028  12.531  0.6975 -0.9575 -0.8547
 7017TIP3    H245247   1.858   0.008  12.465 -0.5247  0.9453  0.9430
 7018TIP3   OH245248   1.693   0.572  12.036  0.0247 -0.2213 -0.4601
 7018TIP3    H145249   1.651   0.560  11.951 -1.5603 -0.8177  0.3555
 7018TIP3    H245250   1.693   0.484  12.075  0.7454  0.0394  0.1542
 7019TIP3   OH245251   0.832   2.410  12.953 -0.7145 -0.7211  0.3049
 7019TIP3    H145252   0.845   2.414  13.048 -2.7975 -0.1122  0.6108
 7019TIP3    H245253   0.827   2.316  12.934  1.4249 -0.9230  0.4818
 7020TIP3   OH245254   4.898   2.199  11.221  0.1246  0.2370  0.2792
 7020TIP3    H145255   4.977   2.246  11.194 -0.1731  0.3136 -0.4658
 7020TIP3    H245256   4.889   2.128  11.158 -0.8545  0.7136 -0.1364
 7021TIP3   OH245257   6.528   6.302  11.680 -0.9462 -0.0146 -0.3067
 7021TIP3    H145258   6.496   6.366  11.616 -1.3242 -1.0766 -1.2131
 7021TIP3    H245259   6.536   6.221  11.630  0.4947 -0.4438  0.5760
 7022TIP3   OH245260   0.436   2.786   9.648 -0.5177  0.3144 -0.7779
 7022TIP3    H145261   0.376   2.858   9.666 -0.2850  0.1077  0.9719
 7022TIP3    H245262   0.504   2.824   9.593  0.2034  1.7687  1.0168
 7023TIP3   OH245263   4.324   4.291  10.507 -0.3746  0.3496  0.1524
 7023TIP3    H145264   4.236   4.314  10.478 -1.1379 -2.2364  0.0919
 7023TIP3    H245265   4.309   4.236  10.585  1.3262  1.8410  1.6104
 7024TIP3   OH245266   5.514   1.908   9.641 -0.0677 -0.0308  0.3739
 7024TIP3    H145267   5.561   1.926   9.559  0.1336 -0.4015  0.4065
 7024TIP3    H245268   5.576   1.933   9.709 -0.4141  0.7330  0.4142
 7025TIP3   OH245269   4.287   2.188  10.072 -0.0473  0.3333  0.4599
 7025TIP3    H145270   4.199   2.218  10.053 -0.3332  0.2896  1.6323
 7025TIP3    H245271   4.321   2.157   9.988 -0.9427  0.8549 -0.1061
 7026TIP3   OH245272   5.398   1.977  10.457 -0.2819 -0.7235  0.2170
 7026TIP3    H145273   5.423   1.903  10.511  0.5089 -0.7276 -0.1466
 7026TIP3    H245274   5.329   2.021  10.507 -0.0395 -1.1143  0.9082
 7027TIP3   OH245275   0.352   2.799  11.199 -0.2091 -0.2170  0.3000
 7027TIP3    H145276   0.416   2.767  11.136 -0.7391 -0.7485  0.0227
 7027TIP3    H245277   0.402   2.856  11.258  0.5106 -0.6146  0.0800
 7028TIP3   OH245278   2.531   4.936  10.402  0.3473 -0.0121 -0.4349
 7028TIP3    H145279   2.487   5.020  10.414 -1.4397 -0.9747 -0.0173
 7028TIP3    H245280   2.522   4.918  10.308  0.1584 -0.0549 -0.4075
 7029TIP3   OH245281   1.971   0.568  10.970  0.1650  0.3097  0.3102
 7029TIP3    H145282   1.990   0.636  10.904  0.0511 -1.3504 -1.5354
 7029TIP3    H245283   1.885   0.533  10.944  0.8438 -1.4759  0.3546
 7030TIP3   OH245284   3.609   4.514  11.106  0.0896 -0.2957 -0.2952
 7030TIP3    H145285   3.632   4.597  11.065  0.6635  0.5309  1.5941
 7030TIP3    H245286   3.682   4.456  11.087  0.6102  0.2481  0.0281
 7031TIP3   OH245287   5.093   4.500  10.138 -0.4648  0.0605 -0.2919
 7031TIP3    H145288   5.031   4.567  10.109  0.6135  0.9228 -0.6546
 7031TIP3    H245289   5.155   4.547  10.195  0.2431 -0.6460 -0.4565
 7032TIP3   OH245290   6.294   2.191   9.571  0.6021 -0.4325 -0.1962
 7032TIP3    H145291   6.374   2.201   9.520  0.9341  0.5928  0.4937
 7032TIP3    H245292   6.297   2.262   9.636  0.0581 -1.5170  1.0716
 7033TIP3   OH245293   0.122   5.993  12.896  0.1193  0.1715  0.5331
 7033TIP3    H145294   0.073   6.065  12.938  0.1145 -0.0348  0.8835
 7033TIP3    H245295   0.130   6.020  12.805  0.0399  0.5791  0.6448
 7034TIP3   OH245296   2.954   1.149  12.152 -0.1520  0.7910 -0.1917
 7034TIP3    H145297   2.909   1.098  12.220  0.2615 -2.9950 -2.4385
 7034TIP3    H245298   3.036   1.175  12.192  0.8210 -2.7335  0.4919
 7035TIP3   OH245299   3.147   3.302   9.978  0.4675 -0.5887 -0.1283
 7035TIP3    H145300   3.225   3.357   9.970 -0.3862  1.1563  2.4916
 7035TIP3    H245301   3.103   3.312   9.893  0.8947  1.9647 -0.1275
 7036TIP3   OH245302   4.640   5.549  12.191  0.7014 -0.9128  0.0276
 7036TIP3    H145303   4.601   5.582  12.272 -0.0980 -2.3698  0.2810
 7036TIP3    H245304   4.716   5.605  12.176  1.4293 -1.1900  2.3114
 7037TIP3   OH245305   5.832   0.281  10.305  0.0957 -0.3462  0.1139
 7037TIP3    H145306   5.794   0.312  10.223 -0.0738 -0.8703 -0.0082
 7037TIP3    H245307   5.771   0.215  10.336  0.0815 -0.0421  0.7440
 7038TIP3   OH245308   4.595   1.630  18.765  0.0771  0.0879  0.8611
 7038TIP3    H145309   4.549   1.632  18.849  0.8335 -0.1707  1.2935
 7038TIP3    H245310   4.546   1.690  18.709  0.3317  1.3094  1.8993
 7039TIP3   OH245311   1.451   2.233  10.409 -0.2250 -0.0263 -0.6964
 7039TIP3    H145312   1.449   2.163  10.474 -1.0667  0.2699 -0.3940
 7039TIP3    H245313   1.435   2.313  10.459 -0.1514  0.2858 -1.1656
 7040TIP3   OH245314   4.543   6.494  11.593  0.5349 -0.2432  0.4466
 7040TIP3    H145315   4.462   6.545  11.599 -0.1240 -1.2794  0.7349
 7040TIP3    H245316   4.531   6.423  11.656  1.8108 -0.2404  0.7128
 7041TIP3   OH245317   3.184   5.498  12.319 -0.4440  0.0077  0.4312
 7041TIP3    H145318   3.118   5.463  12.259  2.7895 -2.0593 -2.2296
 7041TIP3    H245319   3.164   5.455  12.402 -1.1524 -2.3610 -0.8563
 7042TIP3   OH245320   1.522   0.793  10.807  0.2576  0.4390 -0.4118
 7042TIP3    H145321   1.568   0.720  10.847 -0.3750  0.7015  0.8344
 7042TIP3    H245322   1.430   0.781  10.831  0.2414  2.0497  0.4924
 7043TIP3   OH245323   6.223   6.583  12.532  0.0446 -0.4003  0.4881
 7043TIP3    H145324   6.148   6.628  12.571 -0.3713  0.1056 -0.8429
 7043TIP3    H245325   6.200   6.575  12.439  1.1804 -1.1977  0.2611
 7044TIP3   OH245326   5.554   4.047   9.580  0.3797 -0.6071  0.2972
 7044TIP3    H145327   5.616   3.980   9.609  0.5661  0.5000  2.7379
 7044TIP3    H245328   5.610   4.120   9.552  0.1602 -0.9502 -1.1236
 7045TIP3   OH245329   6.141   1.264   9.902 -0.1858  0.1375  0.6100
 7045TIP3    H145330   6.140   1.254   9.806 -0.4774 -0.7570  0.6933
 7045TIP3    H245331   6.076   1.332   9.920 -0.4199  0.0287  0.1951
 7046TIP3   OH245332   4.284   0.516  11.035 -0.4977 -0.2172 -0.3195
 7046TIP3    H145333   4.255   0.470  10.957  0.4869  0.2461 -0.9749
 7046TIP3    H245334   4.380   0.508  11.034 -0.4892 -0.6258  1.1075
 7047TIP3   OH245335   3.144   5.363  10.894 -0.1702 -0.0431  0.0593
 7047TIP3    H145336   3.168   5.454  10.878  3.2274 -0.8309 -0.1397
 7047TIP3    H245337   3.165   5.318  10.813  3.0776 -1.6849  1.5995
 7048TIP3   OH245338   0.484   3.518  10.617  0.2362  0.3046 -0.0816
 7048TIP3    H145339   0.473   3.537  10.710  2.0742 -1.7050  0.6177
 7048TIP3    H245340   0.409   3.462  10.595 -0.2008  0.7830  0.1609
 7049TIP3   OH245341   1.638   1.214  11.749  0.2452  0.0787  0.3923
 7049TIP3    H145342   1.680   1.270  11.683 -1.0540  1.7642  0.9267
 7049TIP3    H245343   1.710   1.160  11.783  1.2798  0.4046 -1.1440
 7050TIP3   OH245344   0.011   3.743  11.898 -0.1938 -0.1229 -0.0887
 7050TIP3    H145345   0.065   3.669  11.870  2.1014  0.8946  1.3046
 7050TIP3    H245346  -0.024   3.715  11.983  0.6506  0.3384  0.4242
 7051TIP3   OH245347   5.740   6.547  12.251  0.1049  0.1922 -0.2523
 7051TIP3    H145348   5.668   6.501  12.295  1.0269 -1.5978 -0.5042
 7051TIP3    H245349   5.722   6.640  12.265 -0.6500 -0.2634  2.2763
 7052TIP3   OH245350   6.299   4.237  11.265 -0.2012  0.5688 -0.2948
 7052TIP3    H145351   6.311   4.183  11.187 -1.2277  1.4746 -1.1108
 7052TIP3    H245352   6.329   4.182  11.337  1.1100 -0.1670 -1.3463
 7053TIP3   OH245353   4.673   0.123  11.877  0.9890  0.5412 -0.9135
 7053TIP3    H145354   4.678   0.048  11.937  2.9454  2.2259  1.2194
 7053TIP3    H245355   4.732   0.101  11.805 -0.4833 -1.0026 -1.7310
 7054TIP3   OH245356   3.366   5.835  10.598 -0.0057  0.3777 -0.3452
 7054TIP3    H145357   3.292   5.842  10.658  0.8011  0.9842  0.5968
 7054TIP3    H245358   3.380   5.924  10.566  1.2848  0.5848  0.6957
 7055TIP3   OH245359   4.501   4.313  10.928 -0.0906  0.1180  0.6125
 7055TIP3    H145360   4.568   4.288  10.865 -0.6828  0.0627 -0.0030
 7055TIP3    H245361   4.446   4.235  10.936 -1.9716  1.1550 -1.3365
 7056TIP3   OH245362   2.756   6.315  11.833  0.7053 -0.0380 -0.1261
 7056TIP3    H145363   2.805   6.261  11.894 -2.5487 -1.6232  1.3211
 7056TIP3    H245364   2.729   6.255  11.763  1.1217  0.8801 -1.1168
 7057TIP3   OH245365   0.012   3.783  10.832 -0.4301  0.5820  0.5232
 7057TIP3    H145366   0.009   3.866  10.879 -2.1809  0.6490  0.3822
 7057TIP3    H245367  -0.044   3.724  10.883 -1.4907  0.3408 -0.8576
 7058TIP3   OH245368   1.283   0.216  12.686 -0.0103 -0.0470 -0.2945
 7058TIP3    H145369   1.295   0.297  12.637 -1.1307 -0.5972 -1.5261
 7058TIP3    H245370   1.298   0.146  12.622 -0.4044 -0.7968  0.4093
 7059TIP3   OH245371   0.439   1.107   9.941 -0.4996  0.4576  0.2798
 7059TIP3    H145372   0.361   1.053   9.932  0.1962 -0.9150  1.9278
 7059TIP3    H245373   0.458   1.138   9.852 -1.4999 -1.1906 -0.5470
 7060TIP3   OH245374   1.453   2.529  13.490  0.0804  0.0883 -0.3630
 7060TIP3    H145375   1.498   2.493  13.567  0.4836 -1.0008 -1.0945
 7060TIP3    H245376   1.510   2.600  13.460  0.1392  0.2312  0.0784
 7061TIP3   OH245377   5.703   3.613  10.586  0.2082  0.0814 -0.5905
 7061TIP3    H145378   5.747   3.592  10.503 -1.8448 -1.3137 -1.4062
 7061TIP3    H245379   5.693   3.528  10.630 -1.1987  0.4275 -0.2202
 7062TIP3   OH245380   3.793   0.801  12.769 -0.3520 -0.5746  0.2531
 7062TIP3    H145381   3.816   0.891  12.792 -1.5574 -0.4681  1.1094
 7062TIP3    H245382   3.736   0.771  12.839  1.4832 -2.6796  0.9754
 7063TIP3   OH245383   6.540   5.476  11.720  0.0493 -0.8482 -0.3554
 7063TIP3    H145384   6.585   5.392  11.713  1.6249 -0.2554  1.6924
 7063TIP3    H245385   6.603   5.534  11.762 -2.0427  0.5078  1.1490
 7064TIP3   OH245386   5.119   5.777  10.540 -0.0005 -0.1564  0.5432
 7064TIP3    H145387   5.162   5.737  10.465  1.6443 -0.7667  1.7485
 7064TIP3    H245388   5.026   5.777  10.517  0.2127 -2.3041 -0.6183
 7065TIP3   OH245389   1.915   1.813  12.451 -0.2571  0.7598 -0.0596
 7065TIP3    H145390   1.824   1.810  12.481  0.2114  0.3227  1.3910
 7065TIP3    H245391   1.909   1.837  12.358 -1.7132  3.6770  0.6717
 7066TIP3   OH245392   2.544   2.687  11.531  0.2135  0.1196 -0.0540
 7066TIP3    H145393   2.525   2.770  11.574  1.4952  0.8655 -0.8436
 7066TIP3    H245394   2.505   2.695  11.444 -0.3396 -0.4373  0.1338
 7067TIP3   OH245395   6.513   5.122  12.950  0.0711  0.9746 -0.0587
 7067TIP3    H145396   6.591   5.086  12.993  0.3064  1.9124  0.3197
 7067TIP3    H245397   6.460   5.156  13.022 -0.8751  0.0119 -0.2816
 7068TIP3   OH245398   1.236   5.428  10.020 -0.3955  0.3939  0.1774
 7068TIP3    H145399   1.315   5.475  10.045 -0.3912  0.0484  0.8693
 7068TIP3    H245400   1.164   5.481  10.056 -0.3710 -0.3165  1.3295
 7069TIP3   OH245401   3.312   5.863  11.519  0.1546 -0.2260 -0.1207
 7069TIP3    H145402   3.330   5.815  11.600 -1.1559  0.0342  0.3474
 7069TIP3    H245403   3.268   5.799  11.463 -0.0195 -0.0742 -0.1580
 7070TIP3   OH245404   2.766   6.441  11.454  0.5782 -0.3699 -0.1334
 7070TIP3    H145405   2.672   6.423  11.448  0.0567  1.7497  0.6900
 7070TIP3    H245406   2.772   6.518  11.510  2.8814 -0.8227  0.3523
 7071TIP3   OH245407   2.097   5.481  11.986  0.2112  0.7724 -0.4140
 7071TIP3    H145408   2.079   5.387  11.989 -0.7023  0.8852 -1.5558
 7071TIP3    H245409   2.181   5.491  12.031  0.1038 -0.5230  0.1221
 7072TIP3   OH245410   3.340   1.015  12.560  0.4700 -0.5436 -0.0117
 7072TIP3    H145411   3.314   0.923  12.554 -1.8706 -0.0053  0.5885
 7072TIP3    H245412   3.315   1.041  12.649  1.8277  0.4961  0.1013
 7073TIP3   OH245413   0.250   0.957  12.870 -0.7425  0.2105  0.3814
 7073TIP3    H145414   0.210   0.871  12.855  2.9081 -1.3886 -1.8810
 7073TIP3    H245415   0.195   1.018  12.823 -2.0525 -1.3254 -0.1767
 7074TIP3   OH245416   1.832   1.637  10.913  0.1144  0.6349 -0.3895
 7074TIP3    H145417   1.845   1.550  10.875  2.6308  1.0039 -0.5680
 7074TIP3    H245418   1.892   1.639  10.988 -1.9976  1.2595  1.3763
 7075TIP3   OH245419   6.210   1.509  12.305 -0.4572 -0.0671 -0.5043
 7075TIP3    H145420   6.230   1.556  12.386  1.8329  0.7839 -1.4980
 7075TIP3    H245421   6.192   1.419  12.334  2.5849 -0.3541  0.8155
 7076TIP3   OH245422   2.008   5.776  11.433  0.3694 -0.1986  0.2493
 7076TIP3    H145423   1.950   5.731  11.493 -1.0578  1.1808 -0.0429
 7076TIP3    H245424   2.051   5.705  11.384 -0.7097 -1.2538  0.7739
 7077TIP3   OH245425   0.235   4.622  10.777  0.0588  0.2357  0.8878
 7077TIP3    H145426   0.279   4.690  10.827 -1.5586  1.2457  1.0038
 7077TIP3    H245427   0.199   4.668  10.701 -1.3432 -0.4133  1.1402
 7078TIP3   OH245428   3.687   0.489  10.626  0.1574 -0.2939 -0.1643
 7078TIP3    H145429   3.709   0.431  10.554 -2.3300  0.5356 -1.6888
 7078TIP3    H245430   3.628   0.438  10.681 -0.1559  0.0021 -0.2249
 7079TIP3   OH245431   3.041   4.990  11.408  0.6585  0.2332 -0.4565
 7079TIP3    H145432   2.957   5.030  11.430  1.0257 -0.7963  3.5633
 7079TIP3    H245433   3.099   5.064  11.390 -0.5605  1.0553 -1.1239
 7080TIP3   OH245434   2.947   0.215  10.221 -0.0734 -0.1798 -0.2726
 7080TIP3    H145435   3.001   0.281  10.177 -0.7454  0.0717 -0.7465
 7080TIP3    H245436   3.009   0.162  10.270  0.7140 -0.5230 -1.5911
 7081TIP3   OH245437   1.962   1.261   9.710 -0.5493  0.2073 -0.2970
 7081TIP3    H145438   1.958   1.353   9.682  0.8867  0.0254 -1.1895
 7081TIP3    H245439   1.956   1.265   9.805 -0.1674  1.2660 -0.3031
 7082TIP3   OH245440   3.419   4.913  10.781  0.4247 -0.1747 -0.1378
 7082TIP3    H145441   3.419   4.897  10.875 -0.3587  2.9702  0.4956
 7082TIP3    H245442   3.347   4.860  10.748  0.5369 -1.1138  1.0564
 7083TIP3   OH245443   4.102   2.758  10.889  0.0405  0.3508 -0.0573
 7083TIP3    H145444   4.158   2.754  10.811  0.3889  0.5268  0.1792
 7083TIP3    H245445   4.024   2.708  10.865  0.8693 -1.0777  0.0688
 7084TIP3   OH245446   2.406   2.674  10.845  0.0342  0.4652 -0.1712
 7084TIP3    H145447   2.396   2.579  10.832 -1.2058  0.6553 -0.7470
 7084TIP3    H245448   2.317   2.705  10.862  0.0411  1.8459 -2.2518
 7085TIP3   OH245449   0.032   5.701  11.993 -0.1100 -0.7092 -0.3124
 7085TIP3    H145450   0.071   5.769  11.938  0.2835  0.3456  1.2224
 7085TIP3    H245451  -0.062   5.707  11.975 -0.1286  0.5563  0.1303
 7086TIP3   OH245452   2.309   1.123  12.026  0.6256 -0.1016  0.1802
 7086TIP3    H145453   2.293   1.211  12.062 -0.3697  0.1024 -0.7074
 7086TIP3    H245454   2.231   1.073  12.051  0.8619 -0.5289  0.0591
 7087TIP3   OH245455   2.103   5.025  10.991 -0.6112 -0.0544  0.5708
 7087TIP3    H145456   2.149   5.089  10.937 -3.5359  1.1228 -0.7530
 7087TIP3    H245457   2.165   4.953  11.002  0.8899  0.5837 -2.6618
 7088TIP3   OH245458   2.563   2.589   9.302  0.0301 -0.5547  0.0122
 7088TIP3    H145459   2.539   2.645   9.375 -1.4513  1.2156 -1.7119
 7088TIP3    H245460   2.646   2.625   9.270  0.2345 -0.7772  0.2954
 7089TIP3   OH245461   1.981   1.435  11.540  0.2735  0.2023 -0.4108
 7089TIP3    H145462   1.992   1.413  11.633  0.9061  2.5544  0.1423
 7089TIP3    H245463   2.070   1.456  11.511 -0.1086  0.7849 -1.1728
 7090TIP3   OH245464   3.318   1.137  10.997 -0.6536 -0.0475 -0.3089
 7090TIP3    H145465   3.277   1.219  11.022 -0.7363 -0.7064  1.8827
 7090TIP3    H245466   3.335   1.146  10.903  0.3772  2.8981  0.0838
 7091TIP3   OH245467   2.419   3.936  10.480 -0.2606  0.1128  0.1561
 7091TIP3    H145468   2.511   3.914  10.466  0.3509  1.3589  1.7924
 7091TIP3    H245469   2.421   4.027  10.512 -2.1178  0.3667 -0.3452
 7092TIP3   OH245470   3.547   1.393  10.595  0.1960  0.0647  0.1028
 7092TIP3    H145471   3.530   1.322  10.657  2.3365 -1.3595 -0.7859
 7092TIP3    H245472   3.504   1.365  10.514  0.2322  0.2593  0.0160
 7093TIP3   OH245473   1.451   1.146  10.537 -0.0484 -0.2183 -0.2904
 7093TIP3    H145474   1.381   1.116  10.596 -0.8608 -0.4160 -1.3156
 7093TIP3    H245475   1.460   1.239  10.557  1.3275 -0.7328  1.7486
 7094TIP3   OH245476   0.900   6.545  12.039  0.1444 -0.5991 -0.0802
 7094TIP3    H145477   0.939   6.480  11.981  0.0858  0.3831 -1.2446
 7094TIP3    H245478   0.841   6.494  12.095  3.0711 -2.1799  1.8573
 7095TIP3   OH245479   1.746   2.849  11.804 -0.2143  0.0293  0.3647
 7095TIP3    H145480   1.694   2.899  11.867 -1.7626 -0.9851 -0.0635
 7095TIP3    H245481   1.792   2.784  11.857 -0.4361  0.0571  0.5932
 7096TIP3   OH245482   1.047   2.747  12.274  0.5554 -0.1666  0.2237
 7096TIP3    H145483   1.020   2.700  12.353  0.2505  0.3795  0.4561
 7096TIP3    H245484   0.977   2.729  12.211  0.0619  0.5397  0.5446
 7097TIP3   OH245485   1.492   5.655  11.993 -0.3047  0.6918 -0.5240
 7097TIP3    H145486   1.507   5.608  11.911  0.3477  1.3808 -0.8130
 7097TIP3    H245487   1.522   5.595  12.061  0.0992  0.5073 -0.8621
 7098TIP3   OH245488   0.028   3.828   9.473 -0.1112 -0.2699  0.1672
 7098TIP3    H145489   0.047   3.809   9.565  0.2988  1.5118  0.4843
 7098TIP3    H245490   0.063   3.916   9.458 -2.3753  0.5394 -0.9957
 7099TIP3   OH245491   1.371   0.060  13.058  0.2430 -0.3845 -0.1338
 7099TIP3    H145492   1.445   0.060  13.118  1.0066 -0.6025 -1.0571
 7099TIP3    H245493   1.294   0.053  13.115  0.9384 -0.4300  0.8186
 7100TIP3   OH245494   2.271   5.058  11.791  0.2904 -0.3049  0.4014
 7100TIP3    H145495   2.274   5.042  11.885  1.9399  1.6013  0.7361
 7100TIP3    H245496   2.185   5.098  11.777 -0.0367 -0.7583  1.0722
 7101TIP3   OH245497   1.853   1.591  10.530  0.2121  0.5628  0.0252
 7101TIP3    H145498   1.921   1.541  10.573 -0.1638 -0.4669 -0.5495
 7101TIP3    H245499   1.773   1.541  10.546  0.0356  0.2584 -1.6777
 7102TIP3   OH245500   5.420   4.266  11.886  0.3499  0.4150 -0.3375
 7102TIP3    H145501   5.443   4.174  11.871 -0.0118  0.2145  0.3238
 7102TIP3    H245502   5.504   4.312  11.883  0.5126  0.0882 -0.8512
 7103TIP3   OH245503   3.834   6.075  10.132  0.1654  0.3822  0.6764
 7103TIP3    H145504   3.764   6.047  10.192  0.6085 -0.5178  0.7832
 7103TIP3    H245505   3.883   6.140  10.183  1.6694 -1.7186  2.0490
 7104TIP3   OH245506   5.997   1.606  10.363 -0.0983  0.0690 -0.2388
 7104TIP3    H145507   5.968   1.517  10.340  1.6949 -0.4288 -0.8083
 7104TIP3    H245508   6.081   1.592  10.408 -0.6495  1.3955  1.2701
 7105TIP3   OH245509   1.998   2.256  12.520  0.0467 -0.2592 -0.2322
 7105TIP3    H145510   2.012   2.222  12.609 -0.1746 -0.9637 -0.4576
 7105TIP3    H245511   2.016   2.181  12.463  0.7940  0.3536 -0.8247
 7106TIP3   OH245512   4.019   4.551  11.790 -0.0144  0.0206 -0.0118
 7106TIP3    H145513   3.984   4.466  11.818 -1.1100  0.3184 -0.4119
 7106TIP3    H245514   4.032   4.599  11.871  0.4260 -0.4523  0.2071
 7107TIP3   OH245515   0.808   5.667  12.634 -0.3107  0.2326 -0.7512
 7107TIP3    H145516   0.833   5.578  12.658 -2.0170 -0.3782 -1.1179
 7107TIP3    H245517   0.891   5.713  12.624  0.5839 -0.8677  1.0463
 7108TIP3   OH245518   6.453   5.585  11.414 -0.7603  0.3700  0.3894
 7108TIP3    H145519   6.520   5.567  11.480 -0.2950  1.4518  0.2229
 7108TIP3    H245520   6.469   5.520  11.345 -0.1602  0.3490  0.5442
 7109TIP3   OH245521   5.121   0.967  11.467 -0.3432  0.0050 -0.0675
 7109TIP3    H145522   5.060   0.925  11.406  0.4555 -1.2157 -0.0578
 7109TIP3    H245523   5.072   0.976  11.548 -1.1272  0.8241 -0.6087
 7110TIP3   OH245524   6.391   2.217  12.681  0.0448 -0.2558 -0.2141
 7110TIP3    H145525   6.297   2.211  12.699  0.1224  1.7462  1.2607
 7110TIP3    H245526   6.420   2.293  12.731  2.9040 -2.0737  1.1705
 7111TIP3   OH245527   1.583   6.204  13.153 -0.1050  0.2537  0.3356
 7111TIP3    H145528   1.543   6.140  13.212  0.9847 -1.1958 -0.4380
 7111TIP3    H245529   1.615   6.273  13.211 -0.6451 -0.2554  1.2660
 7112TIP3   OH245530   3.737   0.762  12.490  0.0502 -0.5096  0.2184
 7112TIP3    H145531   3.766   0.853  12.484 -1.5403  0.1709  1.9277
 7112TIP3    H245532   3.775   0.731  12.572 -1.0123 -0.7384  0.6368
 7113TIP3   OH245533   6.038   6.364  11.941  0.1700  0.6558 -0.1566
 7113TIP3    H145534   5.974   6.432  11.961 -0.2561  0.5062 -0.9589
 7113TIP3    H245535   6.024   6.297  12.007  0.2585  1.1238  0.3427
 7114TIP3   OH245536   5.908   4.857  12.601 -0.7326  0.2162  0.4910
 7114TIP3    H145537   5.884   4.804  12.677  0.2181  0.4426  0.9699
 7114TIP3    H245538   6.004   4.852  12.598 -0.7541  0.2151 -0.6950
 7115TIP3   OH245539   5.882   2.704  11.567  0.3281  0.2289 -0.0596
 7115TIP3    H145540   5.843   2.671  11.487  0.3818 -0.2934  0.1208
 7115TIP3    H245541   5.941   2.633  11.595  1.6697  1.1277 -0.5183
 7116TIP3   OH245542   5.307   0.738  10.561  0.1155 -0.0505  0.1783
 7116TIP3    H145543   5.299   0.696  10.647  0.0012 -0.4991 -0.0511
 7116TIP3    H245544   5.355   0.675  10.508  0.8581  0.5432  0.1237
 7117TIP3   OH245545   1.699   6.606  10.868  0.2804 -0.3360 -0.2871
 7117TIP3    H145546   1.629   6.671  10.873  0.8676  0.4268 -1.5408
 7117TIP3    H245547   1.682   6.558  10.787 -0.1864 -1.8352  0.6579
 7118TIP3   OH245548   1.289   2.640   9.472  0.4153 -0.0713 -0.1773
 7118TIP3    H145549   1.201   2.600   9.470  0.8629 -1.1273 -3.0989
 7118TIP3    H245550   1.326   2.612   9.556 -1.7416 -0.1904  0.8038
 7119TIP3   OH245551   6.272   6.080  10.008 -0.1239  0.0039 -0.2712
 7119TIP3    H145552   6.277   6.088  10.103  0.7129 -0.3376 -0.2741
 7119TIP3    H245553   6.193   6.128   9.983 -0.2563  0.2342  0.5785
 7120TIP3   OH245554   3.243   5.382  10.251 -0.4710 -0.1965  0.4882
 7120TIP3    H145555   3.299   5.444  10.298  0.4134  0.4207 -1.2489
 7120TIP3    H245556   3.299   5.349  10.180 -1.7911 -0.9035 -0.2675
 7121TIP3   OH245557   3.548   2.863  10.239  0.1373 -0.4501  0.0170
 7121TIP3    H145558   3.635   2.901  10.223  0.4815  0.1865  2.8490
 7121TIP3    H245559   3.499   2.934  10.280 -1.1036 -1.4026  0.2246
 7122TIP3   OH245560   6.487   3.082  11.201 -0.4765  0.1474 -0.1442
 7122TIP3    H145561   6.511   3.163  11.248  0.1053 -0.7622  1.2032
 7122TIP3    H245562   6.569   3.035  11.191 -0.9321 -0.6617 -0.1614
 7123TIP3   OH245563   0.158   1.805  11.476  0.0181  0.4707 -0.0530
 7123TIP3    H145564   0.162   1.729  11.534  0.0071  0.8208  0.4105
 7123TIP3    H245565   0.155   1.767  11.388  3.0342 -0.0622 -0.0334
 7124TIP3   OH245566   5.268   5.485  11.461  0.6971 -0.0450  0.2239
 7124TIP3    H145567   5.236   5.402  11.425 -0.5239  0.2384  0.6048
 7124TIP3    H245568   5.338   5.459  11.520 -0.0749 -0.8885  0.8119
 7125TIP3   OH245569   3.487   1.028  11.990  0.1841 -0.0613 -0.0243
 7125TIP3    H145570   3.521   1.026  12.079 -1.0233 -1.1164  0.4530
 7125TIP3    H245571   3.549   0.977  11.939  0.9008  0.5804  0.1903
 7126TIP3   OH245572   2.660   1.145   9.827 -0.5758  0.2245  0.2041
 7126TIP3    H145573   2.714   1.090   9.770 -0.3551 -0.5395  1.1350
 7126TIP3    H245574   2.571   1.113   9.814 -0.5534  0.1901  0.1353
 7127TIP3   OH245575   3.652   3.203   9.505  0.5875 -0.0899  0.2002
 7127TIP3    H145576   3.710   3.190   9.580  0.8729 -1.3175 -0.2041
 7127TIP3    H245577   3.645   3.298   9.496 -0.0417  0.0952  2.2043
 7128TIP3   OH245578   0.831   2.605  11.546 -0.4095  0.0944 -0.5228
 7128TIP3    H145579   0.745   2.565  11.537 -1.0970  1.1807  0.9015
 7128TIP3    H245580   0.833   2.638  11.636  1.9820 -1.0348 -0.0802
 7129TIP3   OH245581   4.766   3.291  11.700 -0.1193 -0.4300  0.2419
 7129TIP3    H145582   4.749   3.360  11.636  3.7513  1.1624  0.5860
 7129TIP3    H245583   4.819   3.335  11.767 -0.7943 -2.9153  2.5557
 7130TIP3   OH245584   2.727   6.134  11.488 -0.0527  0.0208 -0.0703
 7130TIP3    H145585   2.819   6.159  11.490 -0.4471  1.5581  0.1862
 7130TIP3    H245586   2.707   6.107  11.577  0.1633 -0.4304 -0.1534
 7131TIP3   OH245587   2.681   1.917   9.764  0.0510 -0.1398 -0.3232
 7131TIP3    H145588   2.709   1.946   9.677 -0.5989  0.6095 -0.2991
 7131TIP3    H245589   2.639   1.994   9.803  0.4811 -0.4066  0.7262
 7132TIP3   OH245590   1.700   3.094  12.497  0.1971  0.4822  0.5644
 7132TIP3    H145591   1.697   3.161  12.564  1.1612  0.9388  0.1721
 7132TIP3    H245592   1.792   3.091  12.470 -0.1983  0.4520 -0.8684
 7133TIP3   OH245593   3.287   0.043  11.698  0.1474  0.6292  0.0556
 7133TIP3    H145594   3.225   0.022  11.628  0.3329 -0.9990  0.3266
 7133TIP3    H245595   3.341   0.113  11.662  0.8919 -0.8346 -1.8679
 7134TIP3   OH245596   0.149   3.513  12.815 -0.7821 -0.2851  0.5391
 7134TIP3    H145597   0.139   3.598  12.856  1.8876  1.1824 -1.4935
 7134TIP3    H245598   0.198   3.461  12.879 -0.3984  0.5238  0.9183
 7135TIP3   OH245599   0.802   0.078  12.578 -0.2996  0.4775  0.2228
 7135TIP3    H145600   0.798   0.136  12.502 -0.5494 -0.5107 -0.5342
 7135TIP3    H245601   0.715   0.037  12.582 -0.1228  0.1391  0.7370
 7136TIP3   OH245602   5.768   4.387   9.672  0.8994  0.4688  0.7162
 7136TIP3    H145603   5.688   4.387   9.724  0.0870  1.1689 -0.4961
 7136TIP3    H245604   5.820   4.315   9.709 -0.7200 -0.6836  0.8687
 7137TIP3   OH245605   1.171   4.856  12.387 -0.2387 -0.1573  0.6470
 7137TIP3    H145606   1.104   4.889  12.447 -1.2461 -1.1627  0.1126
 7137TIP3    H245607   1.124   4.837  12.306  0.9023  0.1487 -0.1118
 7138TIP3   OH245608   3.868   6.201  11.627 -0.2023 -0.7349  0.3905
 7138TIP3    H145609   3.952   6.210  11.672 -0.1699  0.7059  0.0718
 7138TIP3    H245610   3.829   6.288  11.630 -1.3170 -1.1902 -0.2056
 7139TIP3   OH245611   0.771   4.098  12.178 -0.4025  0.2081 -0.4474
 7139TIP3    H145612   0.695   4.040  12.183 -0.9391  0.7776 -1.5415
 7139TIP3    H245613   0.829   4.068  12.248 -1.5629 -0.3297  0.3092
 7140TIP3   OH245614   0.605   3.375  13.592  0.0734  0.2766  0.0948
 7140TIP3    H145615   0.680   3.429  13.565  0.8428 -1.0834 -0.5558
 7140TIP3    H245616   0.626   3.287  13.561 -2.1069 -0.0226 -0.6864
 7141TIP3   OH245617   0.067   4.913  10.773  0.4391 -0.1601 -0.1561
 7141TIP3    H145618   0.018   4.844  10.728 -0.5700 -0.4004  1.2569
 7141TIP3    H245619   0.145   4.868  10.807 -0.0600 -0.5385  0.4984
 7142TIP3   OH245620   3.780   2.001  11.526 -0.1518 -0.1427 -0.1547
 7142TIP3    H145621   3.695   1.998  11.570 -0.0406 -1.0597  0.0030
 7142TIP3    H245622   3.842   2.023  11.596 -0.2533  0.5624 -0.2759
 7143TIP3   OH245623   2.601   1.568  11.233  0.3893 -0.2456 -0.2879
 7143TIP3    H145624   2.523   1.513  11.242 -0.1512  0.4590 -0.5750
 7143TIP3    H245625   2.666   1.527  11.289  0.1238 -1.4075 -0.7980
 7144TIP3   OH245626   4.476   0.733  11.229  0.3277 -0.0677  0.3962
 7144TIP3    H145627   4.428   0.790  11.169  1.7762  0.4096 -0.3460
 7144TIP3    H245628   4.476   0.648  11.185 -0.3211 -0.2217  0.6781
 7145TIP3   OH245629   3.461   5.497  12.263  0.5021  0.0252 -0.4093
 7145TIP3    H145630   3.483   5.563  12.197 -0.6876  1.7179  0.8018
 7145TIP3    H245631   3.366   5.491  12.261  0.5246 -0.7867  0.3091
 7146TIP3   OH245632   6.075   4.102  10.079 -0.0288  0.3857  0.3518
 7146TIP3    H145633   6.024   4.156  10.139 -1.4882 -0.4160 -0.1220
 7146TIP3    H245634   6.079   4.152   9.998  0.2444  0.6007  0.4965
 7147TIP3   OH245635   5.161   3.141  10.451  0.5750 -0.1859  0.0818
 7147TIP3    H145636   5.205   3.224  10.431  1.6183 -0.3775  1.4431
 7147TIP3    H245637   5.068   3.161  10.447  0.8034  0.8202 -0.5047
 7148TIP3   OH245638   5.796   0.818  11.815  0.1690  0.0946  0.1936
 7148TIP3    H145639   5.868   0.867  11.856  0.6087  0.1252 -0.5920
 7148TIP3    H245640   5.717   0.864  11.843  0.3571 -0.6401  2.0216
 7149TIP3   OH245641   1.488   4.533  12.237 -0.1269  0.4446 -0.2227
 7149TIP3    H145642   1.478   4.628  12.243  0.7706  0.6397 -1.2926
 7149TIP3    H245643   1.467   4.501  12.324 -1.5337  1.5117 -0.1412
 7150TIP3   OH245644   4.659   0.876  10.275 -0.2790  0.2491  0.1660
 7150TIP3    H145645   4.611   0.796  10.293  0.5828 -1.1188 -3.0103
 7150TIP3    H245646   4.751   0.851  10.280  0.0051  0.7433 -1.7153
 7151TIP3   OH245647   6.450   1.369  11.243  0.1420 -0.4100  0.3384
 7151TIP3    H145648   6.535   1.408  11.264  0.6714 -1.2625 -0.1571
 7151TIP3    H245649   6.441   1.381  11.149 -0.1861 -0.5012  0.3590
 7152TIP3   OH245650   1.851   4.264  10.477  0.4660 -0.2393  0.2282
 7152TIP3    H145651   1.779   4.225  10.428 -0.6668 -1.1921  2.4770
 7152TIP3    H245652   1.923   4.201  10.467  0.8480  0.4293 -1.5503
 7153TIP3   OH245653   1.430   1.476  12.344 -0.4992  0.4637  0.5068
 7153TIP3    H145654   1.405   1.431  12.264 -0.4832  1.3931 -0.0397
 7153TIP3    H245655   1.355   1.532  12.365 -0.0900  1.0143  0.5404
 7154TIP3   OH245656   1.427   1.213  10.856 -0.0339  0.7576  0.1684
 7154TIP3    H145657   1.369   1.174  10.921  0.4518  0.5501  0.4778
 7154TIP3    H245658   1.462   1.292  10.898  0.5470  0.4389  0.2956
 7155TIP3   OH245659   2.791   2.882  10.332 -0.2289 -0.0438  0.6386
 7155TIP3    H145660   2.747   2.823  10.394 -2.1145  0.0697 -0.5331
 7155TIP3    H245661   2.748   2.966  10.344 -0.9216 -0.1195 -1.1019
 7156TIP3   OH245662   1.004   0.126  12.186 -0.5008 -0.4206  0.2719
 7156TIP3    H145663   0.984   0.061  12.118 -0.1114 -0.1669 -0.0914
 7156TIP3    H245664   1.092   0.157  12.164 -0.5021 -0.0990  0.7084
 7157TIP3   OH245665   0.828   4.006  10.394  0.1153 -0.0318 -0.1103
 7157TIP3    H145666   0.758   4.056  10.352 -0.0414 -0.0351  0.1467
 7157TIP3    H245667   0.869   3.957  10.322  2.5470  3.0606 -1.0747
 7158TIP3   OH245668   3.444   2.850  11.765  0.4212  0.1225  0.2792
 7158TIP3    H145669   3.363   2.848  11.816  0.3418  0.8934  0.1984
 7158TIP3    H245670   3.513   2.852  11.831  0.3740 -0.3895  0.3497
 7159TIP3   OH245671   5.347   0.323  12.881 -0.3949 -0.2760 -0.2736
 7159TIP3    H145672   5.376   0.234  12.861  1.8694  0.0480  1.2226
 7159TIP3    H245673   5.275   0.312  12.943 -1.7835 -1.0533 -1.9284
 7160TIP3   OH245674   2.378   5.654  10.655 -0.0697 -0.2314 -0.1320
 7160TIP3    H145675   2.290   5.677  10.686 -0.3687  0.5454 -1.4652
 7160TIP3    H245676   2.364   5.620  10.567  0.9167 -0.6648 -0.1317
 7161TIP3   OH245677   3.472   1.193  12.411 -0.4405  0.2290  0.1043
 7161TIP3    H145678   3.545   1.229  12.462  0.1354 -1.0274  0.1991
 7161TIP3    H245679   3.435   1.125  12.467 -1.0607  0.1737 -0.3612
 7162TIP3   OH245680   1.966   4.514  10.388 -0.0630 -0.3095 -0.2717
 7162TIP3    H145681   1.926   4.439  10.431  1.8278 -1.9392 -1.1647
 7162TIP3    H245682   2.039   4.476  10.338  0.1183  1.9654 -1.8540
 7163TIP3   OH245683   0.388   5.688  10.876  0.4508 -0.4667 -0.0813
 7163TIP3    H145684   0.379   5.692  10.971  0.2728 -0.6278 -0.0906
 7163TIP3    H245685   0.298   5.685  10.844  0.5193 -1.0363 -0.2293
 7164TIP3   OH245686   1.219   1.980  10.874 -0.3864 -0.0370  0.7853
 7164TIP3    H145687   1.153   1.940  10.931  0.9915 -1.4530  1.4847
 7164TIP3    H245688   1.169   2.022  10.805 -2.1205  1.2241  2.6763
 7165TIP3   OH245689   5.939   1.900  11.512 -0.1704  0.1780  0.2074
 7165TIP3    H145690   6.024   1.905  11.469  0.6163 -0.0648  1.6796
 7165TIP3    H245691   5.876   1.911  11.441  1.0707  2.8183 -0.6133
 7166TIP3   OH245692   3.910   3.823  10.311 -0.1395  0.8082 -0.0439
 7166TIP3    H145693   3.937   3.836  10.220  2.0738 -0.5128  0.3351
 7166TIP3    H245694   3.923   3.908  10.352 -2.6827  1.8581 -1.2331
 7167TIP3   OH245695   1.466   1.995  12.709  0.7013  0.5222  0.2091
 7167TIP3    H145696   1.559   1.974  12.697  0.2908 -2.5153  1.2940
 7167TIP3    H245697   1.456   2.010  12.803 -0.1996 -1.6640  0.5441
 7168TIP3   OH245698   4.679   5.059   9.566 -0.3600 -0.5442  0.2651
 7168TIP3    H145699   4.711   4.975   9.599  1.6694 -0.1499 -0.5460
 7168TIP3    H245700   4.758   5.108   9.544 -1.5163  1.2883 -0.0328
 7169TIP3   OH245701   6.420   5.034  10.812  0.4536  0.0820 -0.6620
 7169TIP3    H145702   6.515   5.021  10.810  0.6347 -0.5368  3.3274
 7169TIP3    H245703   6.384   4.946  10.818 -0.1009  0.3784  0.8095
 7170TIP3   OH245704   1.566   2.481  10.854 -0.4928 -0.1592  0.1040
 7170TIP3    H145705   1.576   2.443  10.941 -0.8257 -0.2524  0.1023
 7170TIP3    H245706   1.642   2.539  10.844  0.3926 -1.3190 -0.1499
 7171TIP3   OH245707   0.044   3.503   9.689 -0.1651 -0.5913 -0.4268
 7171TIP3    H145708   0.139   3.505   9.680 -0.2356 -0.0375 -1.2244
 7171TIP3    H245709   0.016   3.593   9.667 -0.9198 -0.9442 -0.9809
 7172TIP3   OH245710   2.485   4.858  11.516 -0.0128  0.3413  0.5211
 7172TIP3    H145711   2.417   4.829  11.578 -1.6831  0.0169 -1.3508
 7172TIP3    H245712   2.459   4.819  11.433  3.1759 -0.7559 -0.0780
 7173TIP3   OH245713   0.932   0.391  12.026  0.5095  0.3271  0.7345
 7173TIP3    H145714   0.985   0.321  12.064 -1.1190 -0.0795  2.4123
 7173TIP3    H245715   0.844   0.354  12.021  0.2328  1.1330 -1.5470
 7174TIP3   OH245716   1.561   5.474  12.848 -0.4852 -0.0523  0.0775
 7174TIP3    H145717   1.509   5.448  12.924  0.0523 -0.3220  0.3633
 7174TIP3    H245718   1.572   5.568  12.858 -2.4559  0.3234 -0.9690
 7175TIP3   OH245719   0.538   2.957  11.372 -0.0969  0.5954  0.4505
 7175TIP3    H145720   0.559   3.044  11.405  0.2909 -0.3805  2.9840
 7175TIP3    H245721   0.622   2.920  11.345 -0.2043  0.8342 -0.2287
 7176TIP3   OH245722   4.611   4.728  12.616 -0.3782  0.0335  0.2813
 7176TIP3    H145723   4.631   4.772  12.534  1.5825 -0.5421  0.3890
 7176TIP3    H245724   4.563   4.649  12.590 -1.8648  1.0179 -0.0827
 7177TIP3   OH245725   1.770   4.518  10.159  0.7592 -0.2839  0.4467
 7177TIP3    H145726   1.681   4.528  10.125  1.1761  2.6934 -0.0431
 7177TIP3    H245727   1.789   4.424  10.149 -2.1847 -0.9631  0.3272
 7178TIP3   OH245728   5.320   4.469   9.919 -0.2488 -0.7209  0.4279
 7178TIP3    H145729   5.308   4.406   9.989 -1.4453  0.4140  1.2926
 7178TIP3    H245730   5.246   4.529   9.928  0.6731  0.6179 -0.5498
 7179TIP3   OH245731   2.195   6.020  12.077 -0.8475  0.5792 -0.4670
 7179TIP3    H145732   2.265   6.064  12.029 -0.1308 -0.3927 -0.3411
 7179TIP3    H245733   2.151   5.966  12.011 -0.1059 -0.4586 -0.1353
 7180TIP3   OH245734   6.521   1.594  10.192 -0.3552 -0.0431 -0.1063
 7180TIP3    H145735   6.493   1.515  10.145 -0.6446 -0.0509  0.0733
 7180TIP3    H245736   6.606   1.615  10.155 -0.1949 -0.5443 -0.0390
 7181TIP3   OH245737   3.411   6.377  10.807  0.1041 -0.7861  0.1420
 7181TIP3    H145738   3.324   6.343  10.827  0.3446 -0.7667  1.3464
 7181TIP3    H245739   3.468   6.300  10.810  0.1972 -0.7297 -0.1653
 7182TIP3   OH245740   0.162   3.479  13.495 -0.1433  0.2066  0.5438
 7182TIP3    H145741   0.083   3.487  13.549  0.0749  1.3213  0.7214
 7182TIP3    H245742   0.180   3.568  13.465  0.1207 -0.2946 -0.8436
 7183TIP3   OH245743   6.025   2.486  11.645 -0.2529 -0.2947 -0.3850
 7183TIP3    H145744   6.006   2.395  11.623 -0.1309 -0.4151 -0.0008
 7183TIP3    H245745   6.114   2.485  11.680  0.7600  0.3628 -2.7455
 7184TIP3   OH245746   2.928   3.699  10.511 -0.4838 -0.3823 -0.2435
 7184TIP3    H145747   2.933   3.645  10.432  2.0628  1.0320 -1.1768
 7184TIP3    H245748   2.977   3.650  10.576  2.2432  0.8359 -1.2256
 7185TIP3   OH245749   0.087   5.054  10.230 -0.2301  0.1141  0.2397
 7185TIP3    H145750   0.044   5.138  10.240  1.8789  1.3090 -0.0985
 7185TIP3    H245751   0.144   5.047  10.307  0.8560 -0.1959 -0.5713
 7186TIP3   OH245752   5.873   1.428  12.472  0.3931  0.1313 -0.5335
 7186TIP3    H145753   5.786   1.449  12.504  0.4417  0.8002 -0.8204
 7186TIP3    H245754   5.913   1.513  12.455 -0.1856 -0.1516 -3.8756
 7187TIP3   OH245755   2.320   3.196   9.687 -0.1794 -0.2680 -0.2056
 7187TIP3    H145756   2.339   3.270   9.744  0.4951 -0.8069  0.2877
 7187TIP3    H245757   2.304   3.235   9.601  0.7197  0.4075 -0.0763
 7188TIP3   OH245758   4.713   1.613   9.877 -0.1765  0.2820 -0.3655
 7188TIP3    H145759   4.807   1.603   9.867  0.0396  1.3268  0.5556
 7188TIP3    H245760   4.701   1.661   9.959 -1.5579 -0.8774  0.1748
 7189TIP3   OH245761   0.300   3.225  12.879 -0.5357 -0.2967  0.1554
 7189TIP3    H145762   0.373   3.241  12.939 -1.0182 -0.5155  0.8171
 7189TIP3    H245763   0.228   3.197  12.936 -0.2371 -3.2157 -0.7580
 7190TIP3   OH245764   2.102   1.650   9.902 -0.1181 -0.0025  0.4473
 7190TIP3    H145765   2.177   1.602   9.938  0.2708  0.3954  0.1784
 7190TIP3    H245766   2.139   1.703   9.832 -1.1126 -1.9987 -1.7049
 7191TIP3   OH245767   6.353   5.897  12.686  0.5435  0.2889  0.0535
 7191TIP3    H145768   6.336   5.808  12.715  2.6244 -0.0735  0.3417
 7191TIP3    H245769   6.308   5.904  12.602 -0.4912 -0.6733  0.5102
 7192TIP3   OH245770   2.858   1.522  10.282 -0.4553 -0.5690  0.2414
 7192TIP3    H145771   2.922   1.591  10.301  0.2403 -0.6370 -1.5951
 7192TIP3    H245772   2.778   1.569  10.259  0.0074 -0.3326 -0.9756
 7193TIP3   OH245773   6.500   3.428  10.687  0.0031 -0.5873 -0.1944
 7193TIP3    H145774   6.433   3.491  10.661  1.1196  0.4184 -0.7791
 7193TIP3    H245775   6.576   3.483  10.709  0.4285 -1.6492  1.0998
 7194TIP3   OH245776   5.951   5.555   9.803 -0.2913 -0.8443  0.2667
 7194TIP3    H145777   6.023   5.498   9.776 -0.5036 -0.3781 -1.3575
 7194TIP3    H245778   5.990   5.613   9.869  0.4526 -1.5079  0.4193
 7195TIP3   OH245779   2.238   5.930   9.871 -0.3051  0.2311 -0.4180
 7195TIP3    H145780   2.166   5.871   9.890  0.9170 -1.2297 -0.1275
 7195TIP3    H245781   2.256   5.974   9.953 -2.0616  2.0622 -0.9341
 7196TIP3   OH245782   2.081   1.245  12.262  0.6855  0.1303 -0.4138
 7196TIP3    H145783   2.023   1.301  12.312 -2.6357 -2.1164 -1.4245
 7196TIP3    H245784   2.123   1.304  12.199 -2.0332  1.6810 -0.9172
 7197TIP3   OH245785   6.621   1.637  12.044  0.1829  0.3364  0.5035
 7197TIP3    H145786   6.714   1.631  12.062  0.3569  0.4694 -0.3038
 7197TIP3    H245787   6.607   1.580  11.968 -0.6266 -0.6921  1.3829
 7198TIP3   OH245788   3.248   2.686  11.498  0.0823 -0.1275  0.2679
 7198TIP3    H145789   3.342   2.669  11.491  0.0508  0.0184 -0.6238
 7198TIP3    H245790   3.217   2.621  11.561  1.1022  1.1567  2.1950
 7199TIP3   OH245791   0.529   1.696  11.599 -0.0994 -0.9532 -0.1074
 7199TIP3    H145792   0.471   1.767  11.571  1.7675  0.4983 -0.5488
 7199TIP3    H245793   0.569   1.665  11.518  3.0390  1.1895  0.4358
 7200TIP3   OH245794   2.707   1.316  10.057  0.3100 -0.1603  0.1543
 7200TIP3    H145795   2.653   1.354   9.988 -0.6044 -0.5411  0.6361
 7200TIP3    H245796   2.787   1.288  10.013 -0.1298 -0.1141 -0.6920
 7201TIP3   OH245797   0.385   0.710  12.958  0.3771 -0.0776 -0.1199
 7201TIP3    H145798   0.445   0.756  13.017 -2.4424  2.3770  1.1116
 7201TIP3    H245799   0.367   0.773  12.889 -0.8025 -0.7208 -0.4227
 7202TIP3   OH245800   6.105   4.950  12.275  0.1695  0.1602  0.1835
 7202TIP3    H145801   6.126   4.857  12.285 -3.9618 -0.8358  1.5320
 7202TIP3    H245802   6.155   4.993  12.343  2.5161 -0.9108 -0.7413
 7203TIP3   OH245803   2.456   3.402  11.262 -0.0425  0.3230 -0.0968
 7203TIP3    H145804   2.382   3.436  11.212 -0.5776  1.4072  1.3433
 7203TIP3    H245805   2.511   3.479  11.279  0.2179 -0.0440  0.8049
 7204TIP3   OH245806   1.977   4.278  11.420 -0.1649 -0.2509 -0.3346
 7204TIP3    H145807   1.931   4.319  11.493 -0.7221 -0.5509 -0.5126
 7204TIP3    H245808   1.957   4.334  11.344  1.5753  0.8802 -0.0138
 7205TIP3   OH245809   5.644   1.752  10.801 -0.2864  0.1272 -0.2708
 7205TIP3    H145810   5.682   1.739  10.714  0.6391 -0.4673  0.2083
 7205TIP3    H245811   5.698   1.698  10.859 -1.8950 -0.7818  0.4419
 7206TIP3   OH245812   0.019   6.409  12.689  0.1700  0.1390  0.2608
 7206TIP3    H145813  -0.039   6.336  12.708 -0.5864 -0.1107 -2.5422
 7206TIP3    H245814  -0.037   6.474  12.647  1.5752  0.5407 -1.1265
 7207TIP3   OH245815   0.713   3.153  10.332  0.1068 -0.1560  0.7008
 7207TIP3    H145816   0.682   3.234  10.371 -0.2309  0.1357 -0.1416
 7207TIP3    H245817   0.674   3.152  10.244  1.2619 -0.5276  0.1695
 7208TIP3   OH245818   0.524   3.636  12.547 -0.0891 -0.4447 -0.8051
 7208TIP3    H145819   0.502   3.627  12.455 -2.5769  0.1351 -0.3440
 7208TIP3    H245820   0.482   3.562  12.589 -0.6853  0.3847  0.0989
 7209TIP3   OH245821   1.050   2.796  11.884  0.5305  0.6191  0.2830
 7209TIP3    H145822   1.125   2.737  11.878  0.0523  0.0634 -0.3007
 7209TIP3    H245823   0.974   2.742  11.863  0.1855  1.6548 -1.3568
 7210TIP3   OH245824   3.197   3.498  11.428 -0.1599  0.1277  0.9508
 7210TIP3    H145825   3.258   3.453  11.487  1.0130 -0.2191 -0.4789
 7210TIP3    H245826   3.182   3.436  11.357  0.9078  1.6928 -0.7061
 7211TIP3   OH245827   4.604   1.921  10.821  0.0047  0.4263 -0.2842
 7211TIP3    H145828   4.620   1.919  10.726 -2.6030  0.3693 -0.7982
 7211TIP3    H245829   4.566   1.836  10.841 -2.1086  1.4266  0.2181
 7212TIP3   OH245830   1.159   0.012  10.314 -0.4983  0.0668  0.4532
 7212TIP3    H145831   1.096   0.068  10.359 -0.8416 -0.1888  0.2993
 7212TIP3    H245832   1.153  -0.072  10.359 -0.2362  0.0519  0.4621
 7213TIP3   OH245833   2.661   6.417  12.468 -0.3321  0.0411 -0.6031
 7213TIP3    H145834   2.605   6.403  12.544 -2.0032 -0.9141 -1.9366
 7213TIP3    H245835   2.726   6.347  12.472 -0.6429 -0.2320 -0.2446
 7214TIP3   OH245836   3.766   1.547  11.940 -0.2167  0.1461  0.0385
 7214TIP3    H145837   3.774   1.621  11.880  1.7358  0.5791  0.7484
 7214TIP3    H245838   3.775   1.469  11.885  0.7566  0.5148 -0.3391
 7215TIP3   OH245839   1.887   5.871  10.575  0.0209  0.1894  0.1077
 7215TIP3    H145840   1.840   5.925  10.511  2.3033  0.6744 -1.2322
 7215TIP3    H245841   1.927   5.801  10.524  2.7270  1.1481  0.7400
 7216TIP3   OH245842   2.188   5.387  12.281  0.5932 -0.4758  0.2268
 7216TIP3    H145843   2.267   5.409  12.330 -0.1862 -1.7198  2.1993
 7216TIP3    H245844   2.123   5.451  12.311  0.4947 -0.3092 -0.3381
 7217TIP3   OH245845   5.666   5.606  13.619 -0.2337  0.1033 -0.4022
 7217TIP3    H145846   5.747   5.587  13.667 -1.1478 -1.9661  0.4600
 7217TIP3    H245847   5.696   5.633  13.532  1.4218 -1.7022 -0.4780
 7218TIP3   OH245848   6.271   0.450  11.191  0.0699  0.1594 -0.3043
 7218TIP3    H145849   6.234   0.539  11.193 -0.9145 -0.2258  1.7593
 7218TIP3    H245850   6.364   0.463  11.207 -0.0522  0.8235 -0.0758
 7219TIP3   OH245851   1.263   2.677  12.104  0.1894  0.8181  0.2385
 7219TIP3    H145852   1.267   2.582  12.110  3.5771  0.8573  0.4686
 7219TIP3    H245853   1.218   2.705  12.184  1.7144 -0.5190  1.6258
 7220TIP3   OH245854   4.951   1.291  10.865 -0.2419  0.0514  0.3139
 7220TIP3    H145855   4.947   1.300  10.770 -0.3610 -0.6547  0.2438
 7220TIP3    H245856   5.037   1.251  10.881  1.1558  3.0032  0.7610
 7221TIP3   OH245857   2.201   2.509  11.553  0.4095  0.3170  0.0355
 7221TIP3    H145858   2.159   2.580  11.602  0.8520  0.5926  0.0154
 7221TIP3    H245859   2.218   2.442  11.619 -1.1822 -0.3242 -0.1647
 7222TIP3   OH245860   5.495   2.231   9.802  0.5736  0.4688 -0.2738
 7222TIP3    H145861   5.556   2.233   9.728 -0.1525  1.4522 -0.8823
 7222TIP3    H245862   5.427   2.295   9.778 -0.8793 -0.8175  0.2050
 7223TIP3   OH245863   4.677   1.005  11.667  0.8641 -0.5384 -0.3337
 7223TIP3    H145864   4.647   1.042  11.584  2.0456 -0.7687 -0.8867
 7223TIP3    H245865   4.598   1.000  11.721  0.3012  0.7618 -1.0005
 7224TIP3   OH245866   5.443   6.075  10.324  0.3905 -0.1167 -0.0984
 7224TIP3    H145867   5.376   6.097  10.260  2.0115 -0.5492 -2.0408
 7224TIP3    H245868   5.458   5.981  10.313  0.7113 -0.2083  0.9239
 7225TIP3   OH245869   2.129   5.120   9.351 -0.5764 -0.1887  0.1728
 7225TIP3    H145870   2.191   5.110   9.279 -0.1406 -0.8194  0.6242
 7225TIP3    H245871   2.046   5.144   9.309  0.5722  3.5566 -0.2912
 7226TIP3   OH245872   5.183   0.728  12.176  0.3940 -0.5171  0.0791
 7226TIP3    H145873   5.108   0.697  12.226 -0.1867  0.2954 -0.2622
 7226TIP3    H245874   5.216   0.802  12.227 -0.9065  1.0682 -1.2446
 7227TIP3   OH245875   4.098   3.240  11.893  0.7475 -0.1184 -0.0645
 7227TIP3    H145876   4.082   3.226  11.800  0.3878 -1.3623  0.1640
 7227TIP3    H245877   4.110   3.152  11.929  0.8326  0.3369  1.0735
 7228TIP3   OH245878   1.832   3.165  10.062  0.0329 -0.2956 -0.0283
 7228TIP3    H145879   1.922   3.191  10.081  0.3573 -0.1317 -1.6255
 7228TIP3    H245880   1.837   3.122   9.977 -1.2197 -1.4365  0.4361
 7229TIP3   OH245881   1.389   0.715  13.094 -0.1650  0.3972  0.1616
 7229TIP3    H145882   1.384   0.623  13.118 -2.5661  0.0966 -1.1733
 7229TIP3    H245883   1.386   0.762  13.177  2.1366 -0.6545  0.9372
 7230TIP3   OH245884   3.044   5.791  10.647  0.1839  0.0656  0.6965
 7230TIP3    H145885   3.025   5.867  10.702 -0.4790  0.8056 -0.5139
 7230TIP3    H245886   2.958   5.762  10.616  0.5884  0.1737 -0.5816
 7231TIP3   OH245887   6.205   5.662  11.332 -0.3904 -0.0337  0.7978
 7231TIP3    H145888   6.285   5.634  11.378 -0.5745  1.2326  1.9821
 7231TIP3    H245889   6.230   5.743  11.288 -1.2376  0.9305  2.0121
 7232TIP3   OH245890   3.705   4.341  10.868  0.7845  0.7125 -0.0341
 7232TIP3    H145891   3.799   4.322  10.877  0.5222  0.3434  2.7919
 7232TIP3    H245892   3.674   4.275  10.807  2.1130 -0.1260  0.1415
 7233TIP3   OH245893   1.266   2.948  10.129  0.5140 -0.4761 -0.0776
 7233TIP3    H145894   1.274   2.855  10.110  0.9722 -0.4402 -0.0706
 7233TIP3    H245895   1.273   2.953  10.225  3.7946 -0.1569 -0.2018
 7234TIP3   OH245896   6.139   2.133  11.306 -0.5310  0.1303 -0.7369
 7234TIP3    H145897   6.234   2.132  11.300 -0.4332  2.7673 -0.6718
 7234TIP3    H245898   6.113   2.042  11.291  2.0140 -0.8020  0.0633
 7235TIP3   OH245899   4.399   5.462   9.545  0.8100  0.2370  0.2626
 7235TIP3    H145900   4.413   5.426   9.632  1.5762 -1.0479 -0.3732
 7235TIP3    H245901   4.424   5.392   9.485 -1.7146  0.2950 -1.0211
 7236TIP3   OH245902   4.036   0.224  11.702 -0.4447  0.2464 -0.0960
 7236TIP3    H145903   3.970   0.194  11.640  0.8497 -1.4872 -0.7301
 7236TIP3    H245904   3.995   0.215  11.788 -1.2874 -0.0787 -0.5290
 7237TIP3   OH245905   4.274   0.734   9.993 -0.3918 -0.1163  0.1521
 7237TIP3    H145906   4.363   0.769   9.986 -0.4208 -0.3171 -3.3470
 7237TIP3    H245907   4.234   0.784  10.063  1.6561  1.9656 -0.0194
 7238TIP3   OH245908   0.805   5.650  10.436  0.5368 -0.9633  0.2077
 7238TIP3    H145909   0.816   5.601  10.517 -0.4102  0.3167  1.1521
 7238TIP3    H245910   0.735   5.603  10.389 -0.6394 -0.3413  1.2800
 7239TIP3   OH245911   4.897   2.046  10.558  0.6824 -0.0596  0.6861
 7239TIP3    H145912   4.936   2.134  10.552 -0.0656  0.2016 -0.9414
 7239TIP3    H245913   4.932   2.010  10.639  1.1326  1.6885  1.3273
 7240TIP3   OH245914   1.663   1.511  12.471 -0.1860  0.6462  0.3467
 7240TIP3    H145915   1.579   1.503  12.425 -0.0809 -0.6880  0.3536
 7240TIP3    H245916   1.705   1.426  12.459  0.1471  0.4854  2.3224
 7241TIP3   OH245917   6.260   5.053  13.379 -0.6169 -0.2584 -0.6913
 7241TIP3    H145918   6.290   4.998  13.307  1.3400  0.0204 -0.1396
 7241TIP3    H245919   6.166   5.064  13.363 -0.6530 -1.9983 -1.9671
 7242TIP3   OH245920   3.954   3.240  12.679 -0.1802  0.0340 -0.1226
 7242TIP3    H145921   4.040   3.261  12.716  0.0654  0.0269 -0.6743
 7242TIP3    H245922   3.892   3.277  12.741  0.2220 -0.0195  0.3174
 7243TIP3   OH245923   4.600   1.738  11.915  0.1189  0.5433 -0.5041
 7243TIP3    H145924   4.530   1.741  11.981  1.4558  0.7618  0.9653
 7243TIP3    H245925   4.648   1.820  11.929  2.3354 -0.8391  0.4634
 7244TIP3   OH245926   1.783   2.967   9.599 -0.0771 -0.0486  0.0742
 7244TIP3    H145927   1.851   3.035   9.606  1.0309 -1.2401  1.7997
 7244TIP3    H245928   1.743   2.964   9.686 -0.5991 -1.0920 -0.1846
 7245TIP3   OH245929   5.318   3.472   9.641  0.2651  0.8927 -0.1683
 7245TIP3    H145930   5.363   3.450   9.559 -0.3781 -2.1135  0.1779
 7245TIP3    H245931   5.387   3.508   9.697  0.4560  4.3942 -2.3735
 7246TIP3   OH245932   0.512   0.313  12.976 -0.0715 -0.4753  0.2870
 7246TIP3    H145933   0.422   0.341  12.989  0.0146 -0.0383 -0.0551
 7246TIP3    H245934   0.556   0.388  12.936  0.5813 -0.4855  0.9563
 7247TIP3   OH245935   2.140   6.483  12.967 -0.4541  0.1714 -0.2172
 7247TIP3    H145936   2.124   6.439  13.051  0.2919  0.0501 -0.1302
 7247TIP3    H245937   2.068   6.546  12.959 -1.1451 -0.5837 -0.0156
 7248TIP3   OH245938   3.753   4.737  11.020  0.3218 -0.1886 -0.3777
 7248TIP3    H145939   3.846   4.723  10.999  0.5031  0.0501  0.2471
 7248TIP3    H245940   3.745   4.831  11.036 -0.2056 -0.0729 -1.2283
 7249TIP3   OH245941   3.170   0.423  11.207  1.2243  0.1209  0.2071
 7249TIP3    H145942   3.153   0.449  11.298 -0.1560 -0.1696  0.0523
 7249TIP3    H245943   3.089   0.381  11.179  1.7599 -0.0962 -1.0599
 7250TIP3   OH245944   4.683   1.764   9.510  0.1861  0.3176  0.3320
 7250TIP3    H145945   4.629   1.832   9.469 -1.4570 -0.8923  0.3835
 7250TIP3    H245946   4.773   1.791   9.493 -0.4280  1.1176 -1.9564
 7251TIP3   OH245947   5.024   0.293  10.869  0.4400 -0.5914  0.1113
 7251TIP3    H145948   4.937   0.262  10.893  0.3130  0.6000  1.3303
 7251TIP3    H245949   5.079   0.273  10.945  0.8641  0.0871 -0.0030
 7252TIP3   OH245950   0.742   6.062  12.504 -0.5013 -0.0053  0.1631
 7252TIP3    H145951   0.732   6.156  12.488  1.5401  0.1056 -0.6931
 7252TIP3    H245952   0.684   6.020  12.440 -0.8266  0.6472  0.0226
 7253TIP3   OH245953   3.441   3.925  12.173  0.3691  0.2189 -0.2810
 7253TIP3    H145954   3.501   3.883  12.111 -0.2749  0.3640 -1.0187
 7253TIP3    H245955   3.394   3.989  12.121 -0.4179  0.1174  0.2888
 7254TIP3   OH245956   5.896   5.978  10.701  0.2917  0.8302 -0.3263
 7254TIP3    H145957   5.884   5.923  10.778 -1.3956 -2.1436 -2.4908
 7254TIP3    H245958   5.828   6.044  10.707  0.4028  0.8555  0.8668
 7255TIP3   OH245959   1.650   1.787  10.736 -0.3366 -0.3363 -0.5214
 7255TIP3    H145960   1.683   1.754  10.820 -0.4247  1.8192  0.4263
 7255TIP3    H245961   1.565   1.745  10.726  0.6604 -2.4598 -0.7666
 7256TIP3   OH245962   4.895   1.222  11.723  0.3935  0.0908 -0.0951
 7256TIP3    H145963   4.960   1.155  11.745 -0.5136 -0.1432  2.0950
 7256TIP3    H245964   4.836   1.178  11.662  1.4618 -0.1264 -1.0211
 7257TIP3   OH245965   0.586   6.020  11.589  0.5231  0.3284  0.2619
 7257TIP3    H145966   0.556   6.111  11.599  0.0762  0.1450  0.5974
 7257TIP3    H245967   0.678   6.029  11.565  0.0663  0.9029 -1.3708
 7258TIP3   OH245968   2.357   5.371  12.520 -0.0169  0.1983  0.2677
 7258TIP3    H145969   2.380   5.415  12.602 -0.2028  0.5801  0.1191
 7258TIP3    H245970   2.436   5.323  12.495  0.0231  0.0394  0.6961
 7259TIP3   OH245971   5.620   4.193  10.204 -0.4551 -0.2694 -0.2583
 7259TIP3    H145972   5.577   4.264  10.253  0.6348  0.2571 -0.0313
 7259TIP3    H245973   5.616   4.118  10.263  0.4718  0.2469  0.4820
 7260TIP3   OH245974   4.988   6.547  11.482  0.3279  0.0224  0.0294
 7260TIP3    H145975   5.076   6.546  11.445  0.6234 -0.8268  0.7090
 7260TIP3    H245976   4.933   6.506  11.415  0.9386 -1.9428  0.6597
 7261TIP3   OH245977   3.242   2.806  10.422 -0.2995  0.3456  0.3129
 7261TIP3    H145978   3.311   2.767  10.476 -1.0841  1.3997  2.1894
 7261TIP3    H245979   3.206   2.733  10.371  1.9364 -0.2819 -0.4743
 7262TIP3   OH245980   2.390   3.311  11.661 -0.0838  0.1312 -0.1257
 7262TIP3    H145981   2.325   3.371  11.623 -0.0157 -0.4576 -1.1862
 7262TIP3    H245982   2.364   3.304  11.753  0.0423  1.9701  0.1006
 7263TIP3   OH245983   2.521   3.631   9.689 -0.3441  0.3960  0.0095
 7263TIP3    H145984   2.477   3.667   9.766 -1.6976 -0.7963 -0.1716
 7263TIP3    H245985   2.459   3.647   9.617 -0.7264 -1.6472 -0.1836
 7264TIP3   OH245986   1.177   0.881  12.595 -0.4765 -0.4843  0.0514
 7264TIP3    H145987   1.110   0.942  12.627 -0.7343 -0.3276 -0.7591
 7264TIP3    H245988   1.258   0.930  12.599 -0.4169 -0.6437  0.9567
 7265TIP3   OH245989   4.212   3.196  20.651  0.6955  0.3028 -0.0173
 7265TIP3    H145990   4.303   3.216  20.625  1.1508 -1.5317  0.0529
 7265TIP3    H245991   4.169   3.174  20.568  0.9054 -0.9373  0.1872
 7266TIP3   OH245992   2.645   5.839  10.355 -0.0542 -0.2737 -0.2316
 7266TIP3    H145993   2.623   5.750  10.327 -0.3766 -0.3349  0.1984
 7266TIP3    H245994   2.724   5.829  10.408 -1.2830 -0.6271  1.6572
 7267TIP3   OH245995   0.561   5.981  10.195 -0.4972  0.2902  0.0308
 7267TIP3    H145996   0.502   5.907  10.211 -1.0583  0.5805 -0.6099
 7267TIP3    H245997   0.576   6.019  10.281 -1.2018  0.1702  0.2118
 7268TIP3   OH245998   2.981   2.917  10.009 -0.5378  0.6462 -0.4078
 7268TIP3    H145999   2.919   2.845   9.993  0.3364 -0.0939 -0.4979
 7268TIP3    H246000   2.946   2.990   9.958 -1.8523  0.5305  0.2743
 7269TIP3   OH246001   1.859   1.364  11.162 -0.0403 -0.1160 -0.3462
 7269TIP3    H146002   1.767   1.385  11.176 -0.1450 -1.6316  1.7745
 7269TIP3    H246003   1.858   1.277  11.122  0.4946  0.3332 -1.3901
 7270TIP3   OH246004   6.491   5.356   9.741  0.2888  0.2766 -0.3197
 7270TIP3    H146005   6.559   5.417   9.713  1.7752 -1.0454  0.2569
 7270TIP3    H246006   6.508   5.342   9.834  1.4176 -2.6488 -0.8418
 7271TIP3   OH246007   1.429   3.380  11.391  0.2357 -0.0101 -0.4426
 7271TIP3    H146008   1.462   3.469  11.398 -0.7101  0.2455  1.1493
 7271TIP3    H246009   1.334   3.389  11.395  0.1331 -1.0902 -0.1389
 7272TIP3   OH246010   0.151   0.355   9.585  0.4135  0.5555  0.0516
 7272TIP3    H146011   0.227   0.386   9.635 -0.0813  0.0321  1.1689
 7272TIP3    H246012   0.085   0.424   9.596  0.2332  0.3451  0.2903
 7273TIP3   OH246013   0.337   4.721  12.423 -0.4941 -0.2801 -0.3311
 7273TIP3    H146014   0.328   4.799  12.477 -1.5817  0.0578 -0.9588
 7273TIP3    H246015   0.407   4.670  12.464  0.7452  1.3641 -0.3228
 7274TIP3   OH246016   2.714   5.880  12.570 -0.2450 -0.3083 -0.0313
 7274TIP3    H146017   2.677   5.851  12.653 -0.4595 -0.3993 -0.1579
 7274TIP3    H246018   2.794   5.927  12.594  0.8516 -2.1357  0.0990
 7275TIP3   OH246019   1.161   3.166   9.428 -0.1339  0.6367 -0.2579
 7275TIP3    H146020   1.255   3.155   9.441 -0.2227  0.3007  0.1366
 7275TIP3    H246021   1.123   3.084   9.461 -0.5324  0.5911 -0.8061
 7276TIP3   OH246022   0.883   1.509  10.594  0.2611 -0.7385 -0.4108
 7276TIP3    H146023   0.971   1.542  10.582  0.1535 -0.6294 -0.9110
 7276TIP3    H246024   0.877   1.490  10.688  0.0316  1.4891  0.0797
 7277TIP3   OH246025   0.985   4.583   9.780 -0.4180 -0.3647  0.6852
 7277TIP3    H146026   0.896   4.568   9.747 -0.8199 -1.9059  2.2949
 7277TIP3    H246027   1.037   4.512   9.742 -0.0241  0.0979  0.3448
 7278TIP3   OH246028   2.483   4.965   9.183 -0.3902  0.2564 -0.0197
 7278TIP3    H146029   2.542   4.895   9.157 -1.4454 -0.0635 -1.7801
 7278TIP3    H246030   2.403   4.920   9.210  0.1839  0.6653  2.6218
 7279TIP3   OH246031   6.355   2.237  10.258  0.3553  0.2655 -0.0033
 7279TIP3    H146032   6.270   2.231  10.212 -0.0957  1.6244  0.6272
 7279TIP3    H246033   6.419   2.239  10.187 -0.2588  1.0768 -0.5672
 7280TIP3   OH246034   3.736   3.307  11.672  0.5351  0.4957 -0.4049
 7280TIP3    H146035   3.717   3.332  11.581  0.0830 -0.9925 -0.7494
 7280TIP3    H246036   3.818   3.351  11.692  0.6429  0.8493 -1.5429
 7281TIP3   OH246037   0.757   4.934  10.188 -0.4117 -0.2353 -0.3270
 7281TIP3    H146038   0.758   4.841  10.162 -0.2518 -0.7233  1.2865
 7281TIP3    H246039   0.682   4.941  10.247 -0.2966  0.6318 -0.2746
 7282TIP3   OH246040   3.364   0.980   9.665 -0.2523  0.4939  0.3430
 7282TIP3    H146041   3.334   0.905   9.717 -0.7313  0.8694  0.6103
 7282TIP3    H246042   3.459   0.967   9.657 -0.3751 -0.3285  0.0852
 7283TIP3   OH246043   5.630   5.052  10.365 -0.8486  0.4629  0.1453
 7283TIP3    H146044   5.665   5.106  10.294 -0.1077  0.5732  0.5818
 7283TIP3    H246045   5.535   5.061  10.358 -0.7422  2.4174  0.6367
 7284TIP3   OH246046   1.506   2.376  12.163  0.8362  0.7353 -0.4932
 7284TIP3    H146047   1.421   2.347  12.130  0.4186  0.1509  1.0303
 7284TIP3    H246048   1.491   2.396  12.256  2.5192 -0.0805 -0.0024
 7285TIP3   OH246049   2.155   1.621  10.259 -0.1276  0.6742  0.1450
 7285TIP3    H146050   2.217   1.550  10.276 -0.9118  0.1552  0.9164
 7285TIP3    H246051   2.069   1.581  10.273 -0.5648  1.9326  1.1980
 7286TIP3   OH246052   0.958   2.198  13.046 -0.4772 -0.0098  0.2353
 7286TIP3    H146053   0.999   2.112  13.061  2.0633  1.1479  0.5336
 7286TIP3    H246054   0.966   2.212  12.952  2.7336  1.4402  0.5976
 7287TIP3   OH246055   4.143   0.818  10.240 -0.4417  0.4534  0.3114
 7287TIP3    H146056   4.202   0.821  10.315 -0.4570 -0.8373  0.4124
 7287TIP3    H246057   4.100   0.732  10.247 -0.0254  0.0502 -1.4554
 7288TIP3   OH246058   0.845   5.969  10.808 -0.2544  0.3853  0.1868
 7288TIP3    H146059   0.877   5.879  10.800  0.9959  0.8238  0.0966
 7288TIP3    H246060   0.751   5.962  10.792 -0.2725 -0.9863  0.7506
 7289TIP3   OH246061   6.517   1.815   9.929  0.2803 -0.1962 -0.0342
 7289TIP3    H146062   6.509   1.899   9.884  0.6803  0.3195  0.8308
 7289TIP3    H246063   6.492   1.833  10.019 -0.5983 -1.2333 -0.0444
 7290TIP3   OH246064   6.222   5.787  10.450 -0.0759 -0.1573  0.8457
 7290TIP3    H146065   6.170   5.754  10.523 -1.6478  0.1822 -0.0617
 7290TIP3    H246066   6.158   5.831  10.394  1.0247 -0.7305 -0.9236
 7291TIP3   OH246067   1.502   6.340  11.631  0.0127  0.6680 -0.1068
 7291TIP3    H146068   1.486   6.316  11.722 -0.9960 -1.4330 -0.7630
 7291TIP3    H246069   1.535   6.430  11.635  0.7106  0.3859  2.3652
 7292TIP3   OH246070   5.149   3.179  10.092  0.3243 -0.4571  0.1917
 7292TIP3    H146071   5.134   3.246  10.159 -1.8401 -1.1629  0.5092
 7292TIP3    H246072   5.194   3.224  10.021  1.5143  0.6114  1.5684
 7293TIP3   OH246073   2.687   3.820  10.113  0.1617 -0.4962 -0.6095
 7293TIP3    H146074   2.742   3.870  10.053 -1.1090  0.6001 -0.9037
 7293TIP3    H246075   2.643   3.757  10.057 -1.4381  0.8841 -0.9797
 7294TIP3   OH246076   2.750   3.175  11.463  0.2573  0.3519 -0.7399
 7294TIP3    H146077   2.754   3.086  11.427  0.3357 -0.0765  0.2994
 7294TIP3    H246078   2.837   3.189  11.500  0.7310  1.4358 -2.1781
 7295TIP3   OH246079   5.568   0.423  12.774 -0.1993  0.0811 -0.4139
 7295TIP3    H146080   5.497   0.406  12.835 -0.0911  1.9873  0.2950
 7295TIP3    H246081   5.637   0.463  12.827  0.5550  0.2672 -1.4830
 7296TIP3   OH246082   4.753   3.070   9.914  0.1051  0.2413  0.2050
 7296TIP3    H146083   4.776   3.064   9.821  3.4289 -2.6140  1.0209
 7296TIP3    H246084   4.661   3.045   9.917 -0.1269  0.5222 -2.3089
 7297TIP3   OH246085   1.170   5.957  11.466  0.5706 -0.1675  0.4192
 7297TIP3    H146086   1.180   6.047  11.498  0.5200  0.1420 -0.4238
 7297TIP3    H246087   1.201   5.902  11.539  1.4264  0.5559  0.6192
 7298TIP3   OH246088   0.827   0.709  10.013 -0.1134  0.4832  0.0336
 7298TIP3    H146089   0.736   0.729  10.034 -0.6042  0.0777 -1.5735
 7298TIP3    H246090   0.830   0.613  10.008  0.3575  0.5004 -0.0805
 7299TIP3   OH246091   1.426   6.174  12.715 -0.2425 -0.0343 -0.5975
 7299TIP3    H146092   1.505   6.121  12.726 -0.2370 -0.0849 -0.8799
 7299TIP3    H246093   1.419   6.223  12.797 -0.0674 -0.2293 -0.4633
 7300TIP3   OH246094   6.460   5.167  11.138 -0.2556  0.3511  0.1148
 7300TIP3    H146095   6.404   5.186  11.062  0.5884  0.9183 -0.3766
 7300TIP3    H246096   6.549   5.185  11.107  0.0122  1.8348  1.6286
 7301TIP3   OH246097   0.794   1.245  10.544 -0.1726  0.9599  0.4662
 7301TIP3    H146098   0.818   1.337  10.550  0.1910  0.8856  0.1803
 7301TIP3    H246099   0.792   1.227  10.450  0.9345  0.3711  0.5468
 7302TIP3   OH246100   4.148   5.060  12.086 -0.1602  0.3748  0.0423
 7302TIP3    H146101   4.065   5.050  12.133  0.4601  1.3333  1.4022
 7302TIP3    H246102   4.215   5.058  12.154  0.9035  0.1826 -0.9778
 7303TIP3   OH246103   1.148   5.883  10.573  0.0709  0.2994  0.3904
 7303TIP3    H146104   1.130   5.959  10.629  0.8981 -0.5889  1.9302
 7303TIP3    H246105   1.068   5.871  10.522 -0.5383  1.4346  1.0485
 7304TIP3   OH246106   2.867   4.500  11.327  0.3085 -0.1599  0.1266
 7304TIP3    H146107   2.957   4.514  11.298  0.4851  0.0515  0.7762
 7304TIP3    H246108   2.844   4.581  11.373 -0.1737 -0.2606  0.0684
 7305TIP3   OH246109   5.131   3.917  12.683 -0.0028 -0.7190 -0.1422
 7305TIP3    H146110   5.059   3.876  12.731 -1.9631 -0.5602 -2.7454
 7305TIP3    H246111   5.184   3.844  12.651 -1.4880 -1.1403 -1.7825
 7306TIP3   OH246112   3.458   5.497  10.060 -0.0201 -0.7220  0.7189
 7306TIP3    H146113   3.482   5.589  10.066 -0.3845 -0.5759  0.0603
 7306TIP3    H246114   3.507   5.455  10.130  1.1474 -0.2260  0.2390
 7307TIP3   OH246115   1.276   0.553  11.390 -0.3047  0.4425  0.0428
 7307TIP3    H146116   1.191   0.579  11.355 -0.2251  0.1864 -0.3467
 7307TIP3    H246117   1.339   0.608  11.344 -0.0403 -1.0825 -1.5412
 7308TIP3   OH246118   4.399   1.729  12.104 -0.5152  0.1124 -0.3018
 7308TIP3    H146119   4.323   1.766  12.149  1.9639  1.7579  2.8656
 7308TIP3    H246120   4.381   1.635  12.100 -2.6770  0.4451  0.4031
 7309TIP3   OH246121   4.992   0.132  10.194  0.4504  0.0512  0.0703
 7309TIP3    H146122   4.961   0.057  10.142 -0.0642 -0.1114  0.6036
 7309TIP3    H246123   4.912   0.176  10.223  0.5514 -1.5588  3.2008
 7310TIP3   OH246124   2.874   2.756  12.354  0.1132 -0.3568 -0.5712
 7310TIP3    H146125   2.836   2.807  12.425 -1.6701 -1.5035 -0.6106
 7310TIP3    H246126   2.798   2.724  12.305  1.0953 -2.8976 -0.6092
 7311TIP3   OH246127   3.215   0.543  11.726  0.5291 -0.7105  0.5705
 7311TIP3    H146128   3.176   0.490  11.797  0.4852 -0.3361  0.8305
 7311TIP3    H246129   3.205   0.633  11.756 -1.8254 -0.3384 -1.0506
 7312TIP3   OH246130   0.679   3.527   9.947  0.0379 -0.5055 -0.2671
 7312TIP3    H146131   0.698   3.434   9.956  0.6455 -0.2643  1.5027
 7312TIP3    H246132   0.598   3.540   9.995  0.1962 -0.0628 -0.1069
 7313TIP3   OH246133   6.481   1.971  11.767  0.7496  0.1654 -0.3932
 7313TIP3    H146134   6.419   1.903  11.743  0.8161 -0.5545  1.2936
 7313TIP3    H246135   6.496   1.957  11.861  1.8742  1.6084 -0.3234
 7314TIP3   OH246136   0.064   3.377   9.956 -0.6626  0.7710  0.4827
 7314TIP3    H146137   0.055   3.461  10.001  1.1026  1.2798  0.0117
 7314TIP3    H246138   0.053   3.399   9.863 -1.8384  0.1671  0.4623
 7315TIP3   OH246139   2.822   0.474  11.161 -0.0844 -0.3623  0.6242
 7315TIP3    H146140   2.806   0.448  11.070  0.0603  1.4996  0.0139
 7315TIP3    H246141   2.829   0.392  11.209 -0.8549 -1.3845 -0.9239
 7316TIP3   OH246142   0.395   5.074  10.722 -0.4726  0.8738 -0.1988
 7316TIP3    H146143   0.396   4.984  10.753 -1.1054  1.0158  0.2845
 7316TIP3    H246144   0.336   5.073  10.647 -0.5792  0.8985 -0.1172
 7317TIP3   OH246145   5.651   5.287   9.612 -0.4816  0.1054 -0.1301
 7317TIP3    H146146   5.611   5.369   9.638  1.4410  0.9096  0.4576
 7317TIP3    H246147   5.744   5.298   9.631 -0.0331 -1.8732 -0.8877
 7318TIP3   OH246148   0.482   3.488  12.276  0.0126  0.1325 -0.0885
 7318TIP3    H146149   0.455   3.516  12.189 -2.3009 -2.1280 -0.2321
 7318TIP3    H246150   0.552   3.424  12.260 -1.9308 -2.0138 -0.5804
 7319TIP3   OH246151   2.126   0.582  11.454  0.2827  0.4995  0.5864
 7319TIP3    H146152   2.140   0.612  11.364  0.0791 -1.1212 -0.0146
 7319TIP3    H246153   2.035   0.554  11.456  0.5537 -0.3860  1.0094
 7320TIP3   OH246154   6.096   3.798  11.234  0.7458  0.3975 -0.1866
 7320TIP3    H146155   6.165   3.755  11.285  0.2528 -0.0178  0.1330
 7320TIP3    H246156   6.016   3.782  11.283  0.6811  2.5925  0.5221
 7321TIP3   OH246157   2.572   0.592  10.780  0.3370  0.1389  0.0245
 7321TIP3    H146158   2.546   0.637  10.700 -1.0184  0.5349  0.6606
 7321TIP3    H246159   2.489   0.566  10.821  1.0376 -1.3597  0.5700
 7322TIP3   OH246160   3.156   2.548   9.763 -0.1117 -0.2648  0.1841
 7322TIP3    H146161   3.100   2.517   9.834 -0.6303  0.9959  0.3486
 7322TIP3    H246162   3.173   2.639   9.783  1.8011 -0.5360 -0.0201
 7323TIP3   OH246163   5.654   4.143   9.944  0.1100 -1.0151 -0.1983
 7323TIP3    H146164   5.561   4.137   9.924 -0.0392  2.3242 -1.0997
 7323TIP3    H246165   5.658   4.182  10.032  0.6446 -0.8210 -0.3018
 7324TIP3   OH246166   0.493   5.385   9.981 -0.0386  0.6548 -0.4424
 7324TIP3    H146167   0.532   5.309  10.023 -0.7905 -0.1521 -1.1396
 7324TIP3    H246168   0.550   5.403   9.906  0.0470  0.6616 -0.3748
 7325TIP3   OH246169   1.892   5.092  10.013 -0.2663  0.0994 -0.0593
 7325TIP3    H146170   1.826   5.028   9.986  1.0431 -1.6365  0.6581
 7325TIP3    H246171   1.968   5.072   9.959  0.7909 -0.2428  1.4920
 7326TIP3   OH246172   1.503   4.148  12.605 -0.3126  0.2482 -0.6219
 7326TIP3    H146173   1.577   4.088  12.593 -1.2368 -1.0318 -0.1038
 7326TIP3    H246174   1.426   4.092  12.602 -1.0848  0.5942  4.4819
 7327TIP3   OH246175   5.530   1.383  10.650  0.4589  0.2738 -0.0631
 7327TIP3    H146176   5.485   1.400  10.733  0.3409  2.2461 -0.4823
 7327TIP3    H246177   5.489   1.304  10.616 -0.6170  0.3492  0.9952
 7328TIP3   OH246178   3.804   5.876   9.841 -0.4524 -0.2033  0.3086
 7328TIP3    H146179   3.802   5.970   9.824  0.3827 -0.5378 -1.9557
 7328TIP3    H246180   3.897   5.858   9.858 -0.8304 -0.4059  2.5425
 7329TIP3   OH246181   4.816   4.532  11.380 -0.2395  0.1371  0.1583
 7329TIP3    H146182   4.903   4.535  11.419 -0.0676  1.3756 -0.2594
 7329TIP3    H246183   4.805   4.619  11.341 -2.1000  0.4174  1.1749
 7330TIP3   OH246184   6.019   1.048   9.649 -0.1926  0.1836  0.1136
 7330TIP3    H146185   5.924   1.037   9.640 -0.3546 -0.2395  1.9620
 7330TIP3    H246186   6.052   0.959   9.664  0.6152  0.2295 -1.1989
 7331TIP3   OH246187   5.393   5.065  11.562 -0.3731  0.5339  0.1384
 7331TIP3    H146188   5.388   5.013  11.642 -1.6428  0.9464  0.3544
 7331TIP3    H246189   5.457   5.133  11.581  1.8313 -1.2929 -0.3838
 7332TIP3   OH246190   6.074   4.339  10.888 -0.0679  0.3445  0.4618
 7332TIP3    H146191   6.028   4.274  10.941  0.0024 -0.2878 -0.2232
 7332TIP3    H246192   6.138   4.378  10.948 -0.4725  0.1599  1.0210
 7333TIP3   OH246193   2.395   0.118  12.581  0.6299 -0.4586  0.2831
 7333TIP3    H146194   2.336   0.172  12.528  0.0410 -1.0144  0.3481
 7333TIP3    H246195   2.371   0.138  12.672  0.9329 -0.2657  0.3202
 7334TIP3   OH246196   4.747   4.681  12.839 -0.2389  0.1920 -0.6692
 7334TIP3    H146197   4.709   4.599  12.870 -1.0092  0.4921 -0.7936
 7334TIP3    H246198   4.694   4.704  12.763  0.2005  0.6220 -0.8464
 7335TIP3   OH246199   1.119   6.330  11.900 -0.0180  0.5630 -0.5632
 7335TIP3    H146200   1.059   6.265  11.865  1.1346 -0.6308 -0.4173
 7335TIP3    H246201   1.186   6.340  11.832  1.6421 -0.9634  0.7337
 7336TIP3   OH246202   1.624   4.889  10.696 -0.1230  0.0508  0.0501
 7336TIP3    H146203   1.617   4.979  10.664  0.6747  0.0022 -0.2702
 7336TIP3    H246204   1.539   4.849  10.674 -1.5595  1.4569  2.5798
 7337TIP3   OH246205   1.124   2.603   9.840 -0.3581 -0.7685 -0.2543
 7337TIP3    H146206   1.155   2.563   9.759 -0.2261 -0.7227 -0.2259
 7337TIP3    H246207   1.045   2.554   9.862  0.3942 -1.7289  0.3638
 7338TIP3   OH246208   2.062   6.599  12.705  0.0198  0.4089 -0.5948
 7338TIP3    H146209   2.043   6.627  12.795 -0.9772  0.1640 -0.7154
 7338TIP3    H246210   2.157   6.601  12.699  0.0910  0.6162  0.4096
 7339TIP3   OH246211   5.389   1.765  10.656  0.2078 -0.3390 -0.2660
 7339TIP3    H146212   5.460   1.762  10.720  0.0631  1.9757  0.0982
 7339TIP3    H246213   5.326   1.700  10.687  0.8419 -0.3342  1.0905
 7340TIP3   OH246214   4.968   4.157  10.735 -0.1441 -0.1280  0.2538
 7340TIP3    H146215   5.005   4.117  10.656 -2.2059 -2.6693  0.4426
 7340TIP3    H246216   4.926   4.237  10.704 -0.8822 -1.0534 -1.2462
 7341TIP3   OH246217   6.436   0.586  11.713  0.2928  0.0303 -0.1851
 7341TIP3    H146218   6.500   0.552  11.650 -0.1476  0.6784 -0.9975
 7341TIP3    H246219   6.469   0.557  11.798  1.2415 -0.3222 -0.6553
 7342TIP3   OH246220   4.667   6.539   9.824 -0.0376 -0.2471 -0.0767
 7342TIP3    H146221   4.640   6.452   9.796  0.6321 -0.0736 -1.3390
 7342TIP3    H246222   4.598   6.568   9.885 -0.3912 -1.5395  0.1533
 7343TIP3   OH246223   2.069   2.115  11.708 -0.0979  0.5591  0.6882
 7343TIP3    H146224   2.077   2.098  11.614  1.7860 -0.2067  0.9511
 7343TIP3    H246225   1.982   2.154  11.718 -0.0324  1.3929 -1.4729
 7344TIP3   OH246226   5.538   1.298  10.338 -0.2985  0.0180  0.6622
 7344TIP3    H146227   5.582   1.212  10.337  1.3129  0.7894 -1.3316
 7344TIP3    H246228   5.465   1.286  10.400 -0.6677 -3.0377 -0.1700
 7345TIP3   OH246229   3.652   1.850  11.316 -0.3456  0.5501 -0.2526
 7345TIP3    H146230   3.717   1.893  11.371 -0.5298  0.5423 -0.0255
 7345TIP3    H246231   3.568   1.885  11.345 -0.4728  0.2745 -0.2804
 7346TIP3   OH246232   3.043   0.428  10.056 -0.2424  0.5766  0.3610
 7346TIP3    H146233   3.121   0.467  10.018  0.1535 -1.2885 -0.8482
 7346TIP3    H246234   2.971   0.485  10.029  0.1425 -0.1638 -2.5006
 7347TIP3   OH246235   6.079   1.296  11.385 -0.2136 -0.1368  0.0123
 7347TIP3    H146236   6.034   1.275  11.467  0.9883 -1.9082  0.2861
 7347TIP3    H246237   6.155   1.238  11.385  0.8014  1.1392 -1.5132
 7348TIP3   OH246238   5.579   3.467  11.855  0.9258  0.1390 -0.8386
 7348TIP3    H146239   5.581   3.447  11.948  0.6471 -0.8769 -1.0446
 7348TIP3    H246240   5.625   3.395  11.813  0.9433  0.5247 -1.5027
 7349TIP3   OH246241   5.139   2.962   9.881  0.0849  0.4133  0.3183
 7349TIP3    H146242   5.206   2.894   9.892  0.4242  0.6695 -0.1384
 7349TIP3    H246243   5.147   3.015   9.960 -0.1202 -0.0235  0.6361
 7350TIP3   OH246244   0.281   0.713   9.547  0.5773  0.0144  0.0450
 7350TIP3    H146245   0.347   0.767   9.591 -0.0008 -1.4787  2.9925
 7350TIP3    H246246   0.309   0.623   9.563 -0.5289 -0.6291 -1.3944
 7351TIP3   OH246247   0.312   1.134  10.416  0.0303 -0.1304  0.1673
 7351TIP3    H146248   0.394   1.124  10.465 -0.7406  1.1462  1.8116
 7351TIP3    H246249   0.277   1.218  10.445 -0.3637  0.8705 -2.8307
 7352TIP3   OH246250   6.173   3.399  11.467  0.1338 -0.1943  0.5450
 7352TIP3    H146251   6.171   3.380  11.374 -4.1299 -0.2568  0.4387
 7352TIP3    H246252   6.189   3.494  11.472 -0.6888  0.0020 -0.3394
 7353TIP3   OH246253   3.809   3.148   9.716  0.3463 -0.0034 -0.0405
 7353TIP3    H146254   3.782   3.056   9.709 -2.0975  0.6618 -0.1611
 7353TIP3    H246255   3.895   3.144   9.759  0.1444 -2.3201  0.2949
 7354TIP3   OH246256   2.770   4.766  11.391 -0.1823  0.1226 -0.2873
 7354TIP3    H146257   2.790   4.817  11.313 -1.4337 -0.5605 -1.0732
 7354TIP3    H246258   2.674   4.770  11.399 -0.0841  0.1307  1.1750
 7355TIP3   OH246259   1.852   3.276  21.358 -0.3232 -0.3579 -0.0270
 7355TIP3    H146260   1.868   3.206  21.420 -2.3487 -1.2103 -0.3764
 7355TIP3    H246261   1.936   3.290  21.314  0.9762 -0.1923  2.3751
 7356TIP3   OH246262   1.773   4.390  11.990 -0.1952  0.0865  0.3705
 7356TIP3    H146263   1.752   4.298  11.975 -0.2636  0.2068 -0.2941
 7356TIP3    H246264   1.864   4.389  12.021 -0.0036 -0.1587 -0.1994
 7357TIP3   OH246265   2.160   3.114  11.052 -0.5361  0.0431 -0.3477
 7357TIP3    H146266   2.176   3.055  11.126 -2.1986 -1.1242 -0.8545
 7357TIP3    H246267   2.245   3.119  11.007 -0.2794 -1.8420 -0.1816
 7358TIP3   OH246268   5.528   4.021  11.830  0.3125 -0.0262 -0.2654
 7358TIP3    H146269   5.598   4.021  11.765 -1.0704 -0.0719 -1.8230
 7358TIP3    H246270   5.510   3.928  11.846  1.9431 -0.0749  1.7257
 7359TIP3   OH246271   4.449   1.062  10.163  0.1307 -0.3313  0.7345
 7359TIP3    H146272   4.519   1.112  10.122  0.5939 -0.3806  1.4446
 7359TIP3    H246273   4.462   0.972  10.131  0.1556 -0.2659  0.5614
 7360TIP3   OH246274   5.178   4.875  10.938  0.3297  0.1085 -0.2236
 7360TIP3    H146275   5.106   4.833  10.985  0.6105 -0.0627  0.0532
 7360TIP3    H246276   5.198   4.954  10.988  0.2052  0.2586 -0.4093
 7361TIP3   OH246277   0.346   2.265  11.824 -0.2224 -0.4843 -0.1574
 7361TIP3    H146278   0.359   2.231  11.912  0.7553 -0.6052 -0.3274
 7361TIP3    H246279   0.252   2.260  11.809 -0.5535  0.6887  1.3309
 7362TIP3   OH246280   5.032   3.852   9.565  0.3238  0.2287 -0.3087
 7362TIP3    H146281   5.118   3.835   9.525  1.2714 -0.8137  1.9630
 7362TIP3    H246282   5.053   3.902   9.645 -1.3425  1.1524 -0.4054
 7363TIP3   OH246283   0.559   0.314  12.557 -0.2703  0.7958 -0.5574
 7363TIP3    H146284   0.600   0.270  12.631 -0.1883 -0.0374 -1.0773
 7363TIP3    H246285   0.480   0.262  12.539 -1.2347  1.9988  0.0303
 7364TIP3   OH246286   3.410   2.349  11.375  0.2667 -0.3251 -0.1324
 7364TIP3    H146287   3.341   2.381  11.317 -0.5468 -0.3786  0.7863
 7364TIP3    H246288   3.467   2.426  11.389 -0.3991  0.1088  0.2297
 7365TIP3   OH246289   5.048   2.273  11.990 -0.6700  0.5663  0.3189
 7365TIP3    H146290   5.071   2.187  12.026 -3.3047  0.2018  1.3931
 7365TIP3    H246291   5.050   2.261  11.895 -3.0300 -1.4068  0.4123
 7366TIP3   OH246292   6.025   6.003  11.479  0.1003 -0.0528  0.2458
 7366TIP3    H146293   6.005   5.968  11.393  2.0126  0.0080 -0.2714
 7366TIP3    H246294   6.073   6.085  11.462  2.1033 -0.9261  1.2671
 7367TIP3   OH246295   0.125   0.015   9.375 -0.3792  0.1015 -0.6014
 7367TIP3    H146296   0.166   0.098   9.352  2.9026 -1.4745 -1.0902
 7367TIP3    H246297   0.129   0.012   9.471 -1.0542  0.7447 -0.5514
 7368TIP3   OH246298   2.657   3.999  11.552  0.0979 -0.3530 -0.1295
 7368TIP3    H146299   2.740   4.046  11.537 -0.2534  1.1784  2.2384
 7368TIP3    H246300   2.601   4.063  11.597 -1.2266 -2.3477  1.1971
 7369TIP3   OH246301   5.001   5.628  11.514  0.3361 -0.3177 -0.5746
 7369TIP3    H146302   5.093   5.605  11.524 -0.0900 -1.6663  0.4987
 7369TIP3    H246303   4.962   5.610  11.600 -0.5089  2.3847 -0.3077
 7370TIP3   OH246304   1.665   1.536  13.300 -0.0420  0.5637  0.2432
 7370TIP3    H146305   1.752   1.507  13.275  1.0120  3.2058  0.6098
 7370TIP3    H246306   1.679   1.613  13.354 -2.5587 -0.1019  2.0676
 7371TIP3   OH246307   0.275   0.176  10.649  0.2198  0.4586 -0.3609
 7371TIP3    H146308   0.288   0.211  10.737 -1.0142  2.5072 -0.9167
 7371TIP3    H246309   0.364   0.170  10.612  0.6681  0.4668  0.6874
 7372TIP3   OH246310   2.379   5.312  11.817  0.3700  0.4630 -0.9891
 7372TIP3    H146311   2.400   5.234  11.765  2.5114  0.1286  0.2662
 7372TIP3    H246312   2.371   5.279  11.907 -1.2581  1.3370 -0.7807
 7373TIP3   OH246313   2.668   4.000  11.290  0.3393  0.0997  0.1756
 7373TIP3    H146314   2.679   4.095  11.285 -2.9931  0.5968  0.3883
 7373TIP3    H246315   2.676   3.980  11.384  0.0149  0.3368  0.2549
 7374TIP3   OH246316   0.756   2.814  11.297  0.1073  0.2787 -0.2101
 7374TIP3    H146317   0.852   2.815  11.302  0.1751  1.0215 -1.3524
 7374TIP3    H246318   0.735   2.722  11.281  0.6144  0.0705  0.2900
 7375TIP3   OH246319   1.233   0.623  10.331  0.7706 -0.0091  0.3464
 7375TIP3    H146320   1.273   0.542  10.297 -0.4529 -0.9566  1.0732
 7375TIP3    H246321   1.296   0.655  10.395  2.3579  0.9285 -1.5760
 7376TIP3   OH246322   3.801   4.128  10.417  0.2136 -0.6451 -0.0897
 7376TIP3    H146323   3.764   4.124  10.505  0.3382  0.1635  0.0107
 7376TIP3    H246324   3.739   4.182  10.367 -0.0427 -1.3971 -0.5984
 7377TIP3   OH246325   0.130   2.112  10.447 -0.0009 -0.3563 -0.5923
 7377TIP3    H146326   0.052   2.072  10.486  2.0016 -3.1024  1.0244
 7377TIP3    H246327   0.112   2.112  10.353 -1.7632 -1.4306 -0.3067
 7378TIP3   OH246328   4.859   4.928  12.570 -0.0264  0.0279 -0.2603
 7378TIP3    H146329   4.928   4.867  12.596  1.0920  0.1711 -2.6297
 7378TIP3    H246330   4.904   4.996  12.521 -1.6522  1.1069 -0.3247
 7379TIP3   OH246331   3.379   3.360  10.385 -0.0608 -0.5218  0.1859
 7379TIP3    H146332   3.471   3.371  10.363  0.3473 -1.1860  1.4608
 7379TIP3    H246333   3.347   3.449  10.403  0.3203 -0.2895 -0.2840
 7380TIP3   OH246334   0.883   1.408  11.874  0.2002  0.1903 -0.0321
 7380TIP3    H146335   0.889   1.473  11.945 -0.8857  0.4720 -0.1893
 7380TIP3    H246336   0.791   1.409  11.848  0.1927 -1.3443 -0.1145
 7381TIP3   OH246337   1.298   5.103  11.993  0.7376  0.2038 -0.6639
 7381TIP3    H146338   1.313   5.180  11.938 -0.6106  0.3401 -0.8568
 7381TIP3    H246339   1.359   5.038  11.959  0.1789  0.3935 -2.0995
 7382TIP3   OH246340   1.573   6.126   9.739  0.1097 -0.3892  0.0562
 7382TIP3    H146341   1.667   6.138   9.742  0.1381 -0.3933 -0.5558
 7382TIP3    H246342   1.561   6.037   9.707 -0.0911 -0.0327 -0.9016
 7383TIP3   OH246343   3.446   2.661  10.567  0.1079 -0.0022 -0.6559
 7383TIP3    H146344   3.531   2.697  10.591  0.1791 -0.8882  0.5131
 7383TIP3    H246345   3.463   2.567  10.554 -0.4566  0.0220 -1.6240
 7384TIP3   OH246346   3.390   1.820  11.208  0.3135 -0.2787 -0.7059
 7384TIP3    H146347   3.461   1.771  11.169  0.8673 -0.4704  0.4812
 7384TIP3    H246348   3.310   1.777  11.177  0.7771 -2.1271  0.5067
 7385TIP3   OH246349   0.551   1.148  10.565 -0.1029 -0.4147 -0.4600
 7385TIP3    H146350   0.641   1.176  10.545 -0.2526 -0.6830 -1.6139
 7385TIP3    H246351   0.548   1.143  10.660  1.0743 -0.2891 -0.3966
 7386TIP3   OH246352   4.982   1.404  10.582 -0.2216 -0.5999 -0.3116
 7386TIP3    H146353   4.918   1.444  10.522  1.7005  1.3529 -1.2009
 7386TIP3    H246354   5.056   1.382  10.525  0.9843 -0.2519  1.0780
 7387TIP3   OH246355   2.500   3.680  12.127  0.1558 -0.4509  0.2046
 7387TIP3    H146356   2.589   3.645  12.125 -0.3309 -1.9400 -3.3096
 7387TIP3    H246357   2.511   3.775  12.133  1.9103 -0.6616  0.7800
 7388TIP3   OH246358   3.601   6.260   9.598 -0.4062  0.3843  0.0426
 7388TIP3    H146359   3.656   6.336   9.584  0.0044 -0.0615 -0.8060
 7388TIP3    H246360   3.529   6.270   9.536 -0.9874  0.6653  0.7414
 7389TIP3   OH246361   4.518   0.641  10.310 -0.1065 -0.1600 -0.6265
 7389TIP3    H146362   4.436   0.594  10.295 -0.2094 -0.6047  1.0401
 7389TIP3    H246363   4.585   0.573  10.315 -0.2502 -0.2111  1.7691
 7390TIP3   OH246364   3.051   1.014   9.367 -0.0196  0.7354  0.0637
 7390TIP3    H146365   3.013   1.096   9.400 -1.9399 -0.2612  0.4768
 7390TIP3    H246366   2.978   0.968   9.326  0.6097 -1.5057  1.2627
 7391TIP3   OH246367   0.407   1.011  11.748  0.1420 -0.4902  0.3429
 7391TIP3    H146368   0.501   1.006  11.768  0.1557  1.1993  0.8563
 7391TIP3    H246369   0.367   1.039  11.830 -1.2629 -4.0410  1.0433
 7392TIP3   OH246370   1.463   2.680  12.429 -0.4590 -0.3769  0.0150
 7392TIP3    H146371   1.459   2.699  12.335  0.2439  0.4347  0.1377
 7392TIP3    H246372   1.520   2.603  12.435 -0.1865 -0.1957 -0.1954
 7393TIP3   OH246373   1.386   6.253  10.669 -0.0976  0.2633  0.2005
 7393TIP3    H146374   1.338   6.227  10.591  0.2126  0.1700  0.0373
 7393TIP3    H246375   1.456   6.310  10.636  0.5597 -0.4599  0.3068
 7394TIP3   OH246376   5.235   3.679  11.671  0.1779  0.9428  0.1527
 7394TIP3    H146377   5.229   3.584  11.681  0.4810  0.6366 -2.0665
 7394TIP3    H246378   5.323   3.701  11.699  0.1326  0.5614  0.6068
 7395TIP3   OH246379   5.437   6.501  11.467  0.3250 -0.1343  0.5517
 7395TIP3    H146380   5.407   6.412  11.484  1.2145 -0.4166  0.6883
 7395TIP3    H246381   5.364   6.543  11.422 -0.3602 -0.7240  1.0857
 7396TIP3   OH246382   3.203   0.960  10.693 -0.2846 -0.1158 -0.5193
 7396TIP3    H146383   3.133   0.931  10.635 -0.8573  0.3686 -0.0876
 7396TIP3    H246384   3.159   1.013  10.759  0.0217 -2.1995  1.4986
 7397TIP3   OH246385   1.915   0.744   9.613  0.0802  0.2153 -0.0395
 7397TIP3    H146386   1.847   0.786   9.559  0.3695  1.0329  0.2144
 7397TIP3    H246387   1.869   0.715   9.691  0.1412  1.4509  0.4792
 7398TIP3   OH246388   1.481   4.484  11.941 -0.0440 -0.2692 -0.2202
 7398TIP3    H146389   1.561   4.438  11.917  1.6474  2.3294  0.0044
 7398TIP3    H246390   1.501   4.526  12.025 -1.5283  0.6625 -0.2888
 7399TIP3   OH246391   3.608   3.967  11.396  0.5072 -0.2443  0.3156
 7399TIP3    H146392   3.513   3.969  11.384  0.6376 -0.4563 -0.8936
 7399TIP3    H246393   3.625   3.883  11.438  0.3232 -1.1759 -1.3755
 7400TIP3   OH246394   6.508   3.773  13.406  0.0621  0.2953 -0.0667
 7400TIP3    H146395   6.469   3.851  13.367 -1.2492 -0.4462 -0.3268
 7400TIP3    H246396   6.511   3.710  13.334 -0.4887 -0.4256  0.5244
 7401TIP3   OH246397   0.429   2.633  12.196 -0.0871 -0.1622  0.0893
 7401TIP3    H146398   0.434   2.721  12.234 -2.5436  0.8385 -1.6662
 7401TIP3    H246399   0.459   2.575  12.266 -0.6047  1.8664  2.1132
 7402TIP3   OH246400   5.853   0.513  11.763 -0.2675 -0.4009  0.4063
 7402TIP3    H146401   5.839   0.606  11.781 -0.2874  0.0229 -1.5636
 7402TIP3    H246402   5.767   0.480  11.738 -0.3265 -1.0384  1.4233
 7403TIP3   OH246403   0.643   3.238   9.938  0.5148  0.0893  0.1072
 7403TIP3    H146404   0.589   3.178   9.989  1.3346 -1.2640 -0.5568
 7403TIP3    H246405   0.731   3.228   9.975  0.4837  1.7369  0.7192
 7404TIP3   OH246406   1.402   0.392  11.583 -0.1661 -0.4352 -0.6651
 7404TIP3    H146407   1.482   0.439  11.605  0.3192 -0.9714 -1.2460
 7404TIP3    H246408   1.388   0.411  11.490 -1.1240  0.2430 -0.4008
 7405TIP3   OH246409   4.865   3.312  10.033  0.7270  0.0824 -0.4038
 7405TIP3    H146410   4.825   3.383   9.983  2.1100  0.4490 -1.0561
 7405TIP3    H246411   4.834   3.232   9.990 -0.1970  0.3172 -0.1767
 7406TIP3   OH246412   5.261   4.304  12.376 -0.2721  0.2835 -0.6401
 7406TIP3    H146413   5.255   4.312  12.281 -2.4711 -0.7368 -0.6535
 7406TIP3    H246414   5.305   4.384  12.404 -2.4458  2.2297 -2.2869
 7407TIP3   OH246415   2.709   1.808   9.111 -0.3735 -0.2572  0.1677
 7407TIP3    H146416   2.674   1.787   9.024 -1.0158 -0.7087  0.5225
 7407TIP3    H246417   2.709   1.724   9.157  3.1333 -0.7354 -0.4350
 7408TIP3   OH246418   0.223   0.396  13.266  0.7711  0.3152  0.1048
 7408TIP3    H146419   0.253   0.432  13.183  2.2886  0.7603  0.8234
 7408TIP3    H246420   0.244   0.303  13.260  0.8702  0.3438 -0.0066
 7409TIP3   OH246421   5.543   3.018  11.560  0.1491  0.0965 -0.1497
 7409TIP3    H146422   5.574   2.987  11.645  0.0551 -1.2029 -0.5729
 7409TIP3    H246423   5.504   2.941  11.519  1.2112  0.4152 -1.8430
 7410TIP3   OH246424   0.579   6.556  11.807  0.6863  0.0880 -0.1375
 7410TIP3    H146425   0.522   6.519  11.874 -0.2920 -1.2334 -1.6040
 7410TIP3    H246426   0.529   6.629  11.770 -0.0260 -0.9184 -1.2570
 7411TIP3   OH246427   3.323   4.198  12.044  0.4299 -0.3387 -0.1984
 7411TIP3    H146428   3.286   4.177  12.130 -0.6365 -0.0962 -0.5822
 7411TIP3    H246429   3.286   4.284  12.023  1.4400  0.0412 -0.4911
 7412TIP3   OH246430   5.978   4.894  11.694 -0.1932  0.0754 -0.6489
 7412TIP3    H146431   5.947   4.804  11.707 -0.9734  0.2977 -0.9618
 7412TIP3    H246432   6.069   4.883  11.665 -0.7515 -0.6870 -2.2328
 7413TIP3   OH246433   0.726   0.451  10.079 -0.5220  0.0891  0.2253
 7413TIP3    H146434   0.750   0.363  10.052  0.4181 -0.4156  2.4733
 7413TIP3    H246435   0.730   0.449  10.175 -0.0109  2.6918  0.3368
 7414TIP3   OH246436   5.432   0.051  12.826 -0.4042  0.4704 -0.4872
 7414TIP3    H146437   5.391   0.009  12.751  0.9137  0.2671 -1.1304
 7414TIP3    H246438   5.489  -0.018  12.863 -0.3551  0.8433  0.1426
 7415TIP3   OH246439   6.603   1.457  13.459  0.1253 -0.0478 -0.6100
 7415TIP3    H146440   6.606   1.408  13.377 -0.0926  1.3736 -1.5016
 7415TIP3    H246441   6.526   1.425  13.504 -0.0155 -0.5189 -1.1753
 7416TIP3   OH246442   4.285   5.049  12.335 -0.0104 -0.3188 -0.7032
 7416TIP3    H146443   4.223   5.118  12.359  0.8680  0.3507 -0.2907
 7416TIP3    H246444   4.311   5.010  12.418  1.8414  0.9553 -0.6129
 7417TIP3   OH246445   5.205   6.408  10.477  0.3235 -0.1550 -0.1736
 7417TIP3    H146446   5.137   6.418  10.410  0.6812 -0.5862 -0.6054
 7417TIP3    H246447   5.216   6.313  10.486  2.7204 -0.1719 -2.0377
 7418TIP3   OH246448   2.310   5.204   9.543  0.0238 -0.0177 -0.0799
 7418TIP3    H146449   2.376   5.136   9.527 -0.4552 -0.9715  1.7517
 7418TIP3    H246450   2.241   5.186   9.478  0.5227 -0.4119 -0.5164
 7419TIP3   OH246451   5.968   4.599   9.611  0.2763 -0.3427 -0.3615
 7419TIP3    H146452   5.924   4.684   9.607 -0.7353 -0.7668  0.9069
 7419TIP3    H246453   5.897   4.535   9.621  1.0936 -0.9250  3.1964
 7420TIP3   OH246454   1.053   5.450  12.416 -0.4828 -0.1343  0.4370
 7420TIP3    H146455   1.058   5.524  12.355 -0.5271  0.4980  1.1899
 7420TIP3    H246456   0.971   5.405  12.392  1.0490 -1.8397 -2.0987
 7421TIP3   OH246457   0.028   3.681   9.989 -0.7455 -0.2011  0.3859
 7421TIP3    H146458   0.010   3.717  10.076 -0.0281 -2.8413  1.7498
 7421TIP3    H246459   0.118   3.707   9.971 -0.9951  0.6066  0.2916
 7422TIP3   OH246460   1.437   0.392  12.013  0.1190  0.2775  0.0802
 7422TIP3    H146461   1.453   0.386  12.107  2.2217  0.9787 -0.1826
 7422TIP3    H246462   1.440   0.301  11.983  2.2834  0.2202  0.3257
 7423TIP3   OH246463   3.869   2.296  12.449 -0.3723  0.0247  0.2444
 7423TIP3    H146464   3.809   2.292  12.375  1.0655  1.0268 -1.0205
 7423TIP3    H246465   3.812   2.291  12.526 -1.8840 -1.2402 -0.8912
 7424TIP3   OH246466   4.530   5.713   9.536  0.1485  0.4214  0.1728
 7424TIP3    H146467   4.542   5.628   9.495  0.7548  1.6933 -2.5197
 7424TIP3    H246468   4.460   5.700   9.600 -0.2588 -1.9049 -0.6742
 7425TIP3   OH246469   6.595   3.252   9.545 -0.1769  0.4623 -0.4928
 7425TIP3    H146470   6.623   3.316   9.610 -0.9749 -1.1466  1.5759
 7425TIP3    H246471   6.672   3.197   9.532 -0.5993 -0.4942  0.7977
 7426TIP3   OH246472   5.309   1.514  11.378  0.3067  0.0838 -0.1741
 7426TIP3    H146473   5.374   1.584  11.388  0.6357 -0.2769  0.2498
 7426TIP3    H246474   5.226   1.555  11.401  0.6055  0.1315  0.8603
 7427TIP3   OH246475   3.830   0.596  12.973 -0.1754 -0.3406  0.1830
 7427TIP3    H146476   3.924   0.593  12.990  0.0645 -0.3545 -1.1050
 7427TIP3    H246477   3.799   0.508  12.995 -0.4899  0.4762  3.6679
 7428TIP3   OH246478   0.322   3.776  12.962 -0.0198  0.6097 -0.5089
 7428TIP3    H146479   0.363   3.858  12.992  1.8301 -0.3553 -0.2768
 7428TIP3    H246480   0.299   3.730  13.043 -0.5803  0.6572 -0.6375
 7429TIP3   OH246481   3.775   5.600   9.934 -0.1146  0.5084  0.0976
 7429TIP3    H146482   3.762   5.693   9.919 -0.0985  0.3990 -0.6363
 7429TIP3    H246483   3.698   5.573   9.985 -0.3511  0.8243 -0.0883
 7430TIP3   OH246484   1.687   6.005  10.391  0.5629 -0.6791  0.3691
 7430TIP3    H146485   1.606   5.999  10.440 -0.3868  2.7219 -0.5107
 7430TIP3    H246486   1.726   6.088  10.418  3.1534 -1.5973 -0.1630
 7431TIP3   OH246487   4.412   6.520  10.323  0.2905  0.1210 -0.1187
 7431TIP3    H146488   4.407   6.616  10.319  2.8944  0.3356  0.2160
 7431TIP3    H246489   4.321   6.492  10.331 -0.6376  2.4986 -1.3211
 7432TIP3   OH246490   6.502   4.312  10.787  0.3969 -0.1569 -0.2477
 7432TIP3    H146491   6.416   4.319  10.747  0.1672 -0.2566  0.2247
 7432TIP3    H246492   6.539   4.231  10.751  0.2487 -0.1754 -0.3578
 7433TIP3   OH246493   3.181   1.934  10.288  0.3196 -0.4142  0.3363
 7433TIP3    H146494   3.205   1.904  10.200  3.0190  0.2487  0.7435
 7433TIP3    H246495   3.261   1.923  10.340 -0.1407  2.3199  1.8548
 7434TIP3   OH246496   6.569   0.948  12.017 -0.4737 -0.0633 -0.1156
 7434TIP3    H146497   6.587   0.992  12.100 -2.2868  0.0804  0.2355
 7434TIP3    H246498   6.519   0.870  12.041  0.6894 -1.1004 -0.9271
 7435TIP3   OH246499   1.708   4.119  10.164  0.1751 -0.3454 -0.6395
 7435TIP3    H146500   1.625   4.101  10.207  1.0269 -0.6784  0.9391
 7435TIP3    H246501   1.757   4.037  10.171  0.8004 -0.0322 -1.1779
 7436TIP3   OH246502   3.178   0.052  11.118  0.1829 -0.1558  0.5544
 7436TIP3    H146503   3.142  -0.007  11.052  0.5933  0.1113  0.0784
 7436TIP3    H246504   3.269   0.065  11.091 -0.1506  1.4406  0.1065
 7437TIP3   OH246505   2.226   1.403  12.119 -1.0906  0.7787 -0.3231
 7437TIP3    H146506   2.234   1.465  12.192 -1.7985  0.1883  0.2779
 7437TIP3    H246507   2.242   1.456  12.041  1.8275  0.9995  0.3129
 7438TIP3   OH246508   2.469   2.883  10.093 -0.1664 -0.0141 -0.2049
 7438TIP3    H146509   2.535   2.940  10.133 -1.2141  2.7279 -2.0850
 7438TIP3    H246510   2.513   2.800  10.081  0.7585 -0.5830  4.8725
 7439TIP3   OH246511   5.601   2.711  11.183 -0.1325 -0.1392 -0.2300
 7439TIP3    H146512   5.517   2.744  11.216  0.0233  0.3700 -0.3392
 7439TIP3    H246513   5.584   2.690  11.091 -0.6064 -1.6970  0.1710
 7440TIP3   OH246514   1.477   1.662  10.119  0.8930  0.6317  0.2123
 7440TIP3    H146515   1.559   1.652  10.072  0.0704 -0.7380 -1.0129
 7440TIP3    H246516   1.503   1.682  10.209  2.6032 -1.2715  0.2166
 7441TIP3   OH246517   1.459   1.102   9.152  0.8510  0.1337  0.3860
 7441TIP3    H146518   1.437   1.105   9.059  1.5100 -1.3266  0.1594
 7441TIP3    H246519   1.380   1.069   9.194  0.7700  0.1798  0.2720
 7442TIP3   OH246520   2.997   4.958   9.477 -0.1703  0.2310 -0.2016
 7442TIP3    H146521   2.927   5.024   9.479 -1.8193 -1.4218 -0.1234
 7442TIP3    H246522   2.950   4.875   9.466  1.6755 -1.1568  1.7210
 7443TIP3   OH246523   3.203   1.469  10.269  0.3749  0.4149  0.0972
 7443TIP3    H146524   3.141   1.476  10.342 -0.4820 -0.8112 -0.4733
 7443TIP3    H246525   3.182   1.543  10.212 -2.3735 -1.2783 -1.3519
 7444TIP3   OH246526   1.516   2.186   9.642  0.0109 -0.6230  0.7212
 7444TIP3    H146527   1.571   2.228   9.576  1.3770  0.0571  2.2164
 7444TIP3    H246528   1.553   2.098   9.651 -1.3786 -1.3919 -0.7412
 7445TIP3   OH246529   1.478   4.166  11.412 -0.3714  0.0985 -1.1571
 7445TIP3    H146530   1.438   4.203  11.333 -1.5811 -0.1540 -0.6774
 7445TIP3    H246531   1.433   4.083  11.425 -0.2594  0.1924 -0.1260
 7446TIP3   OH246532   6.163   3.102  12.150 -0.0224 -0.0422  0.3119
 7446TIP3    H146533   6.201   3.015  12.150 -0.3619 -0.1945 -0.1218
 7446TIP3    H246534   6.234   3.160  12.178  0.4661 -0.3482 -0.2640
 7447TIP3   OH246535   5.714   0.198  12.285 -0.1831  0.5354 -0.6041
 7447TIP3    H146536   5.665   0.243  12.216  0.6629  1.5314 -0.5847
 7447TIP3    H246537   5.715   0.260  12.358  0.4808  0.2334 -0.3467
 7448TIP3   OH246538   5.209   2.280  11.424 -0.1121 -0.1684 -1.1526
 7448TIP3    H146539   5.266   2.351  11.453 -0.8199  0.9994 -2.4608
 7448TIP3    H246540   5.248   2.201  11.460  0.7213  0.8649  0.3491
 7449TIP3   OH246541   2.248   4.003  12.337  1.2141  0.1408 -0.0549
 7449TIP3    H146542   2.257   4.098  12.349  2.0426 -0.1839  2.3622
 7449TIP3    H246543   2.247   3.991  12.242 -3.0392  2.9240 -0.6401
 7450TIP3   OH246544   1.728   1.171  12.184 -0.0541 -0.3011  0.3337
 7450TIP3    H146545   1.638   1.153  12.155  0.0251 -0.6326  0.2843
 7450TIP3    H246546   1.764   1.229  12.117 -0.6376  0.8699  1.0105
 7451TIP3   OH246547   1.339   3.931  11.453 -0.0526  0.6699 -0.1750
 7451TIP3    H146548   1.275   3.953  11.521  1.0982  0.6975  0.9293
 7451TIP3    H246549   1.371   3.844  11.478 -0.7094 -0.0056 -1.5497
 7452TIP3   OH246550   6.280   5.712  12.227  0.4186  0.5015 -0.0769
 7452TIP3    H146551   6.372   5.730  12.247  0.6299  1.1066 -1.5208
 7452TIP3    H246552   6.280   5.625  12.189  0.0631 -0.4828  2.0108
 7453TIP3   OH246553   5.971   4.371  12.115  1.2387 -0.0132  0.1414
 7453TIP3    H146554   5.911   4.436  12.078  1.5336  0.5352  0.6122
 7453TIP3    H246555   5.934   4.352  12.202  0.5684 -1.2621 -0.3911
 7454TIP3   OH246556   0.499   2.064  12.765  0.4254 -0.0136 -0.4413
 7454TIP3    H146557   0.532   2.005  12.697  0.8558  0.8730 -1.0353
 7454TIP3    H246558   0.515   2.152  12.729  1.3292  0.4870  1.1339
 7455TIP3   OH246559   4.566   6.239  10.561  0.3148 -0.2701 -0.6004
 7455TIP3    H146560   4.498   6.172  10.550 -0.0713  0.2909 -1.8305
 7455TIP3    H246561   4.594   6.260  10.472 -0.2340  1.8502 -0.3407
 7456TIP3   OH246562   0.845   4.725   9.974 -0.1717  0.2211  0.0356
 7456TIP3    H146563   0.904   4.681   9.912 -0.9383  1.0510 -1.3448
 7456TIP3    H246564   0.783   4.772   9.918 -1.6507  0.0272  1.4543
 7457TIP3   OH246565   6.431   4.701  10.510 -0.0187  0.8356 -0.3797
 7457TIP3    H146566   6.409   4.640  10.440 -1.7845 -0.4878  1.2308
 7457TIP3    H246567   6.415   4.788  10.472  1.4949  0.3352 -2.3575
 7458TIP3   OH246568   2.848   2.157  10.716 -0.8936  0.1025  0.3655
 7458TIP3    H146569   2.882   2.182  10.802 -1.9716  0.4130  0.7185
 7458TIP3    H246570   2.926   2.145  10.662 -0.1852 -0.3636  1.4513
 7459TIP3   OH246571   3.593   4.163  12.011 -0.6193 -0.9094  0.5102
 7459TIP3    H146572   3.611   4.133  11.922  0.0735 -1.7664  0.9205
 7459TIP3    H246573   3.498   4.173  12.014 -0.5013  1.7687 -1.1136
 7460TIP3   OH246574   0.888   5.340  10.117  0.1484 -0.4460  0.9848
 7460TIP3    H146575   0.881   5.307  10.207  2.0311 -1.8655  0.6729
 7460TIP3    H246576   0.922   5.429  10.126 -2.0699  0.3906  1.7275
 7461TIP3   OH246577   2.797   1.684  12.476 -0.3589  0.1087 -0.0110
 7461TIP3    H146578   2.737   1.740  12.525  1.8192  2.6084  0.0500
 7461TIP3    H246579   2.871   1.670  12.535 -0.2754 -1.8444 -0.5058
 7462TIP3   OH246580   0.069   6.047  10.649 -0.3267 -0.0065 -0.0898
 7462TIP3    H146581   0.095   6.092  10.568 -0.6299  0.1084 -0.1239
 7462TIP3    H246582   0.114   5.963  10.645 -1.8836 -0.8372 -1.3539
 7463TIP3   OH246583   3.199   2.251  13.183  0.2673 -0.5929 -0.5112
 7463TIP3    H146584   3.292   2.233  13.169  0.6106  0.3273  0.4268
 7463TIP3    H246585   3.154   2.176  13.146  1.4499 -1.6284  0.0879
 7464TIP3   OH246586   2.284   4.332  11.871  0.4284  0.7442  0.1168
 7464TIP3    H146587   2.264   4.329  11.778  2.4819  2.2721 -0.4451
 7464TIP3    H246588   2.357   4.271  11.881 -0.0049  0.3264  0.8065
 7465TIP3   OH246589   4.184   3.530  11.552 -0.7691 -0.2448 -0.0551
 7465TIP3    H146590   4.124   3.478  11.498 -0.9869  0.7405 -0.7804
 7465TIP3    H246591   4.265   3.534  11.501  0.1579 -2.0462  1.1683
 7466TIP3   OH246592   0.665   3.199  11.294 -0.1409 -0.2543 -0.3379
 7466TIP3    H146593   0.719   3.226  11.369  1.3663 -0.8720 -1.1660
 7466TIP3    H246594   0.722   3.208  11.218 -1.1396 -1.1550 -1.2284
 7467TIP3   OH246595   5.942   5.844  12.515  0.3661 -0.2237  0.2359
 7467TIP3    H146596   6.028   5.878  12.493  0.7873 -1.1758  0.3815
 7467TIP3    H246597   5.886   5.870  12.441  0.6152  0.9236  0.4231
 7468TIP3   OH246598   1.148   6.347  11.237  0.0536  0.7389 -0.0317
 7468TIP3    H146599   1.105   6.317  11.317  0.1615 -0.6337 -0.4606
 7468TIP3    H246600   1.080   6.394  11.188 -0.1467  1.1309  0.6203
 7469TIP3   OH246601   2.134   3.846  10.060 -0.3508 -0.1625 -0.0268
 7469TIP3    H146602   2.092   3.761  10.048 -0.1884 -0.1892 -0.4259
 7469TIP3    H246603   2.204   3.830  10.124 -1.6172  0.1080  1.4977
 7470TIP3   OH246604   1.727   5.937  13.298 -0.0398  0.0419 -0.0972
 7470TIP3    H146605   1.793   5.925  13.229  0.8256 -1.4513  0.9415
 7470TIP3    H246606   1.751   6.021  13.338  2.1659 -1.1103  1.1643
 7471TIP3   OH246607   0.402   2.588  12.685  0.2579  0.0746  0.7521
 7471TIP3    H146608   0.317   2.553  12.657  0.4333 -0.0911  0.4238
 7471TIP3    H246609   0.382   2.637  12.765 -0.1573  0.0949  0.6402
 7472TIP3   OH246610   4.016   1.395  11.497 -0.4250 -0.3681  1.0885
 7472TIP3    H146611   3.974   1.481  11.494  0.4365  0.0652  1.0448
 7472TIP3    H246612   4.021   1.367  11.406  1.5474  0.6911  0.8057
 7473TIP3   OH246613   0.676   0.744  10.485 -0.2404 -0.1004 -0.2423
 7473TIP3    H146614   0.681   0.747  10.580 -0.8861  0.0116 -0.2081
 7473TIP3    H246615   0.734   0.672  10.460  0.9113  0.6622  0.1452
 7474TIP3   OH246616   2.688   6.180  12.745 -0.2024 -0.3383  0.4918
 7474TIP3    H146617   2.734   6.192  12.829 -1.9035 -3.1432  1.9583
 7474TIP3    H246618   2.747   6.125  12.694 -0.6566 -1.6408  1.3105
 7475TIP3   OH246619   1.897   2.900  12.447 -0.5406 -0.3068 -0.0671
 7475TIP3    H146620   1.836   2.892  12.373 -0.3079  1.8374 -0.5626
 7475TIP3    H246621   1.848   2.867  12.522 -1.5868 -0.4722 -0.7984
 7476TIP3   OH246622   2.982   2.795  10.832 -0.3883  0.5490 -0.3312
 7476TIP3    H146623   3.058   2.790  10.775 -0.2411 -2.0434 -0.0097
 7476TIP3    H246624   3.011   2.845  10.908  0.7881  0.1693 -0.5213
 7477TIP3   OH246625   4.862   4.621  10.396 -0.1753 -0.6304 -0.4864
 7477TIP3    H146626   4.883   4.601  10.304 -0.5181 -0.4553 -0.6038
 7477TIP3    H246627   4.766   4.618  10.400 -0.1876 -0.0429 -0.2681
 7478TIP3   OH246628   2.758   2.355  10.524 -0.2926  0.2452  0.3529
 7478TIP3    H146629   2.664   2.350  10.506 -0.1278 -0.4514 -0.3718
 7478TIP3    H246630   2.779   2.270  10.561  0.2786 -0.0543 -0.6340
 7479TIP3   OH246631   0.804   5.286  18.973 -0.3695 -0.1784 -0.3804
 7479TIP3    H146632   0.856   5.318  18.898 -0.4351  0.7534 -0.0468
 7479TIP3    H246633   0.753   5.214  18.937 -2.2543  1.7774 -1.9208
 7480TIP3   OH246634   6.308   6.320  12.193 -0.4788  0.2041  0.5360
 7480TIP3    H146635   6.348   6.371  12.123 -0.3620 -0.3866  0.1678
 7480TIP3    H246636   6.381   6.293  12.248 -0.5269  0.3083  0.6534
 7481TIP3   OH246637   5.178   2.588  11.834  0.2578  0.1706  0.0560
 7481TIP3    H146638   5.116   2.525  11.872  1.0490  0.6723  2.3168
 7481TIP3    H246639   5.154   2.591  11.741 -1.6175 -1.3450  0.4140
 7482TIP3   OH246640   4.600   4.388   9.415 -0.0117  0.3651 -0.2986
 7482TIP3    H146641   4.587   4.455   9.483 -0.5407  0.8559 -0.8701
 7482TIP3    H246642   4.512   4.371   9.381  0.0587 -0.9849  0.1673
 7483TIP3   OH246643   1.094   2.800  11.012 -0.0644  0.5023  0.2135
 7483TIP3    H146644   1.177   2.763  10.983 -0.3164 -0.4684  0.6650
 7483TIP3    H246645   1.089   2.777  11.105 -1.5593 -0.9058 -0.1667
 7484TIP3   OH246646   3.268   4.320  11.751  0.1769 -0.1757 -0.2566
 7484TIP3    H146647   3.274   4.360  11.838  0.3073  0.4425 -0.5431
 7484TIP3    H246648   3.190   4.358  11.712 -0.0552 -0.6857 -0.2990
 7485TIP3   OH246649   1.080   2.331  10.411  0.7573  0.2872  0.6034
 7485TIP3    H146650   1.148   2.315  10.345  1.2948 -1.7565  1.5779
 7485TIP3    H246651   1.127   2.369  10.485  0.1443  2.6289 -0.1263
 7486TIP3   OH246652   2.959   6.149  12.009 -0.3382 -0.3341  0.5825
 7486TIP3    H146653   3.051   6.173  12.018 -0.8141  2.0751 -0.2962
 7486TIP3    H246654   2.961   6.055  11.991  1.9402 -0.3321  0.4677
 7487TIP3   OH246655   0.854   5.881  10.134  0.2242 -0.3933 -0.3181
 7487TIP3    H146656   0.760   5.863  10.124  0.0003  0.3453  0.3274
 7487TIP3    H246657   0.897   5.818  10.076 -0.7063 -0.1736 -1.2835
 7488TIP3   OH246658   0.844   1.825  11.746  0.1390  0.1445  0.2540
 7488TIP3    H146659   0.822   1.838  11.654 -1.3768  1.5543  0.7644
 7488TIP3    H246660   0.875   1.911  11.775 -1.8285  0.4746  1.6274
 7489TIP3   OH246661   2.041   0.794  10.820  0.3795 -0.1342  0.0849
 7489TIP3    H146662   1.978   0.865  10.806  1.8391  1.2390  0.0859
 7489TIP3    H246663   2.082   0.815  10.904  2.6086  0.5117 -1.0654
 7490TIP3   OH246664   5.068   5.232  10.744 -0.3416  0.1060  0.2288
 7490TIP3    H146665   5.144   5.291  10.747 -0.4314  0.2798 -0.6793
 7490TIP3    H246666   5.001   5.277  10.796 -0.7091  1.2655 -1.1794
 7491TIP3   OH246667   0.713   2.712  13.471 -0.1976  0.7888  0.5086
 7491TIP3    H146668   0.808   2.711  13.474 -0.1976  0.2461  0.5290
 7491TIP3    H246669   0.688   2.619  13.475 -0.7467  0.9530  1.1907
 7492TIP3   OH246670   1.899   2.215  12.223  0.5447  0.0289  0.1745
 7492TIP3    H146671   1.931   2.286  12.168  1.3533  0.2027  0.8458
 7492TIP3    H246672   1.978   2.164  12.244  0.3062  0.1638  1.4459
 7493TIP3   OH246673   3.662   0.187  10.937 -0.3703 -0.4117  0.1304
 7493TIP3    H146674   3.750   0.158  10.961  0.4775  1.2359 -0.8169
 7493TIP3    H246675   3.662   0.186  10.841 -1.1364  0.2770  0.1122
 7494TIP3   OH246676   5.067   6.431   9.908 -0.0209 -0.1812  0.1167
 7494TIP3    H146677   5.056   6.526   9.905 -1.9060 -0.3836 -1.1892
 7494TIP3    H246678   5.160   6.418   9.929  0.2431  1.9331  0.4635
 7495TIP3   OH246679   4.761   2.479  11.024  0.2024  0.2951  0.4577
 7495TIP3    H146680   4.705   2.553  10.999 -0.6802 -0.6478 -0.4821
 7495TIP3    H246681   4.763   2.482  11.119 -1.1541  0.5961  0.4979
 7496TIP3   OH246682   4.799   3.599   9.790 -0.3961 -0.4286 -0.0788
 7496TIP3    H146683   4.783   3.519   9.740  0.7238 -0.7185  0.0002
 7496TIP3    H246684   4.825   3.663   9.724  1.3831 -0.8925  0.0932
 7497TIP3   OH246685   0.796   1.702   9.745  0.3763  0.1055 -0.4144
 7497TIP3    H146686   0.772   1.653   9.824  1.2138 -0.2603 -0.3793
 7497TIP3    H246687   0.891   1.695   9.740  0.6779  2.8519  0.3145
 7498TIP3   OH246688   5.688   6.059  11.182 -0.3589 -0.4411 -0.3019
 7498TIP3    H146689   5.783   6.051  11.192 -0.3509  0.2026  0.1932
 7498TIP3    H246690   5.676   6.097  11.095  0.0738  3.5605  1.1975
 7499TIP3   OH246691   1.115   4.491  10.052  0.6804  0.3793 -0.0464
 7499TIP3    H146692   1.193   4.542  10.074  0.2327  1.0923 -0.0859
 7499TIP3    H246693   1.118   4.483   9.957  1.7608 -1.3247  0.0958
 7500TIP3   OH246694   1.529   0.712  12.863 -0.2566 -0.2663  0.2397
 7500TIP3    H146695   1.592   0.667  12.918 -0.4131  1.6888  2.1890
 7500TIP3    H246696   1.453   0.726  12.921 -1.2966 -0.0226 -1.1431
 7501TIP3   OH246697   1.159   1.437  12.190 -0.2577 -0.6113 -0.2759
 7501TIP3    H146698   1.246   1.445  12.151 -0.5979 -1.6164 -1.3010
 7501TIP3    H246699   1.156   1.347  12.224 -0.0204  0.1761  2.0359
 7502TIP3   OH246700   4.812   2.929  10.797 -0.4606  0.4979  0.7096
 7502TIP3    H146701   4.720   2.951  10.810 -0.4078  1.6146 -0.5725
 7502TIP3    H246702   4.811   2.840  10.761 -1.1860  1.1515 -0.9991
 7503TIP3   OH246703   4.521   0.826  10.028 -0.0044  0.2829 -0.3248
 7503TIP3    H146704   4.572   0.851   9.951  0.3316  1.3552  0.2174
 7503TIP3    H246705   4.581   0.776  10.082  0.1735  0.6984 -0.1376
 7504TIP3   OH246706   1.055   2.996  10.797 -0.3870  0.1252  0.5390
 7504TIP3    H146707   1.150   3.000  10.786 -0.6428  0.7762 -2.5743
 7504TIP3    H246708   1.037   2.905  10.823  1.0580 -0.1887  0.4838
 7505TIP3   OH246709   5.394   6.366  11.124 -0.4567  0.2336  0.1440
 7505TIP3    H146710   5.305   6.401  11.116 -0.6720 -0.5241 -1.0108
 7505TIP3    H246711   5.385   6.273  11.105  0.6806  0.2744 -0.7055
 7506TIP3   OH246712   5.446   5.458  13.716 -0.4953  0.0954  0.5269
 7506TIP3    H146713   5.491   5.378  13.745 -1.9883 -0.7138  0.7507
 7506TIP3    H246714   5.516   5.517  13.691  0.6737 -1.2191  0.5398
 7507TIP3   OH246715   5.359   2.440  11.197  0.0014  0.5150  0.1806
 7507TIP3    H146716   5.319   2.526  11.200 -0.5645  0.2599  2.8570
 7507TIP3    H246717   5.441   2.450  11.245 -0.5985 -0.5979  1.5381
 7508TIP3   OH246718   4.255   2.427   9.516  0.1927  0.0800 -0.1805
 7508TIP3    H146719   4.293   2.510   9.544  0.3574 -0.2525  0.5907
 7508TIP3    H246720   4.171   2.452   9.478  1.3479  0.8944 -2.4300
 7509TIP3   OH246721   3.910   5.527  10.770  0.0107 -0.3126 -0.5533
 7509TIP3    H146722   3.852   5.533  10.847 -0.3268 -2.0312 -0.6268
 7509TIP3    H246723   3.998   5.522  10.807  0.1699  2.2097 -0.4348
 7510TIP3   OH246724   4.895   0.823  10.387 -0.0662 -0.4621 -0.3196
 7510TIP3    H146725   4.959   0.878  10.432 -1.3601 -0.3063  1.4748
 7510TIP3    H246726   4.947   0.758  10.341  1.4848  1.6167 -1.7171
 7511TIP3   OH246727   2.246   1.129  10.556 -0.3815 -0.3834  0.0546
 7511TIP3    H146728   2.210   1.041  10.547 -1.5994 -0.0713  1.5081
 7511TIP3    H246729   2.190   1.184  10.500  0.1461 -0.4653 -0.5604
 7512TIP3   OH246730   0.642   1.340   9.954 -0.1357  0.4611 -0.6660
 7512TIP3    H146731   0.617   1.364   9.865  0.3300 -0.1378 -0.9680
 7512TIP3    H246732   0.688   1.256   9.944  1.6958  1.3587 -0.1074
 7513TIP3   OH246733   2.739   0.951  10.468 -0.4334  0.0258  0.3683
 7513TIP3    H146734   2.671   1.019  10.474 -0.6078 -0.2300  1.6441
 7513TIP3    H246735   2.694   0.870  10.491 -0.0632 -0.4313 -0.4586
 7514TIP3   OH246736   3.295   1.902  11.464 -0.4718  0.2869 -0.1971
 7514TIP3    H146737   3.312   1.883  11.371  1.2770 -0.9548  0.3270
 7514TIP3    H246738   3.229   1.838  11.490  1.0754 -1.2671  0.0670
 7515TIP3   OH246739   5.115   0.298  10.359  0.2753 -0.0989  0.1084
 7515TIP3    H146740   5.121   0.252  10.443  1.5238  0.1263  0.1692
 7515TIP3    H246741   5.082   0.232  10.298 -0.8182 -0.2130  0.8021
 7516TIP3   OH246742   6.222   0.113  10.080 -0.1743  0.2769  0.2171
 7516TIP3    H146743   6.198   0.065  10.159  2.9242 -0.7082  0.7082
 7516TIP3    H246744   6.139   0.134  10.038 -1.8664 -0.3773  3.0046
 7517TIP3   OH246745   2.432   4.885  13.121 -0.0900  1.0825  0.2474
 7517TIP3    H146746   2.373   4.955  13.094  0.1706  1.2361  0.0688
 7517TIP3    H246747   2.374   4.814  13.148 -0.3556  1.2928  0.2366
 7518TIP3   OH246748   6.559   4.842  11.537  0.5751  0.3426  0.5201
 7518TIP3    H146749   6.616   4.773  11.503 -0.3161  0.5768 -1.6405
 7518TIP3    H246750   6.582   4.919  11.484 -0.0135  1.0937  1.3468
 7519TIP3   OH246751   3.925   0.740  11.481  0.3688 -0.1987 -0.4747
 7519TIP3    H146752   3.901   0.833  11.489  0.7889 -0.0580 -0.8166
 7519TIP3    H246753   3.988   0.726  11.552 -0.6621 -0.5594  0.4007
 7520TIP3   OH246754   1.816   4.397  12.320  0.0541  0.1152  0.0785
 7520TIP3    H146755   1.754   4.457  12.278 -0.1141 -0.7488 -0.9412
 7520TIP3    H246756   1.900   4.444  12.317  0.2461 -0.2473 -2.0698
 7521TIP3   OH246757   0.789   1.950   9.624 -0.1616 -0.3915 -0.5209
 7521TIP3    H146758   0.847   1.924   9.552  0.9751 -1.9612  0.8729
 7521TIP3    H246759   0.764   1.867   9.665 -0.1235  0.4805  1.3717
 7522TIP3   OH246760   3.219   4.950  11.745 -0.1382  0.1623  0.0664
 7522TIP3    H146761   3.222   5.033  11.697  0.1688  0.3650  0.4346
 7522TIP3    H246762   3.152   4.963  11.811  1.0991  0.7516  1.2670
 7523TIP3   OH246763   1.571   0.906  11.947 -0.8759  0.0590 -0.0224
 7523TIP3    H146764   1.494   0.958  11.972 -1.1668  0.1201 -0.9929
 7523TIP3    H246765   1.542   0.815  11.957 -1.2974  0.0732 -0.9635
 7524TIP3   OH246766   1.428   3.068   9.469  0.4061 -0.2122  0.4273
 7524TIP3    H146767   1.419   2.997   9.532 -1.4951  1.1046  1.7797
 7524TIP3    H246768   1.475   3.137   9.516 -0.1893  0.4306  0.1178
 7525TIP3   OH246769   3.646   1.696  10.549  0.4029  0.0314 -0.2767
 7525TIP3    H146770   3.626   1.604  10.532 -0.2220 -0.2821  1.9021
 7525TIP3    H246771   3.560   1.736  10.565  0.5927  1.1952 -1.8859
 7526TIP3   OH246772   5.065   2.002  12.073 -0.7833 -0.3561 -0.5854
 7526TIP3    H146773   5.052   1.948  12.151  2.5394 -2.2460 -1.1092
 7526TIP3    H246774   5.044   1.944  12.000 -2.2936  0.8661 -1.1630
 7527TIP3   OH246775   2.558   3.307  12.117  0.1727 -0.4745  0.0801
 7527TIP3    H146776   2.496   3.243  12.152  0.0127 -0.3765 -0.0256
 7527TIP3    H246777   2.511   3.349  12.045 -1.0063  2.1013  2.1610
 7528TIP3   OH246778   3.666   0.221  12.105 -0.1430 -0.1020  0.9034
 7528TIP3    H146779   3.678   0.129  12.130 -0.5493 -0.7529 -1.1613
 7528TIP3    H246780   3.666   0.220  12.010  0.4419  2.1449  0.8380
 7529TIP3   OH246781   2.853   5.057  12.369 -0.2132  0.0533 -0.5369
 7529TIP3    H146782   2.924   5.098  12.419 -1.3805  1.1365  0.3089
 7529TIP3    H246783   2.782   5.121  12.372 -1.8959 -1.7406  0.2338
 7530TIP3   OH246784   6.583   0.744  10.662  0.2935 -0.1075  0.6714
 7530TIP3    H146785   6.650   0.799  10.703  0.1300  0.5601  0.0681
 7530TIP3    H246786   6.540   0.802  10.599 -0.2068 -0.8001  0.3621
 7531TIP3   OH246787   0.867   4.626  10.807 -0.0040  0.6581  0.0351
 7531TIP3    H146788   0.791   4.572  10.828  0.4284 -0.2313 -0.5982
 7531TIP3    H246789   0.937   4.563  10.789  0.5656  1.4306 -0.5576
 7532TIP3   OH246790   0.519   4.393  10.606 -0.3425  0.1542 -0.2093
 7532TIP3    H146791   0.533   4.436  10.521  2.6794  1.1471  0.6612
 7532TIP3    H246792   0.562   4.308  10.597  2.4408  1.3020  1.0150
 7533TIP3   OH246793   3.033   6.566  10.872  0.3000  0.0636  0.0252
 7533TIP3    H146794   2.946   6.537  10.843 -0.2574  1.2699  0.4055
 7533TIP3    H246795   3.073   6.489  10.911 -0.1668 -0.7868 -1.1298
 7534TIP3   OH246796   2.009   5.807   9.966 -0.0564  0.3607  0.4778
 7534TIP3    H146797   1.919   5.840   9.971 -0.1973  0.3604 -1.3133
 7534TIP3    H246798   2.016   5.746  10.039 -1.7433 -0.1409  0.2691
 7535TIP3   OH246799   1.000   1.930  12.789 -0.1038 -0.6172  0.2724
 7535TIP3    H146800   1.058   1.859  12.764  0.1637 -0.4621  0.4493
 7535TIP3    H246801   1.011   1.938  12.884 -0.6901 -0.8322  0.3638
 7536TIP3   OH246802   1.605   0.864  13.352  0.7243 -0.3251 -0.2708
 7536TIP3    H146803   1.511   0.862  13.334  0.5366  0.0215  0.6164
 7536TIP3    H246804   1.640   0.791  13.301 -0.0279 -0.4650 -0.6061
 7537TIP3   OH246805   1.299   2.926  11.976 -0.2042  0.0126 -0.3611
 7537TIP3    H146806   1.267   2.845  12.016  2.7170 -1.2672 -0.4075
 7537TIP3    H246807   1.260   2.927  11.889  0.2211 -1.6761 -0.5865
 7538TIP3   OH246808   0.973   1.602  12.078  0.7061 -0.2230 -0.5518
 7538TIP3    H146809   1.018   1.653  12.010  0.9574  0.7119  0.3029
 7538TIP3    H246810   1.043   1.560  12.127  0.7608  1.8253  1.2508
 7539TIP3   OH246811   6.278   0.224  11.414  0.1405  0.8339 -0.1606
 7539TIP3    H146812   6.255   0.282  11.342  2.3898  2.1040  0.0669
 7539TIP3    H246813   6.255   0.274  11.493 -1.3637 -0.1433  0.0793
 7540TIP3   OH246814   2.406   2.749  10.588 -0.1921  0.5227  0.1217
 7540TIP3    H146815   2.338   2.682  10.590  2.1314 -2.1894 -2.2538
 7540TIP3    H246816   2.432   2.760  10.679 -0.8658 -1.6469  0.6332
 7541TIP3   OH246817   2.699   1.058  10.171 -0.4999 -0.4128  0.4254
 7541TIP3    H146818   2.697   1.142  10.124  0.0028 -0.5308  0.1833
 7541TIP3    H246819   2.741   0.998  10.109 -1.0277 -0.8861  0.5278
 7542TIP3   OH246820   6.336   4.085  11.046  0.5242 -0.0566 -0.0452
 7542TIP3    H146821   6.353   4.003  11.093 -0.8301 -1.4323 -1.7736
 7542TIP3    H246822   6.407   4.090  10.981  0.8069  0.3309  0.2938
 7543TIP3   OH246823   2.829   2.402  11.690  0.2526  1.0601  0.2956
 7543TIP3    H146824   2.835   2.474  11.629 -2.9172  1.1345 -0.0920
 7543TIP3    H246825   2.863   2.437  11.772  1.0336  2.1680 -0.4748
 7544TIP3   OH246826   5.713   3.015  12.473  0.6056  0.1169 -0.3184
 7544TIP3    H146827   5.757   3.001  12.389  1.4151  3.0314 -0.4993
 7544TIP3    H246828   5.708   3.111  12.482 -0.1303 -0.0887  2.6182
 7545TIP3   OH246829   6.398   0.636  10.871  0.1532 -0.0817  0.0242
 7545TIP3    H146830   6.396   0.691  10.950  0.2641 -0.1022  0.0412
 7545TIP3    H246831   6.423   0.695  10.800 -0.2990  0.0130 -0.0572
 7546TIP3   OH246832   0.193   6.575   9.997  0.2098 -0.8287  0.6079
 7546TIP3    H146833   0.112   6.578  10.047 -0.6526 -1.2932 -0.7222
 7546TIP3    H246834   0.230   6.663  10.006  0.7109 -1.2090  3.0073
 7547TIP3   OH246835   5.355   5.067  10.264 -0.2071  0.0574 -0.2063
 7547TIP3    H146836   5.291   5.042  10.331  0.7499 -0.2152  0.6386
 7547TIP3    H246837   5.355   5.163  10.266 -0.8569  0.0639 -0.4765
 7548TIP3   OH246838   4.731   3.510  11.526  0.2576 -0.6371 -0.1986
 7548TIP3    H146839   4.823   3.516  11.501 -0.2729 -0.1534 -2.2283
 7548TIP3    H246840   4.698   3.433  11.480 -0.8555  0.4931 -1.3825
 7549TIP3   OH246841   3.655   2.793  12.198  0.5247 -0.1944  0.1708
 7549TIP3    H146842   3.695   2.740  12.267  1.0207 -0.4985 -0.3433
 7549TIP3    H246843   3.634   2.876  12.241  0.1947 -0.6242  0.8628
 7550TIP3   OH246844   5.069   4.066  10.489 -0.3780  0.1982 -0.6986
 7550TIP3    H146845   5.160   4.090  10.503 -0.5083  1.6126 -1.9595
 7550TIP3    H246846   5.067   4.035  10.398 -0.8001 -1.8354 -0.0468
 7551TIP3   OH246847   2.370   1.043   9.724  0.5142  0.4470 -0.1622
 7551TIP3    H146848   2.291   0.995   9.699  0.6760  0.7520 -1.3434
 7551TIP3    H246849   2.360   1.059   9.818  0.6909 -2.2633  0.3977
 7552TIP3   OH246850   1.888   3.612  11.910 -0.5034  0.5891  0.2493
 7552TIP3    H146851   1.932   3.680  11.960  0.8312  1.0661 -1.4982
 7552TIP3    H246852   1.796   3.619  11.935 -0.5603  3.6194 -0.4917
 7553TIP3   OH246853   4.514   3.005  10.789  0.2159 -0.3196  0.3351
 7553TIP3    H146854   4.553   3.092  10.777  1.0341 -0.5044  1.4492
 7553TIP3    H246855   4.445   3.019  10.855 -1.3415 -0.0908 -1.2553
 7554TIP3   OH246856   3.809   6.272  11.346 -0.1072 -0.3831 -0.7778
 7554TIP3    H146857   3.794   6.216  11.422 -1.4489  0.8005 -0.1196
 7554TIP3    H246858   3.892   6.315  11.363  0.6285 -1.6712 -0.9949
 7555TIP3   OH246859   2.741   2.007  12.763  0.0324 -0.1131 -0.1163
 7555TIP3    H146860   2.679   1.935  12.752  1.1428 -1.4161  1.6097
 7555TIP3    H246861   2.824   1.971  12.732  1.2199 -0.6943  3.2960
 7556TIP3   OH246862   4.258   5.262   9.286 -0.0486 -0.6004 -0.6116
 7556TIP3    H146863   4.278   5.335   9.227 -0.2885 -1.4933 -1.8216
 7556TIP3    H246864   4.343   5.232   9.317  0.0134  0.9209  0.8482
 7557TIP3   OH246865   1.663   1.618  12.089  0.4408  0.1431 -0.2612
 7557TIP3    H146866   1.584   1.572  12.061 -0.2241 -0.2916  2.1199
 7557TIP3    H246867   1.679   1.587  12.178  1.7941  2.1978  0.2880
 7558TIP3   OH246868   0.146   2.520  10.360 -0.2306  0.3324  0.2059
 7558TIP3    H146869   0.140   2.447  10.421  0.9959 -0.5855 -0.7222
 7558TIP3    H246870   0.059   2.526  10.322 -1.1555  1.2158  2.3078
 7559TIP3   OH246871   4.756   2.466  11.296  0.6852  0.0873  0.1273
 7559TIP3    H146872   4.695   2.423  11.356 -0.0351  1.5299  0.4904
 7559TIP3    H246873   4.842   2.435  11.322  0.1562 -1.9403 -0.3389
 7560TIP3   OH246874   0.541   3.933  10.063 -0.0642 -0.2826 -0.2045
 7560TIP3    H146875   0.612   3.984  10.102 -1.2779  0.1358  1.6034
 7560TIP3    H246876   0.462   3.984  10.082 -0.9501 -1.1467 -1.4126
 7561TIP3   OH246877   4.590   4.891  11.680  0.0926 -0.1441 -0.2322
 7561TIP3    H146878   4.596   4.800  11.651 -0.2440  0.0057 -0.7981
 7561TIP3    H246879   4.615   4.943  11.603 -0.8930  0.2642 -0.2911
 7562TIP3   OH246880   1.944   5.146  10.288  0.6430 -0.5417  0.2595
 7562TIP3    H146881   1.863   5.195  10.301 -0.0700 -1.6728  0.2872
 7562TIP3    H246882   1.955   5.143  10.193  0.3828 -0.7792  0.2331
 7563TIP3   OH246883   1.795   6.584  11.415 -0.0940 -0.0573 -0.6019
 7563TIP3    H146884   1.830   6.496  11.423 -0.7412 -0.2659  0.2032
 7563TIP3    H246885   1.766   6.591  11.324 -0.2212 -0.7496 -0.6191
 7564TIP3   OH246886   0.115   5.734   9.914 -0.1116 -0.2691  0.3582
 7564TIP3    H146887   0.048   5.797   9.884  0.6153  0.3637  0.0176
 7564TIP3    H246888   0.194   5.760   9.867  0.6297 -0.3792  1.5042
 7565TIP3   OH246889   6.372   4.132   9.768  0.3957 -0.0906 -0.7665
 7565TIP3    H146890   6.307   4.188   9.809  0.8458  1.5180 -2.1199
 7565TIP3    H246891   6.329   4.047   9.761 -1.5794  0.8870 -1.5266
 7566TIP3   OH246892   0.127   0.027  11.637  0.3658  0.0331  0.4672
 7566TIP3    H146893   0.097   0.076  11.714  0.3018  0.2308  0.3183
 7566TIP3    H246894   0.161   0.095  11.578  1.8158 -0.2532  0.9407
 7567TIP3   OH246895   5.844   5.992  11.789  0.0311  0.4751 -0.4508
 7567TIP3    H146896   5.845   5.902  11.821 -0.3083  0.8312  0.6141
 7567TIP3    H246897   5.935   6.020  11.795 -0.2957  1.3142  2.6607
 7568TIP3   OH246898   0.345   6.042  13.140  0.1957  0.4071 -0.2680
 7568TIP3    H146899   0.297   5.960  13.154 -1.4037  1.4861  0.9089
 7568TIP3    H246900   0.277   6.109  13.137  1.5622  1.8758  0.3218
 7569TIP3   OH246901   5.694   5.767  11.182  0.0369  0.1102 -0.0739
 7569TIP3    H146902   5.709   5.861  11.188  0.9581  0.0193 -0.7441
 7569TIP3    H246903   5.759   5.728  11.240 -1.8853 -0.0456  2.0932
 7570TIP3   OH246904   4.823   3.416  10.526 -0.2627 -0.7466  0.1486
 7570TIP3    H146905   4.785   3.328  10.518 -0.4991 -0.6169 -0.1936
 7570TIP3    H246906   4.755   3.474  10.491  0.7285 -0.6097 -1.6353
 7571TIP3   OH246907   4.345   3.714  11.026  0.1768  0.2006  0.2373
 7571TIP3    H146908   4.440   3.727  11.028 -0.0880  2.4866  2.3653
 7571TIP3    H246909   4.333   3.623  11.055  1.7219 -0.9625 -2.4116
 7572TIP3   OH246910   0.987   4.974  12.576 -0.2741 -0.7364 -0.0204
 7572TIP3    H146911   0.902   5.003  12.607  0.2443 -0.1456  0.8984
 7572TIP3    H246912   1.005   4.893  12.624  0.3278 -0.0613  0.9346
 7573TIP3   OH246913   3.881   4.333  11.859 -0.0639 -0.1176  0.6881
 7573TIP3    H146914   3.836   4.377  11.788  1.5594  2.7091  1.2669
 7573TIP3    H246915   3.842   4.368  11.939  1.5552  0.6940  1.1724
 7574TIP3   OH246916   1.014   5.573  10.099 -0.2290  0.3111 -0.4760
 7574TIP3    H146917   1.050   5.604  10.182  3.3377  0.6766 -1.9721
 7574TIP3    H246918   1.004   5.652  10.046  0.7755 -0.1997 -1.4694
 7575TIP3   OH246919   5.344   3.453  11.717 -0.3141  0.7373 -0.2350
 7575TIP3    H146920   5.381   3.386  11.659 -0.3620  1.4299 -1.0797
 7575TIP3    H246921   5.403   3.453  11.793 -0.2779 -0.2121 -0.2434
 7576TIP3   OH246922   5.688   1.103  10.722  0.1625 -0.1866  0.3022
 7576TIP3    H146923   5.744   1.057  10.660 -0.8352 -1.5603  0.3723
 7576TIP3    H246924   5.608   1.121  10.673 -0.4569 -0.8784  1.0341
 7577TIP3   OH246925   3.428   1.994   9.819  0.6857  0.1677 -0.7176
 7577TIP3    H146926   3.345   2.034   9.795 -0.1380 -1.1470 -0.1210
 7577TIP3    H246927   3.453   1.942   9.742  0.2924 -0.4700 -0.4218
 7578TIP3   OH246928   0.868   6.243  10.784 -0.4816  0.1813 -0.2638
 7578TIP3    H146929   0.845   6.253  10.691  1.9830  0.4278 -0.9321
 7578TIP3    H246930   0.859   6.149  10.801 -2.2611  0.3028 -0.3135
 7579TIP3   OH246931   4.110   2.819  11.713 -0.6436  0.2361 -0.1821
 7579TIP3    H146932   4.191   2.868  11.702 -0.0570 -0.5295  0.5265
 7579TIP3    H246933   4.132   2.730  11.686 -1.3159  0.0726 -0.2037
 7580TIP3   OH246934   6.269   0.816  11.678 -0.4320  0.3190  0.2258
 7580TIP3    H146935   6.320   0.740  11.706  0.4795  0.3820 -1.1563
 7580TIP3    H246936   6.315   0.891  11.717 -1.9732  0.1370  2.5151
 7581TIP3   OH246937   3.424   6.130  10.515 -0.0781 -0.2211  0.1531
 7581TIP3    H146938   3.456   6.166  10.597  0.2304  0.6142 -0.3143
 7581TIP3    H246939   3.373   6.201  10.476  3.2460  1.0982 -2.3606
 7582TIP3   OH246940   5.946   5.125  11.488  0.0723  0.5878  0.6299
 7582TIP3    H146941   5.959   5.047  11.540  1.0277  0.2303 -0.1261
 7582TIP3    H246942   5.914   5.093  11.404 -0.5416  1.0917  0.6595
 7583TIP3   OH246943   5.399   6.382  10.689  0.0075  0.2278 -0.3508
 7583TIP3    H146944   5.474   6.391  10.747 -0.1959  0.7866 -0.1716
 7583TIP3    H246945   5.377   6.471  10.663 -0.2671  0.0255 -0.8221
 7584TIP3   OH246946   1.698   2.297   9.933 -0.4544  0.9623 -0.1851
 7584TIP3    H146947   1.664   2.290  10.022 -0.8733  0.3687 -0.3904
 7584TIP3    H246948   1.695   2.208   9.899  0.5488  1.0271 -0.4898
 7585TIP3   OH246949   0.167   0.475  12.107 -0.8008 -0.3013 -0.7975
 7585TIP3    H146950   0.115   0.450  12.183 -1.2276  2.8808  0.0655
 7585TIP3    H246951   0.258   0.457  12.134 -1.0569 -0.8896 -0.2838
 7586TIP3   OH246952   3.577   6.262  12.411  0.2758  0.1251 -0.3977
 7586TIP3    H146953   3.554   6.337  12.357  0.0348  0.3567  0.0214
 7586TIP3    H246954   3.672   6.269  12.422  0.0205  1.6107  1.4236
 7587TIP3   OH246955   4.106   3.200  10.925 -0.0273  0.0597 -0.0117
 7587TIP3    H146956   4.162   3.263  10.880  0.1258  0.1066  0.2436
 7587TIP3    H246957   4.020   3.244  10.930  0.1363  0.3386  0.3623
 7588TIP3   OH246958   0.309   5.808  11.140  0.0835 -0.6436 -0.5291
 7588TIP3    H146959   0.280   5.900  11.134  0.2014 -0.6053 -0.5167
 7588TIP3    H246960   0.385   5.811  11.198  0.9027 -0.5518 -1.5663
 7589TIP3   OH246961   1.540   5.779   9.685  0.2766 -0.3471  0.3132
 7589TIP3    H146962   1.486   5.799   9.608 -0.8921 -2.0044  0.6511
 7589TIP3    H246963   1.624   5.751   9.648 -0.7587 -2.6435 -0.5277
 7590TIP3   OH246964   6.302   5.214  10.481 -0.4233 -0.4718 -0.6753
 7590TIP3    H146965   6.264   5.135  10.519  1.8660 -1.3048  0.0847
 7590TIP3    H246966   6.385   5.226  10.528  0.5359  0.8736 -2.5550
 7591TIP3   OH246967   6.238   1.127  10.283  0.0571  0.2660 -0.0862
 7591TIP3    H146968   6.329   1.109  10.259  0.1642  0.9884 -0.2410
 7591TIP3    H246969   6.193   1.044  10.271  0.5338  0.1017 -0.8031
 7592TIP3   OH246970   0.462   4.382  11.583  0.3832  0.6517 -0.5555
 7592TIP3    H146971   0.506   4.333  11.653  1.5964  1.3517 -0.8110
 7592TIP3    H246972   0.376   4.339  11.575  0.4035  0.2364  1.0076
 7593TIP3   OH246973   5.758   1.306  11.788 -0.0959 -0.1850 -0.1217
 7593TIP3    H146974   5.719   1.290  11.874  0.0871 -1.3385 -0.2338
 7593TIP3    H246975   5.721   1.238  11.732 -0.7785  0.9919 -1.1590
 7594TIP3   OH246976   1.979   3.991  10.831 -0.5269 -0.7119 -0.1974
 7594TIP3    H146977   2.032   3.912  10.840 -1.9140 -1.8004 -1.0506
 7594TIP3    H246978   1.929   3.996  10.912  0.9507  0.4023  0.6733
 7595TIP3   OH246979   5.870   2.901  11.779  0.6192  0.9133  0.2261
 7595TIP3    H146980   5.877   2.833  11.712  1.0061  0.5258  0.6536
 7595TIP3    H246981   5.874   2.854  11.862  0.4857  1.4223  0.5301
 7596TIP3   OH246982   2.732   5.817  10.873  0.5593 -0.1577 -0.3568
 7596TIP3    H146983   2.645   5.852  10.854  1.3561  0.8034 -2.5346
 7596TIP3    H246984   2.716   5.738  10.924 -1.5620  0.1744 -0.4336
 7597TIP3   OH246985   6.234   5.230  13.123 -0.5006  0.3450  0.8604
 7597TIP3    H146986   6.180   5.155  13.148 -0.4869 -0.2976 -0.8693
 7597TIP3    H246987   6.231   5.288  13.198 -0.9098 -1.1718  2.0638
 7598TIP3   OH246988   2.283   4.639  13.133 -0.2339  0.3163 -0.0828
 7598TIP3    H146989   2.309   4.572  13.070 -0.3145  0.2191 -0.0143
 7598TIP3    H246990   2.193   4.661  13.110 -0.0162  0.8236 -0.4687
 7599TIP3   OH246991   5.906   0.813  10.853  0.2039 -0.1286  0.4309
 7599TIP3    H146992   5.858   0.759  10.789  1.0239 -0.4599  0.0839
 7599TIP3    H246993   5.926   0.893  10.806  0.7057 -0.3252  0.3010
 7600TIP3   OH246994   3.462   4.598  12.159 -0.1379 -0.1355  0.2597
 7600TIP3    H146995   3.455   4.590  12.255  1.8409  0.1994  0.4834
 7600TIP3    H246996   3.548   4.638  12.145 -0.8361  0.8309 -1.6370
 7601TIP3   OH246997   3.924   2.822  10.297  0.3988 -0.3933  0.1057
 7601TIP3    H146998   4.007   2.794  10.338  0.8849  1.7593  0.7094
 7601TIP3    H246999   3.877   2.866  10.368 -0.8455 -0.7206 -0.4984
 7602TIP3   OH247000   5.298   0.878  11.054 -0.0793  0.2610  0.3398
 7602TIP3    H147001   5.337   0.868  11.141  0.9962 -0.1266 -0.1725
 7602TIP3    H247002   5.369   0.913  11.000 -0.2801 -0.9494 -0.7421
 7603TIP3   OH247003   4.120   3.825   9.563 -0.1331 -0.0439  0.0158
 7603TIP3    H147004   4.191   3.788   9.615 -0.6546  0.9713  1.5242
 7603TIP3    H247005   4.160   3.897   9.514 -0.1679  0.7483  1.1274
 7604TIP3   OH247006   3.936   3.894  10.017 -0.8444  0.0547 -0.8941
 7604TIP3    H147007   4.010   3.917   9.961  0.4996  0.4445  0.9291
 7604TIP3    H247008   3.906   3.978  10.051  0.4451 -0.3129  1.3918
 7605TIP3   OH247009   6.069   5.127  10.125 -0.5652 -0.2967 -0.1344
 7605TIP3    H147010   6.128   5.108  10.052 -0.4634 -0.8941  0.1015
 7605TIP3    H247011   6.042   5.041  10.157 -2.5082 -0.0555 -0.9931
 7606TIP3   OH247012   5.378   0.355  10.311  0.2077  0.3209  0.2030
 7606TIP3    H147013   5.428   0.302  10.373  0.4171  0.1802 -0.0814
 7606TIP3    H247014   5.292   0.313  10.308  0.8348 -0.9745 -1.1843
 7607TIP3   OH247015   5.808   4.147  11.949  0.1966 -0.1329  0.3702
 7607TIP3    H147016   5.782   4.238  11.932 -0.2735 -0.1400  1.0004
 7607TIP3    H247017   5.898   4.141  11.917  1.1288  1.2392  2.4848
 7608TIP3   OH247018   0.760   5.361  11.237  0.4575 -0.0831  0.6550
 7608TIP3    H147019   0.727   5.343  11.149  0.6332  0.3163  0.5042
 7608TIP3    H247020   0.839   5.413  11.223 -0.1868  1.0636  1.0693
 7609TIP3   OH247021   5.109   1.979   9.853 -0.0705 -0.1006 -0.0512
 7609TIP3    H147022   5.056   2.024   9.787  1.1210  0.1966 -0.8523
 7609TIP3    H247023   5.110   1.887   9.825  1.7187  0.2792 -1.4038
 7610TIP3   OH247024   4.435   4.644  11.373  0.6171  0.2635  0.5437
 7610TIP3    H147025   4.427   4.562  11.324 -2.8565  0.4567  0.4910
 7610TIP3    H247026   4.475   4.619  11.456  0.0179 -1.4214  0.3667
 7611TIP3   OH247027   5.985   4.058  11.335 -0.4675 -0.0736 -0.4585
 7611TIP3    H147028   6.050   3.994  11.305  0.4196  0.3794  0.4185
 7611TIP3    H247029   5.901   4.016  11.321  0.1035 -1.5005  0.2641
 7612TIP3   OH247030   5.528   0.063   9.728  0.4402  0.0022 -0.0993
 7612TIP3    H147031   5.517   0.092   9.638 -0.4377  0.4713  0.1428
 7612TIP3    H247032   5.622   0.068   9.744  0.5150  0.7227 -0.7313
 7613TIP3   OH247033   1.187   2.536  11.737  0.0809 -0.0257  0.1396
 7613TIP3    H147034   1.246   2.594  11.689  0.7948  0.3767  1.4311
 7613TIP3    H247035   1.183   2.457  11.684  1.2009  0.2229 -0.3571
 7614TIP3   OH247036   5.603   5.382  12.512 -0.2198 -0.4149 -0.4046
 7614TIP3    H147037   5.683   5.396  12.461 -0.7537 -0.6454 -1.3301
 7614TIP3    H247038   5.539   5.441  12.472 -0.3664  0.2027  0.7061
 7615TIP3   OH247039   4.141   0.338   9.647  0.3411 -0.1804  0.3624
 7615TIP3    H147040   4.136   0.410   9.710 -0.0294  1.4430 -1.4295
 7615TIP3    H247041   4.127   0.379   9.562  2.9262 -1.9313 -1.0502
 7616TIP3   OH247042   4.077   1.717  10.246  0.1482 -0.6200  0.5287
 7616TIP3    H147043   4.129   1.723  10.165 -1.5936 -0.3692 -0.6279
 7616TIP3    H247044   4.134   1.671  10.308  1.5976 -0.6755 -0.7872
 7617TIP3   OH247045   3.260   1.644  10.542 -0.0795  0.4236  0.0714
 7617TIP3    H147046   3.311   1.671  10.618  1.1095 -0.8745 -0.2089
 7617TIP3    H247047   3.307   1.680  10.467 -0.1781  0.1282 -0.1367
 7618TIP3   OH247048   5.280   3.004  10.942  0.0899  0.3566  0.4282
 7618TIP3    H147049   5.375   3.011  10.955  0.3803 -1.8714 -0.0113
 7618TIP3    H247050   5.266   3.026  10.850  0.7086 -2.4898 -0.4429
 7619TIP3   OH247051   6.398   1.861  10.179 -0.1688  0.4534  0.1487
 7619TIP3    H147052   6.330   1.876  10.244 -0.5739 -0.8205  0.0339
 7619TIP3    H247053   6.414   1.767  10.181 -0.6760  0.2498 -2.0577
 7620TIP3   OH247054   4.969   0.151  11.202  0.3991 -0.1777 -0.0050
 7620TIP3    H147055   5.009   0.172  11.286  0.3621 -1.6300  0.3857
 7620TIP3    H247056   4.934   0.063  11.212  0.5615 -0.4566 -1.6063
 7621TIP3   OH247057   5.877   5.021  11.236 -0.3478  0.1624 -0.4937
 7621TIP3    H147058   5.949   5.066  11.193  1.0882 -0.7072  0.9038
 7621TIP3    H247059   5.913   4.936  11.262 -0.9458  0.7681  2.7540
 7622TIP3   OH247060   2.668   6.041   9.745  0.4915  0.2022  0.4930
 7622TIP3    H147061   2.580   6.010   9.722  0.0456  0.8450  1.2850
 7622TIP3    H247062   2.727   5.973   9.711 -0.4191 -1.1701  1.5338
 7623TIP3   OH247063   3.827   0.482  11.859  0.3904 -0.2011 -0.4431
 7623TIP3    H147064   3.740   0.505  11.893  1.5179 -0.3799  2.9859
 7623TIP3    H247065   3.814   0.471  11.765 -3.2374 -0.0391 -0.1078
 7624TIP3   OH247066   1.043   2.684  10.703  0.3503 -0.7228  0.3503
 7624TIP3    H147067   0.959   2.700  10.747  0.4295 -0.9774  0.5935
 7624TIP3    H247068   1.109   2.701  10.771  0.4756 -1.0634  0.3123
 7625TIP3   OH247069   2.135   3.271  12.140 -0.7955  0.3120 -0.2389
 7625TIP3    H147070   2.144   3.361  12.171  1.2001  0.1051 -0.0819
 7625TIP3    H247071   2.065   3.275  12.075 -1.0584  1.8799  0.1049
 7626TIP3   OH247072   0.776   2.996  11.695  0.1586  0.0655 -0.2055
 7626TIP3    H147073   0.761   3.083  11.659  3.1461  0.7010 -0.1385
 7626TIP3    H247074   0.858   3.003  11.743  0.0411 -2.5849  0.5698
 7627TIP3   OH247075   6.609   5.035  13.365  0.4557 -0.1257 -0.2189
 7627TIP3    H147076   6.654   4.965  13.319  0.2584 -0.2252 -0.2598
 7627TIP3    H247077   6.596   5.001  13.454  0.1312 -0.2382 -0.3114
 7628TIP3   OH247078   6.191   1.533  10.099 -1.2789 -0.4958 -0.4739
 7628TIP3    H147079   6.242   1.583  10.035  1.0330 -0.2163  1.4462
 7628TIP3    H247080   6.238   1.449  10.105 -0.5461  0.0250  1.8417
 7629TIP3   OH247081   6.457   0.057  11.287 -0.5573  0.2285  0.1137
 7629TIP3    H147082   6.399   0.120  11.330 -0.5036 -0.1286  0.7232
 7629TIP3    H247083   6.503   0.108  11.220 -0.3101  0.9051  0.7886
 7630TIP3   OH247084   0.474   3.092  10.117 -0.1867  0.5985 -0.0069
 7630TIP3    H147085   0.383   3.121  10.107 -0.3112 -0.2871 -1.7560
 7630TIP3    H247086   0.467   3.003  10.151  0.0754  0.8771  0.8033
 7631TIP3   OH247087   0.891   0.080  10.491 -0.3093 -0.1229  0.4255
 7631TIP3    H147088   0.935   0.165  10.486 -0.7259  0.0281 -0.9933
 7631TIP3    H247089   0.895   0.056  10.584  0.1206  1.2786  0.7835
 7632TIP3   OH247090   0.996   0.508  12.638  0.5311 -0.1542  0.3291
 7632TIP3    H147091   0.972   0.573  12.572  3.1926 -1.1182 -1.7574
 7632TIP3    H247092   1.076   0.542  12.678  0.3399 -0.7776  1.2712
 7633TIP3   OH247093   6.459   0.981  12.788  0.8745 -0.2533  0.2074
 7633TIP3    H147094   6.448   0.888  12.807  4.0702 -0.3420  2.4935
 7633TIP3    H247095   6.414   1.025  12.860 -0.1873 -0.0242 -0.5857
 7634TIP3   OH247096   5.127   1.331   9.393 -0.4127  0.4705  0.6626
 7634TIP3    H147097   5.102   1.424   9.393  0.8032  0.8995 -1.9119
 7634TIP3    H247098   5.222   1.333   9.384 -0.4834 -0.9972 -0.7414
 7635TIP3   OH247099   5.234   5.223  12.599 -0.0981 -0.7593 -0.1492
 7635TIP3    H147100   5.178   5.217  12.676 -0.6338 -2.0386 -0.6119
 7635TIP3    H247101   5.321   5.243  12.634 -0.7834  1.3020  0.5745
 7636TIP3   OH247102   5.711   1.006  10.115 -0.4770  0.2248 -0.2349
 7636TIP3    H147103   5.662   0.924  10.109 -0.5027  0.2414 -0.2519
 7636TIP3    H247104   5.729   1.016  10.209  0.3710 -0.3016 -0.3356
 7637TIP3   OH247105   4.334   3.742  11.678  0.3111 -0.4257 -0.2329
 7637TIP3    H147106   4.310   3.664  11.628  0.8646 -0.9394  0.2854
 7637TIP3    H247107   4.429   3.735  11.690  0.3461  0.2555 -0.0632
 7638TIP3   OH247108   0.312   3.816  12.668  0.4267  0.3783  0.3367
 7638TIP3    H147109   0.302   3.795  12.761  0.4308  0.7777  0.4292
 7638TIP3    H247110   0.222   3.822  12.635  0.4217 -0.9121  0.0403
 7639TIP3   OH247111   4.679   4.794   9.644  0.8741  0.7501  0.3721
 7639TIP3    H147112   4.594   4.802   9.600  1.2139 -0.3784 -0.5631
 7639TIP3    H247113   4.659   4.752   9.727  0.6690 -1.1325 -0.5762
 7640TIP3   OH247114   2.483   6.369  12.671  0.0874  0.8679  0.1756
 7640TIP3    H147115   2.550   6.313  12.709  2.2931  3.5719  0.5787
 7640TIP3    H247116   2.437   6.405  12.747  0.2812  1.4246  0.0299
 7641TIP3   OH247117   3.766   5.580  11.950  0.6795  0.2935  0.0854
 7641TIP3    H147118   3.713   5.548  11.876 -2.1308  0.0332  2.0648
 7641TIP3    H247119   3.829   5.509  11.965  0.7510 -0.0300 -1.4793
 7642TIP3   OH247120   4.948   3.001  10.119  0.5321 -0.4304 -0.8600
 7642TIP3    H147121   4.876   3.032  10.064  0.7783 -0.5332 -1.2457
 7642TIP3    H247122   5.006   3.076  10.128  0.4773 -0.4048 -0.7139
 7643TIP3   OH247123   5.758   0.590  12.874  0.2366  0.2109 -0.4483
 7643TIP3    H147124   5.837   0.545  12.845  0.5612  0.3831  0.1517
 7643TIP3    H247125   5.768   0.680  12.842  1.0100  0.6402  0.8802
 7644TIP3   OH247126   3.162   1.305  11.549 -0.0649 -0.2610  0.2505
 7644TIP3    H147127   3.091   1.292  11.486  0.4018 -1.7478 -0.0096
 7644TIP3    H247128   3.176   1.219  11.587  1.4484  0.0577  0.4638
 7645TIP3   OH247129   4.611   2.127  11.250  0.3943  0.3251  0.6990
 7645TIP3    H147130   4.674   2.199  11.252  0.2676  0.4508  0.2953
 7645TIP3    H247131   4.665   2.048  11.251  0.5172  0.4056  1.9313
 7646TIP3   OH247132   1.038   6.474   9.970 -0.2237 -0.3594 -0.2330
 7646TIP3    H147133   1.098   6.546   9.956  0.3164 -0.4581  1.3553
 7646TIP3    H247134   1.076   6.400   9.922  1.3413 -0.6098  1.3099
 7647TIP3   OH247135   6.228   4.709  10.054 -0.0854  0.4712 -0.3079
 7647TIP3    H147136   6.168   4.639  10.078  0.3654  0.4066  0.6612
 7647TIP3    H247137   6.262   4.682   9.968 -1.7975  0.7733 -1.1225
 7648TIP3   OH247138   3.084   2.740  11.282  0.5333 -0.1280  0.2166
 7648TIP3    H147139   3.112   2.824  11.247  1.0549 -0.5648 -0.4511
 7648TIP3    H247140   3.150   2.717  11.348  0.0283  0.2872  0.8768
 7649TIP3   OH247141   6.238   0.771  11.078 -0.3951 -0.0616 -0.7450
 7649TIP3    H147142   6.205   0.814  11.157 -0.9413  0.6784 -1.3565
 7649TIP3    H247143   6.170   0.707  11.056 -0.5405  0.1629 -0.9560
 7650TIP3   OH247144   4.089   2.354  11.932  0.0265  0.0004 -0.0910
 7650TIP3    H147145   4.126   2.337  12.019  1.5203 -0.9903 -0.8858
 7650TIP3    H247146   4.135   2.432  11.901  1.0590 -0.8635 -0.8181
 7651TIP3   OH247147   4.351   4.504   9.563 -0.0386 -0.1283 -0.3048
 7651TIP3    H147148   4.344   4.421   9.515  2.1983 -0.7567  0.3095
 7651TIP3    H247149   4.299   4.489   9.643  0.1258 -0.8477 -0.3204
 7652TIP3   OH247150   4.583   3.820  10.933 -0.1326  0.1418 -0.0053
 7652TIP3    H147151   4.538   3.874  10.869  0.5128 -0.2097 -0.7823
 7652TIP3    H247152   4.666   3.798  10.891  1.0088  1.1800  1.5569
 7653TIP3   OH247153   0.598   6.312  12.450 -0.2363  0.1842  0.4971
 7653TIP3    H147154   0.618   6.290  12.541 -1.0748 -0.2021  0.5939
 7653TIP3    H247155   0.583   6.407  12.452 -0.5105  0.1348  0.8053
 7654TIP3   OH247156   0.917   0.997  12.293  0.7680 -0.1250  0.1162
 7654TIP3    H147157   0.905   1.040  12.208 -0.9283  0.2703  0.5193
 7654TIP3    H247158   0.870   0.914  12.285  2.3871 -1.0700 -0.0050
 7655TIP3   OH247159   0.028   3.274  11.562 -0.1155 -0.3780  0.6026
 7655TIP3    H147160  -0.027   3.200  11.588 -1.2316 -0.3231 -1.4524
 7655TIP3    H247161  -0.028   3.328  11.506  0.3851  2.5179  2.6532
 7656TIP3   OH247162   2.792   0.072  10.069  0.7544  0.3617 -0.3170
 7656TIP3    H147163   2.868   0.125  10.092 -0.4794  1.7342  0.7991
 7656TIP3    H247164   2.792   0.070   9.973  2.7337 -0.5472 -0.3534
 7657TIP3   OH247165   3.185   1.616  12.114  0.3208 -0.5383 -0.4240
 7657TIP3    H147166   3.099   1.644  12.145 -0.0680 -0.8650 -1.1690
 7657TIP3    H247167   3.166   1.542  12.056  1.2478 -1.8411  0.8562
 7658TIP3   OH247168   5.698   3.812  10.281  0.0432 -0.0005 -0.2198
 7658TIP3    H147169   5.746   3.832  10.200  0.4747  1.7696  0.4292
 7658TIP3    H247170   5.746   3.739  10.320  1.2458  0.6630 -0.4150
 7659TIP3   OH247171   0.249   0.567  13.629 -0.2163 -0.1930  0.7164
 7659TIP3    H147172   0.290   0.530  13.550 -0.9089  3.6515 -1.7253
 7659TIP3    H247173   0.298   0.530  13.702  3.1379 -0.9663 -1.7163
 7660TIP3   OH247174   0.716   0.777   9.667  0.0917 -0.1478  0.1435
 7660TIP3    H147175   0.776   0.770   9.593 -0.6715  2.5989 -0.8772
 7660TIP3    H247176   0.768   0.820   9.735 -0.0806  0.2529  0.0280
 7661TIP3   OH247177   4.072   4.383  10.463 -0.3218 -0.1985  0.3786
 7661TIP3    H147178   4.062   4.461  10.407 -0.3196 -0.0272  0.6168
 7661TIP3    H247179   4.010   4.396  10.534  0.4090  0.0840  0.9730
 7662TIP3   OH247180   1.919   1.779  11.480 -0.6332  0.0596 -0.2163
 7662TIP3    H147181   1.929   1.713  11.548 -1.3187  1.4598  1.3265
 7662TIP3    H247182   1.824   1.789  11.470 -0.7589 -2.9803 -4.3943
 7663TIP3   OH247183   3.230   1.735   9.629  0.2476  0.3580  0.0465
 7663TIP3    H147184   3.224   1.654   9.680 -1.0981 -0.0526 -0.7334
 7663TIP3    H247185   3.145   1.777   9.640  0.1274  0.5290 -1.4058
 7664TIP3   OH247186   4.086   2.120   9.428 -0.4916 -0.0251 -0.0109
 7664TIP3    H147187   4.021   2.058   9.394 -1.0585  0.2901  0.4804
 7664TIP3    H247188   4.046   2.206   9.416 -0.1596  0.1747  0.2997
 7665TIP3   OH247189   0.388   1.999  10.379 -0.4835 -0.2016 -0.0573
 7665TIP3    H147190   0.432   2.062  10.321  0.0576  1.2350  1.7917
 7665TIP3    H247191   0.306   2.043  10.403 -1.0188 -1.0793 -0.2535
 7666TIP3   OH247192   0.959   3.073  11.069  0.5599 -0.1388 -0.3048
 7666TIP3    H147193   1.014   3.090  10.992  0.9429 -1.0463 -0.2422
 7666TIP3    H247194   0.886   3.021  11.035 -0.4664  1.3049 -0.4449
 7667TIP3   OH247195   0.691   2.233  10.156  0.0540 -0.6917  0.3475
 7667TIP3    H147196   0.704   2.211  10.063 -1.3789  1.3398 -0.4207
 7667TIP3    H247197   0.755   2.180  10.202  3.4813  0.8692 -2.1298
 7668TIP3   OH247198   5.987   1.831  10.978  0.0158  0.6770 -0.3679
 7668TIP3    H147199   6.074   1.802  11.006  1.0190  2.5971 -1.3317
 7668TIP3    H247200   5.993   1.840  10.883 -2.2740 -2.2788 -0.9535
 7669TIP3   OH247201   0.578   2.333  13.680  0.2067 -0.6339  0.1774
 7669TIP3    H147202   0.575   2.368  13.591  0.1744  1.5590  0.9822
 7669TIP3    H247203   0.624   2.250  13.672 -0.2333 -0.7280 -1.9462
 7670TIP3   OH247204   2.726   6.359  10.119  0.2662  0.0562 -0.4264
 7670TIP3    H147205   2.746   6.270  10.150  0.8098 -0.2954 -1.7125
 7670TIP3    H247206   2.698   6.346  10.028 -0.6742  1.1084 -0.2996
 7671TIP3   OH247207   3.497   5.182  10.781  0.7496  0.1502 -0.1469
 7671TIP3    H147208   3.489   5.091  10.810 -1.2112  0.1857 -0.4382
 7671TIP3    H247209   3.548   5.224  10.850  1.3736 -1.0851  0.1719
 7672TIP3   OH247210   0.960   4.037  12.391  0.8343 -0.5063  0.0241
 7672TIP3    H147211   1.024   4.053  12.322  0.4409  0.4429 -0.1373
 7672TIP3    H247212   0.981   3.950  12.425  1.7996 -0.4621 -0.4595
 7673TIP3   OH247213   1.388   0.517  13.292 -0.1105 -0.2618 -0.4462
 7673TIP3    H147214   1.357   0.528  13.382  0.7517  0.4151 -0.2099
 7673TIP3    H247215   1.461   0.456  13.299 -0.6853 -1.0068 -0.8414
 7674TIP3   OH247216   6.130   5.072  11.076 -0.1424  0.1836 -0.7141
 7674TIP3    H147217   6.197   5.043  11.137 -0.8619  0.3822  0.2010
 7674TIP3    H247218   6.177   5.120  11.009  0.5772  0.8078  0.2108
 7675TIP3   OH247219   2.897   0.763  12.272 -0.8602  0.3800  0.2743
 7675TIP3    H147220   2.850   0.716  12.341  0.1517 -0.0240  0.7029
 7675TIP3    H247221   2.907   0.852  12.305  2.6203 -0.5909  2.2575
 7676TIP3   OH247222   0.635   6.203  10.014 -0.6433 -0.0300 -0.5761
 7676TIP3    H147223   0.595   6.134  10.067 -0.4672  1.1615  1.1539
 7676TIP3    H247224   0.574   6.216   9.942 -1.3962 -0.9711 -0.1242
 7677TIP3   OH247225   0.492   4.405  11.285 -0.2767  0.2237  0.5124
 7677TIP3    H147226   0.415   4.451  11.249  0.0758  0.3868 -0.0529
 7677TIP3    H247227   0.457   4.322  11.317 -0.6775  0.2482  0.1635
 7678TIP3   OH247228   0.793   2.661  12.794 -0.0972 -0.2419 -0.1155
 7678TIP3    H147229   0.741   2.673  12.714 -0.4365  0.7497  0.2478
 7678TIP3    H247230   0.793   2.566  12.808 -1.1575 -0.3187 -0.5504
 7679TIP3   OH247231   4.539   3.428   9.967  0.1194  0.0072 -0.1162
 7679TIP3    H147232   4.563   3.499  10.026 -0.8095  1.7579 -1.7244
 7679TIP3    H247233   4.467   3.383  10.012 -0.9676  1.6680 -0.1242
 7680TIP3   OH247234   2.992   1.595   9.573  0.0344 -0.3396 -0.5973
 7680TIP3    H147235   2.927   1.612   9.641 -0.0531  0.7127 -0.9259
 7680TIP3    H247236   3.066   1.556   9.620 -0.3784 -0.4691 -0.0439
 7681TIP3   OH247237   2.232   3.924   9.598  0.3189 -0.2470  0.5994
 7681TIP3    H147238   2.176   4.001   9.607 -0.3634 -0.5613 -0.6834
 7681TIP3    H247239   2.173   3.850   9.614  0.0968 -0.6192 -1.6499
 7682TIP3   OH247240   2.400   5.263  10.157  0.0425 -0.5307 -0.2186
 7682TIP3    H147241   2.480   5.222  10.190  0.9886  2.3236  1.3972
 7682TIP3    H247242   2.346   5.189  10.127  2.7750 -2.6498 -0.3735
 7683TIP3   OH247243   3.946   4.060   9.763  0.3646  0.3580 -1.0137
 7683TIP3    H147244   3.974   4.139   9.715 -0.3946  0.7335 -0.8572
 7683TIP3    H247245   3.921   3.998   9.695 -0.2946  0.7323 -1.1187
 7684TIP3   OH247246   0.210   3.159  10.034 -0.1467  0.1989  0.2482
 7684TIP3    H147247   0.167   3.221   9.975  0.0807 -0.9413 -1.1892
 7684TIP3    H247248   0.138   3.110  10.074 -0.2895  0.5767  0.4526
 7685TIP3   OH247249   5.660   4.281  11.279 -0.0665  0.2978  0.4324
 7685TIP3    H147250   5.704   4.365  11.273  0.0089  0.3984  1.9620
 7685TIP3    H247251   5.656   4.262  11.373 -0.4647 -1.1998  0.1520
 7686TIP3   OH247252   3.898   3.311  12.127  0.1010 -0.0581 -0.0584
 7686TIP3    H147253   3.941   3.317  12.042 -0.0752  2.2876 -0.0502
 7686TIP3    H247254   3.901   3.400  12.162 -0.8841 -0.7198  1.8811
 7687TIP3   OH247255   6.454   4.721  12.548 -0.1074  0.0447  0.3617
 7687TIP3    H147256   6.486   4.712  12.638 -1.6286 -0.8825  0.8529
 7687TIP3    H247257   6.486   4.643  12.504 -0.8982 -0.4466  0.6245
 7688TIP3   OH247258   4.059   4.438   9.382 -0.2102 -0.6814 -0.1878
 7688TIP3    H147259   4.125   4.505   9.360 -0.5028 -0.0802  0.6869
 7688TIP3    H247260   3.994   4.485   9.434 -1.9952 -0.9876 -2.0223
 7689TIP3   OH247261   0.377   5.301  10.894  0.0119 -0.3253 -0.0243
 7689TIP3    H147262   0.391   5.366  10.825  3.9662 -0.9724 -0.0396
 7689TIP3    H247263   0.379   5.217  10.849 -0.3098 -0.6399  0.5372
 7690TIP3   OH247264   3.392   4.076  11.038 -0.4237  0.5181  0.0577
 7690TIP3    H147265   3.407   4.154  10.984 -0.7939  0.1327 -0.6237
 7690TIP3    H247266   3.308   4.093  11.082 -1.1463 -0.0057 -1.0634
 7691TIP3   OH247267   4.613   2.561  11.575  0.7916 -0.2659 -0.5171
 7691TIP3    H147268   4.523   2.585  11.598  0.9307 -0.1047 -0.1472
 7691TIP3    H247269   4.604   2.480  11.526  0.4326 -0.1865 -0.5854
 7692TIP3   OH247270   2.066   2.386  12.115  0.1646 -0.7298  0.5033
 7692TIP3    H147271   2.159   2.397  12.096  0.8005 -0.0517  3.4720
 7692TIP3    H247272   2.025   2.467  12.087  0.5175 -0.8699 -0.4395
 7693TIP3   OH247273   0.582   2.215  20.555  0.0633 -0.6972  0.6430
 7693TIP3    H147274   0.661   2.161  20.555 -1.1032 -2.4848  0.6480
 7693TIP3    H247275   0.518   2.163  20.604 -1.2341  0.5189  0.2903
 7694TIP3   OH247276   2.976   6.499  11.726 -0.3502 -0.3292 -0.0608
 7694TIP3    H147277   2.914   6.444  11.772 -1.5439  0.0009 -1.2275
 7694TIP3    H247278   3.053   6.443  11.712 -0.4750 -0.8239  1.1532
 7695TIP3   OH247279   5.710   2.311  11.269  0.3705 -0.5755 -0.4065
 7695TIP3    H147280   5.672   2.224  11.280  1.1863 -0.7946  0.8610
 7695TIP3    H247281   5.795   2.296  11.228  0.5880 -0.3863 -0.0274
 7696TIP3   OH247282   0.301   3.163  12.147 -0.1269  0.4924 -0.8742
 7696TIP3    H147283   0.358   3.090  12.121 -1.3961 -1.1119  0.5865
 7696TIP3    H247284   0.291   3.215  12.067  3.5067  1.0037 -1.1430
 7697TIP3   OH247285   3.599   0.821  11.806 -0.3336 -0.0852 -0.2594
 7697TIP3    H147286   3.575   0.748  11.863 -0.7227  0.3712  0.1643
 7697TIP3    H247287   3.569   0.794  11.719 -2.6260  0.5588  0.2893
 7698TIP3   OH247288   5.760   0.506  12.047 -0.0533 -0.4469  0.7534
 7698TIP3    H147289   5.703   0.439  12.087  1.1208 -1.6051  0.5489
 7698TIP3    H247290   5.755   0.487  11.953  0.4977 -0.4295  0.7202
 7699TIP3   OH247291   2.062   4.458  12.246  0.4219 -0.4163  0.2998
 7699TIP3    H147292   2.046   4.382  12.190  3.4355  0.1116 -1.4781
 7699TIP3    H247293   2.151   4.445  12.279  0.3708  1.5383  1.3464
 7700TIP3   OH247294   2.785   4.172   9.790  0.1973  0.7925 -0.4098
 7700TIP3    H147295   2.798   4.126   9.707 -3.3369  1.1933 -1.3446
 7700TIP3    H247296   2.803   4.264   9.769  0.9051  0.7013 -0.2466
 7701TIP3   OH247297   3.218   0.771  12.485  0.3308 -0.6850  0.1517
 7701TIP3    H147298   3.302   0.726  12.494  1.4608  1.5280  1.6292
 7701TIP3    H247299   3.165   0.738  12.558  0.6903 -0.5136  0.4902
 7702TIP3   OH247300   2.629   0.288  11.389 -0.3558  0.8487  0.2898
 7702TIP3    H147301   2.606   0.283  11.296 -0.7267  1.6076  0.3333
 7702TIP3    H247302   2.619   0.381  11.411  0.6659  0.8378  0.8540
 7703TIP3   OH247303   6.401   5.567  10.358 -0.1636  0.0940  0.5499
 7703TIP3    H147304   6.331   5.505  10.375 -0.6395  0.0138 -1.3866
 7703TIP3    H247305   6.366   5.652  10.386 -0.1219 -0.2662  1.7200
 7704TIP3   OH247306   3.945   5.425  11.528 -0.1770 -0.3165  0.1056
 7704TIP3    H147307   4.026   5.410  11.578 -0.3342  2.2089  1.2918
 7704TIP3    H247308   3.888   5.353  11.554  0.9075 -0.8754  1.0607
 7705TIP3   OH247309   0.653   0.880  10.221  0.0814 -0.3499  0.6404
 7705TIP3    H147310   0.639   0.844  10.309 -3.7800 -1.1675 -0.1395
 7705TIP3    H247311   0.593   0.954  10.216  1.1712  0.4810 -0.9489
 7706TIP3   OH247312   2.216   2.085  10.424  0.6050  0.1334 -1.1973
 7706TIP3    H147313   2.219   2.005  10.476  0.9393  0.4313 -0.7590
 7706TIP3    H247314   2.222   2.156  10.487 -3.6170  0.7019 -1.1304
 7707TIP3   OH247315   5.944   4.720  11.038 -0.2612  0.1766  0.0196
 7707TIP3    H147316   6.031   4.735  11.001 -1.0520  3.4679 -0.8039
 7707TIP3    H247317   5.903   4.657  10.979  0.6635  0.6239 -1.1203
 7708TIP3   OH247318   0.536   3.890  11.287 -0.4217  0.2286  0.3985
 7708TIP3    H147319   0.558   3.860  11.375  0.6352  0.5339  0.2495
 7708TIP3    H247320   0.477   3.964  11.301 -0.0485  0.4438  0.8605
 7709TIP3   OH247321   4.404   4.979  12.573  0.4269  0.0009 -0.1252
 7709TIP3    H147322   4.345   4.935  12.635 -1.3075  1.9874 -0.2737
 7709TIP3    H247323   4.489   4.978  12.617  0.1394 -2.1039  0.5250
 7710TIP3   OH247324   0.587   2.060  11.144  0.2150 -0.6325 -0.2268
 7710TIP3    H147325   0.670   2.018  11.165  0.4502  0.3343  0.8844
 7710TIP3    H247326   0.592   2.146  11.187 -0.2859  0.5029 -2.2953
 7711TIP3   OH247327   1.717   4.887  10.240  0.0144 -0.7714 -0.2681
 7711TIP3    H147328   1.634   4.934  10.247  0.5474  0.2610 -0.7229
 7711TIP3    H247329   1.782   4.955  10.222  0.6927 -1.7440 -1.7011
 7712TIP3   OH247330   2.193   1.802   9.712 -0.0098 -0.0468  0.1181
 7712TIP3    H147331   2.233   1.807   9.626  1.3998 -0.2738  0.7245
 7712TIP3    H247332   2.265   1.821   9.773 -0.8356 -0.4673  1.2635
 7713TIP3   OH247333   0.461   0.486  10.645 -0.2489  0.0886 -0.3939
 7713TIP3    H147334   0.523   0.480  10.573 -0.7763  0.0454 -0.8549
 7713TIP3    H247335   0.509   0.528  10.715 -0.2308  1.6939 -1.3329
 7714TIP3   OH247336   6.304   3.041  10.164 -0.0102 -0.2030  0.6373
 7714TIP3    H147337   6.260   3.104  10.107  1.8128  1.4266  0.9093
 7714TIP3    H247338   6.240   3.020  10.231 -0.6399  1.5093  0.6157
 7715TIP3   OH247339   6.536   3.197  10.813  0.3856 -0.5149 -0.1338
 7715TIP3    H147340   6.516   3.273  10.757 -0.0833 -0.1266  0.5475
 7715TIP3    H247341   6.626   3.173  10.789  1.2849  1.4689  0.9826
 7716TIP3   OH247342   2.976   5.253  12.976  0.4888 -0.4559  0.4928
 7716TIP3    H147343   2.977   5.158  12.989 -0.4991 -0.4696  0.5056
 7716TIP3    H247344   3.051   5.270  12.918  0.7929 -1.2125  0.6563
 7717TIP3   OH247345   2.513   0.867  10.060  0.0498  0.4900  0.0368
 7717TIP3    H147346   2.596   0.863  10.012  0.0482 -0.7355  0.1019
 7717TIP3    H247347   2.516   0.951  10.106  0.9148  0.8024 -0.5594
 7718TIP3   OH247348   6.257   5.315  10.158 -0.2733  0.2274 -0.7053
 7718TIP3    H147349   6.215   5.229  10.166  0.4154  0.0038  0.8247
 7718TIP3    H247350   6.237   5.359  10.241 -0.7551  1.6146 -1.5422
 7719TIP3   OH247351   4.849   2.310  10.142 -0.2946 -0.0220 -0.0931
 7719TIP3    H147352   4.867   2.241  10.078 -0.9298 -0.0408 -0.2547
 7719TIP3    H247353   4.755   2.303  10.160  0.0046 -0.5008  1.3987
 7720TIP3   OH247354   5.215   4.683  10.315 -0.3124 -0.5100 -0.2609
 7720TIP3    H147355   5.150   4.652  10.378 -1.0925 -1.6016 -1.5612
 7720TIP3    H247356   5.287   4.714  10.370 -0.2991 -2.8376  1.1963
 7721TIP3   OH247357   0.382   3.475  10.063  0.2253 -0.7271 -0.0095
 7721TIP3    H147358   0.384   3.482  10.159 -1.0271 -0.1687 -0.0087
 7721TIP3    H247359   0.350   3.387  10.046  1.1206 -1.0808  0.0644
 7722TIP3   OH247360   3.736   0.654   9.637 -0.0571 -0.0549  0.1185
 7722TIP3    H147361   3.705   0.591   9.573  1.2518 -1.5124  0.8504
 7722TIP3    H247362   3.709   0.619   9.721 -1.0119  1.3983  0.4545
 7723TIP3   OH247363   5.414   0.685  12.442 -0.2710  0.4961 -0.3626
 7723TIP3    H147364   5.360   0.747  12.392 -0.8727  0.6358  0.4320
 7723TIP3    H247365   5.351   0.638  12.497  0.3414  0.1332  0.0425
 7724TIP3   OH247366   5.385   0.190   9.926  0.3262 -0.1026  0.0058
 7724TIP3    H147367   5.310   0.205   9.868  0.0819  1.5806  0.6904
 7724TIP3    H247368   5.442   0.131   9.877 -2.4578 -3.4295  0.3967
 7725TIP3   OH247369   3.218   1.435  10.805  0.0914 -0.6479  0.8373
 7725TIP3    H147370   3.286   1.488  10.763  1.4212 -0.6921  2.7978
 7725TIP3    H247371   3.168   1.398  10.732  0.1496  1.9242 -0.6443
 7726TIP3   OH247372   6.131   1.663  11.596 -0.3440 -0.2804  0.3707
 7726TIP3    H147373   6.114   1.707  11.679 -2.0035 -0.0537 -0.0418
 7726TIP3    H247374   6.066   1.593  11.592 -0.2497 -0.3322 -0.6931
 7727TIP3   OH247375   1.011   2.931  11.309  0.2130  0.1839 -0.3613
 7727TIP3    H147376   1.031   2.962  11.220  1.5227  2.4054  0.6248
 7727TIP3    H247377   0.965   3.003  11.350 -0.0070 -0.6521  0.9255
 7728TIP3   OH247378   3.455   4.398  11.442  0.6357 -0.0063  0.2017
 7728TIP3    H147379   3.499   4.378  11.525  2.1779 -0.6391 -0.7321
 7728TIP3    H247380   3.491   4.483  11.415  1.2727 -0.4996 -0.5406
 7729TIP3   OH247381   4.643   6.351  10.299 -0.7979 -0.0312 -0.4806
 7729TIP3    H147382   4.571   6.414  10.287 -0.1643  0.4800 -1.7263
 7729TIP3    H247383   4.677   6.336  10.211  3.6901  3.3737  0.3023
 7730TIP3   OH247384   0.665   5.790  12.429  0.1741 -0.0533  0.4847
 7730TIP3    H147385   0.698   5.747  12.508  0.0178  1.0031  1.1440
 7730TIP3    H247386   0.570   5.790  12.439  0.0660 -1.0506 -0.3299
 7731TIP3   OH247387   3.564   4.625  11.372  0.2142  0.2611  0.2621
 7731TIP3    H147388   3.655   4.634  11.399  0.4123 -1.0848  0.1183
 7731TIP3    H247389   3.568   4.620  11.276  0.0367 -0.2187  0.2773
 7732TIP3   OH247390   2.625   1.486  12.035  0.6532  0.0722 -0.2195
 7732TIP3    H147391   2.715   1.459  12.048  0.9411  0.7343 -0.7836
 7732TIP3    H247392   2.606   1.467  11.943  0.8386  1.6311 -0.6130
 7733TIP3   OH247393   3.115   1.159   9.687 -0.4530 -0.3183 -0.5694
 7733TIP3    H147394   3.210   1.153   9.697 -0.3517  2.4469  1.3072
 7733TIP3    H247395   3.096   1.252   9.701 -3.2875 -0.4431 -2.7172
 7734TIP3   OH247396   2.488   2.034  11.861 -0.0189 -0.0301 -0.2807
 7734TIP3    H147397   2.527   2.078  11.786  0.6875 -0.1945 -0.0156
 7734TIP3    H247398   2.546   1.960  11.879 -1.5172 -1.4532 -1.0923
 7735TIP3   OH247399   6.099   4.278  11.459 -0.0114 -0.4338  0.0163
 7735TIP3    H147400   6.043   4.206  11.427 -1.2014  1.2443 -1.9344
 7735TIP3    H247401   6.175   4.276  11.400  0.0394 -0.2060  0.0774
 7736TIP3   OH247402   0.884   1.830  12.209  0.0635  0.7133  0.1570
 7736TIP3    H147403   0.820   1.865  12.147 -0.3199  0.4139  0.3784
 7736TIP3    H247404   0.928   1.760  12.161 -0.0180  0.6883  0.1178
 7737TIP3   OH247405   2.889   4.217  11.142  0.1755  0.3765  0.4476
 7737TIP3    H147406   2.899   4.230  11.236 -0.1018 -0.4779  0.6030
 7737TIP3    H247407   2.794   4.212  11.128  0.2316 -1.0130  0.3614
 7738TIP3   OH247408   5.835   5.030  12.321 -0.2765  0.5252 -0.5818
 7738TIP3    H147409   5.793   4.979  12.391  1.6922  1.3511  1.3105
 7738TIP3    H247410   5.924   4.997  12.318  0.6252  2.7856 -0.3297
 7739TIP3   OH247411   1.268   1.907   9.682  0.9998  0.5628  0.7689
 7739TIP3    H147412   1.301   1.869   9.764 -0.1804  1.2489  1.5949
 7739TIP3    H247413   1.263   2.001   9.700  1.4762  0.8310 -0.3822
 7740TIP3   OH247414   4.023   5.132  10.530 -0.5955 -0.0096  0.5956
 7740TIP3    H147415   4.078   5.206  10.554 -1.0276  0.8389 -0.9078
 7740TIP3    H247416   3.973   5.162  10.454 -0.3022 -2.0284 -0.4881
 7741TIP3   OH247417   2.998   0.875  10.513 -0.2908  0.8104  0.1741
 7741TIP3    H147418   3.015   0.850  10.423 -0.0298 -1.1025  0.7211
 7741TIP3    H247419   2.907   0.904  10.513 -0.3720  0.5763 -0.6391
 7742TIP3   OH247420   5.661   5.877  11.466 -0.5090  0.4059 -0.6209
 7742TIP3    H147421   5.718   5.828  11.408 -1.9080 -0.8898 -0.9695
 7742TIP3    H247422   5.576   5.833  11.459 -1.0428  0.9869  1.4310
 7743TIP3   OH247423   0.467   3.586  10.881 -0.1251 -0.4009  0.4471
 7743TIP3    H147424   0.427   3.536  10.952 -0.3910  0.4320  0.8925
 7743TIP3    H247425   0.561   3.582  10.899 -0.1944 -0.1452  0.8883
 7744TIP3   OH247426   6.079   6.260   9.958 -0.6198 -0.0131 -0.2371
 7744TIP3    H147427   5.994   6.302   9.949 -0.2038  0.8440 -0.2876
 7744TIP3    H247428   6.142   6.325   9.925  0.1782 -0.0580  1.0980
 7745TIP3   OH247429   1.386   6.122  12.095 -0.1707 -0.0557 -0.2120
 7745TIP3    H147430   1.445   6.048  12.084  0.7688  0.8240 -1.5962
 7745TIP3    H247431   1.442   6.191  12.131 -1.1374 -0.1295  1.5069
 7746TIP3   OH247432   0.379   5.623  11.738 -0.4859  0.1546  0.1892
 7746TIP3    H147433   0.453   5.683  11.745 -1.1952  1.2116 -0.8530
 7746TIP3    H247434   0.393   5.558  11.806  0.8489  0.9307  0.6788
 7747TIP3   OH247435   1.199   4.268  10.982  0.3998 -0.1730 -0.1347
 7747TIP3    H147436   1.207   4.355  11.021  0.5420  0.1377 -0.8505
 7747TIP3    H247437   1.116   4.234  11.016 -0.0397  0.5533 -0.4607
 7748TIP3   OH247438   3.802   2.836   9.529  0.1681  0.1010  0.3456
 7748TIP3    H147439   3.778   2.743   9.533  1.8796 -0.4929 -1.4756
 7748TIP3    H247440   3.778   2.863   9.440 -1.0563  1.6683  1.1029
 7749TIP3   OH247441   1.377   1.705   9.876  0.6512  0.1103 -0.0775
 7749TIP3    H147442   1.438   1.639   9.841 -1.8217 -2.3524 -0.1073
 7749TIP3    H247443   1.386   1.697   9.971 -0.1431 -0.8633 -0.0634
 7750TIP3   OH247444   3.849   0.207  11.914 -0.3578 -0.1480  0.0664
 7750TIP3    H147445   3.766   0.199  11.866  0.6681  1.5804 -2.1384
 7750TIP3    H247446   3.860   0.301  11.927  0.8809 -0.4138  1.0720
 7751TIP3   OH247447   4.092   5.206  10.984 -0.3104  0.1722  0.3383
 7751TIP3    H147448   4.131   5.149  10.918 -1.0061 -0.3863  0.4001
 7751TIP3    H247449   4.037   5.148  11.037 -1.2107  0.9315  0.2576
 7752TIP3   OH247450   0.985   1.695  11.412  0.3958 -0.3055 -0.0247
 7752TIP3    H147451   0.901   1.652  11.421  0.6710 -1.2687 -1.6840
 7752TIP3    H247452   1.048   1.635  11.451  0.3411  0.4207  1.2306
 7753TIP3   OH247453   1.945   0.561  12.208  0.1056 -0.2234  0.0046
 7753TIP3    H147454   1.944   0.640  12.153  1.6193 -0.9741 -1.1704
 7753TIP3    H247455   1.853   0.537  12.215 -0.1843  0.0627 -2.0253
 7754TIP3   OH247456   5.546   2.544   9.560  0.0112  0.4275 -0.2786
 7754TIP3    H147457   5.512   2.631   9.539  0.3779  0.5634 -0.3291
 7754TIP3    H247458   5.592   2.556   9.643  1.4148  0.6506 -1.0525
 7755TIP3   OH247459   1.207   3.373  12.464  0.2610  0.1751  0.2697
 7755TIP3    H147460   1.177   3.456  12.502 -1.8143 -0.7277  0.7506
 7755TIP3    H247461   1.151   3.359  12.388 -1.3510 -2.0390  1.7386
 7756TIP3   OH247462   2.984   1.615  12.284 -0.2317  0.1074 -0.3647
 7756TIP3    H147463   2.978   1.526  12.318  0.4146 -0.0221 -0.5655
 7756TIP3    H247464   2.917   1.664  12.331 -0.9917 -0.6209 -0.6818
 7757TIP3   OH247465   3.501   5.173  11.130 -0.1622 -0.2904  0.3175
 7757TIP3    H147466   3.542   5.255  11.104 -0.4545  0.0524  0.9221
 7757TIP3    H247467   3.432   5.199  11.191  0.0114 -1.0156  0.8328
 7758TIP3   OH247468   5.780   5.503  12.362 -0.1305 -0.1001 -0.6837
 7758TIP3    H147469   5.810   5.585  12.323  1.1375 -0.5605 -0.7131
 7758TIP3    H247470   5.857   5.446  12.361 -0.2559 -0.4041  1.7644
 7759TIP3   OH247471   3.915   5.166  10.266  0.3327 -0.6911 -0.3169
 7759TIP3    H147472   3.859   5.240  10.244  0.5021  0.0302  1.5238
 7759TIP3    H247473   3.981   5.164  10.197  1.7706  2.4182  0.8102
 7760TIP3   OH247474   4.231   6.064  11.041  0.4908 -0.0056 -0.1097
 7760TIP3    H147475   4.214   5.970  11.048 -1.7789  0.4433  1.5079
 7760TIP3    H247476   4.299   6.071  10.974  0.0511 -2.7144 -0.9649
 7761TIP3   OH247477   6.337   4.935  11.237 -0.1570  0.0575  0.4020
 7761TIP3    H147478   6.290   4.978  11.308  1.8596 -0.6812  2.3038
 7761TIP3    H247479   6.398   5.001  11.203  1.4397 -0.5747  1.8912
 7762TIP3   OH247480   4.320   0.211  12.138 -0.5356  0.0530  0.1235
 7762TIP3    H147481   4.283   0.207  12.226 -1.7071 -0.7861 -0.3810
 7762TIP3    H247482   4.370   0.293  12.137  0.1101 -0.2826  1.7877
 7763TIP3   OH247483   0.397   2.223  11.507 -0.4971 -0.5358 -0.2456
 7763TIP3    H147484   0.331   2.289  11.528  2.2701  2.1415  0.7115
 7763TIP3    H247485   0.404   2.171  11.587  0.5786  1.0870  0.7635
 7764TIP3   OH247486   0.110   6.149   9.824  0.0236  0.0439  0.1430
 7764TIP3    H147487   0.094   6.236   9.788 -0.6012 -0.4639 -0.8646
 7764TIP3    H247488   0.029   6.101   9.808  0.8789 -1.1840 -0.7632
 7765TIP3   OH247489   4.060   6.341  11.374 -0.5731  0.0231 -0.2176
 7765TIP3    H147490   4.110   6.320  11.296 -0.2604 -0.4662  0.1083
 7765TIP3    H247491   4.126   6.355  11.442 -0.8855 -1.3456  0.3923
 7766TIP3   OH247492   2.955   5.567  12.126 -0.2576 -0.6589 -0.5823
 7766TIP3    H147493   2.939   5.490  12.180  0.5198 -0.2345  0.2918
 7766TIP3    H247494   2.875   5.618  12.132  0.5848  0.5149  2.1454
 7767TIP3   OH247495   6.224   3.758  10.757  0.5505 -0.2192  0.5493
 7767TIP3    H147496   6.201   3.712  10.838 -0.5033  1.5055  1.2929
 7767TIP3    H247497   6.147   3.749  10.701  0.3420  0.5800  0.6949
 7768TIP3   OH247498   4.019   0.788  11.755  0.4665  0.3986 -0.0150
 7768TIP3    H147499   4.112   0.766  11.764  0.4468  0.0933 -0.4913
 7768TIP3    H247500   3.981   0.772  11.841  0.8103  0.2935  0.1157
 7769TIP3   OH247501   5.037   4.011   9.807  0.0125 -0.3945 -0.4647
 7769TIP3    H147502   5.070   3.975   9.890 -0.6462 -2.0911 -0.8797
 7769TIP3    H247503   4.942   4.006   9.816 -0.1725  2.5681 -0.0507
 7770TIP3   OH247504   1.272   0.132  11.290  0.6267  0.0325  0.2573
 7770TIP3    H147505   1.243   0.181  11.213 -1.5444 -1.0845  0.2815
 7770TIP3    H247506   1.326   0.061  11.254 -0.4579 -0.5435 -0.2736
 7771TIP3   OH247507   2.125   3.760  10.779  0.3471  0.1880  0.3313
 7771TIP3    H147508   2.220   3.775  10.785  0.1525  1.3972  0.5511
 7771TIP3    H247509   2.099   3.801  10.697 -0.0256  0.0785  0.3934
 7772TIP3   OH247510   6.561   5.088  11.435 -0.2098  0.5667 -0.1397
 7772TIP3    H147511   6.614   5.160  11.402  1.9072 -0.8440 -0.0443
 7772TIP3    H247512   6.521   5.050  11.357  2.1129 -0.7194 -0.7988
 7773TIP3   OH247513   6.224   4.844  13.178 -0.3321 -0.9567  0.4434
 7773TIP3    H147514   6.242   4.836  13.084 -0.4729  1.4281  0.1429
 7773TIP3    H247515   6.157   4.911  13.183  1.2879  0.6420  2.3506
 7774TIP3   OH247516   5.843   5.760   9.661  0.0113 -0.3962  0.2230
 7774TIP3    H147517   5.761   5.732   9.621  0.3434 -0.9601 -0.0694
 7774TIP3    H247518   5.868   5.688   9.719  0.7126 -0.5922 -0.3036
 7775TIP3   OH247519   3.715   2.604  11.707 -0.3117  0.3123 -0.0034
 7775TIP3    H147520   3.736   2.691  11.673  3.2580 -0.8531 -1.2178
 7775TIP3    H247521   3.707   2.617  11.802 -0.2047  2.0167 -0.1992
 7776TIP3   OH247522   0.941   2.029  12.542  0.0814 -0.4976 -0.9104
 7776TIP3    H147523   0.916   1.947  12.500  0.4810 -0.8189 -0.5288
 7776TIP3    H247524   0.968   2.003  12.630 -1.8530  0.2802 -0.0164
 7777TIP3   OH247525   6.103   6.436  12.322  0.3336  0.1333 -0.0281
 7777TIP3    H147526   6.183   6.387  12.298  1.1227  1.0819  0.5995
 7777TIP3    H247527   6.084   6.489  12.244  0.9076  0.6597  0.1857
 7778TIP3   OH247528   3.308   4.289   9.680 -0.2034  0.1035 -0.3274
 7778TIP3    H147529   3.242   4.260   9.617  1.1796 -0.8618 -1.3874
 7778TIP3    H247530   3.387   4.304   9.627  1.2897 -1.6515  1.2349
 7779TIP3   OH247531   1.400   5.870  11.302 -0.0792 -0.1236  0.1026
 7779TIP3    H147532   1.447   5.813  11.363  1.2920  0.6554 -0.1998
 7779TIP3    H247533   1.337   5.917  11.357 -1.6964 -2.3252  0.2675
 7780TIP3   OH247534   5.637   6.563  11.187 -0.5037  0.0086 -0.4272
 7780TIP3    H147535   5.613   6.472  11.207 -0.0275 -0.0982 -0.3362
 7780TIP3    H247536   5.682   6.594  11.265  0.6932 -0.1714 -1.0149
 7781TIP3   OH247537   6.177   4.350  10.422  0.4916  0.0863 -0.2350
 7781TIP3    H147538   6.168   4.270  10.475  0.1968 -1.0830 -1.9616
 7781TIP3    H247539   6.088   4.385  10.415  0.8532  1.7008  2.0794
 7782TIP3   OH247540   1.238   2.166  11.074  0.7014  0.1616 -0.3280
 7782TIP3    H147541   1.153   2.207  11.056  0.9998  0.8158 -0.2521
 7782TIP3    H247542   1.246   2.099  11.005 -0.0394 -0.1690 -0.1092
 7783TIP3   OH247543   1.955   3.232  11.664  0.1949 -0.4990 -0.3413
 7783TIP3    H147544   1.917   3.305  11.615 -0.3560 -0.0413  0.7361
 7783TIP3    H247545   2.048   3.254  11.670  0.0715  0.0086 -0.2252
 7784TIP3   OH247546   4.392   6.283   9.536 -0.0897  0.1475  0.2938
 7784TIP3    H147547   4.423   6.197   9.506 -0.1136  0.2158  0.0726
 7784TIP3    H247548   4.323   6.263   9.598 -0.4174  0.0102 -0.1083
 7785TIP3   OH247549   2.741   0.080  10.364  0.7521 -0.1595  0.2254
 7785TIP3    H147550   2.814   0.061  10.423  1.6739 -2.2166 -1.4500
 7785TIP3    H247551   2.780   0.135  10.295 -0.0929  1.4365  0.9733
 7786TIP3   OH247552   5.119   5.451  10.509 -0.0730 -0.5590  0.3105
 7786TIP3    H147553   5.101   5.492  10.424  0.9398 -0.3857  0.1608
 7786TIP3    H247554   5.111   5.523  10.572 -0.3540 -0.5872  0.3107
 7787TIP3   OH247555   1.768   3.189  13.054 -0.1317 -0.0570 -0.4155
 7787TIP3    H147556   1.736   3.249  12.987 -0.1597  1.7272  1.1402
 7787TIP3    H247557   1.717   3.210  13.132  0.8254 -1.1732  0.5555
 7788TIP3   OH247558   3.812   1.754  10.307 -0.0975 -0.5664 -0.0766
 7788TIP3    H147559   3.759   1.734  10.385 -0.6954  0.4786 -0.1963
 7788TIP3    H247560   3.900   1.725  10.330 -0.2938 -0.3861  0.9537
 7789TIP3   OH247561   0.450   0.860   9.679 -0.6458  0.3479  0.1238
 7789TIP3    H147562   0.446   0.901   9.765 -2.0003  0.1362  0.1829
 7789TIP3    H247563   0.543   0.840   9.666 -0.4200  0.4368  1.5003
 7790TIP3   OH247564   2.814   0.077   9.791 -0.2521  0.4146 -0.1712
 7790TIP3    H147565   2.840  -0.015   9.787 -2.1543 -0.2790  1.8194
 7790TIP3    H247566   2.895   0.125   9.805  0.4754 -1.2233  1.4749
 7791TIP3   OH247567   6.200   1.713  11.063  0.2080  0.0973 -0.2813
 7791TIP3    H147568   6.284   1.723  11.017  0.1357 -1.2648 -0.7505
 7791TIP3    H247569   6.219   1.652  11.134  0.0210  1.2218  0.7687
 7792TIP3   OH247570   5.468   4.080  11.456  0.2181  0.1033  0.4618
 7792TIP3    H147571   5.458   4.153  11.516 -0.8550 -0.5152  1.0650
 7792TIP3    H247572   5.556   4.047  11.472  1.5790  2.5573 -1.3521
 7793TIP3   OH247573   2.513   2.003  10.220 -0.4717  0.4489 -0.3059
 7793TIP3    H147574   2.593   2.038  10.182 -0.4082  0.0987 -0.4939
 7793TIP3    H247575   2.443   2.056  10.181 -0.3946  0.2095 -0.7720
 7794TIP3   OH247576   4.205   3.464  11.072  0.0707 -0.0068  0.4525
 7794TIP3    H147577   4.219   3.381  11.118  0.9146  0.4151  0.9817
 7794TIP3    H247578   4.139   3.510  11.124 -0.1523 -0.2004  0.3440
 7795TIP3   OH247579   6.465   2.923  10.933  0.5692 -0.5747  0.1224
 7795TIP3    H147580   6.553   2.908  10.968  0.0693 -1.8883  0.8940
 7795TIP3    H247581   6.458   3.018  10.925  1.9505 -0.4385  0.3228
 7796TIP3   OH247582   5.056   5.397  10.086  0.1365  0.1508 -0.0064
 7796TIP3    H147583   5.072   5.472  10.029  0.4726  1.6736  1.9651
 7796TIP3    H247584   5.103   5.325  10.045  1.3796  1.4752 -1.0190
 7797TIP3   OH247585   3.152   0.045  10.287 -0.2147 -0.1903  0.2708
 7797TIP3    H147586   3.240   0.015  10.264  0.1750  0.6462  0.6413
 7797TIP3    H247587   3.099  -0.035  10.289 -0.1396 -0.4437 -2.7476
 7798TIP3   OH247588   5.030   6.453  11.825  0.2667 -0.0743 -0.3586
 7798TIP3    H147589   4.950   6.429  11.778 -0.0744  0.9687 -0.3347
 7798TIP3    H247590   5.040   6.547  11.810  0.3216  0.2373  1.4085
 7799TIP3   OH247591   2.168   1.778  10.888  0.3035  0.3928  0.1952
 7799TIP3    H147592   2.171   1.691  10.928 -0.1792  0.3576  0.1660
 7799TIP3    H247593   2.259   1.798  10.866  0.3918 -0.1917  0.0187
 7800TIP3   OH247594   5.997   3.676   9.971  0.6500 -0.4283  0.5467
 7800TIP3    H147595   6.051   3.672  10.050  0.4853 -1.0708  0.6323
 7800TIP3    H247596   5.967   3.586   9.957 -0.8894 -0.0050  0.8467
 7801TIP3   OH247597   4.098   4.774  11.449  0.0302  0.0930  0.1155
 7801TIP3    H147598   4.127   4.697  11.496 -0.4064  0.4697  1.0230
 7801TIP3    H247599   4.111   4.847  11.510 -0.2627  0.6361 -0.4463
 7802TIP3   OH247600   3.783   6.541  10.516  0.1732 -0.1211  0.3848
 7802TIP3    H147601   3.789   6.462  10.462  3.4899  0.4836 -0.3255
 7802TIP3    H247602   3.740   6.511  10.596 -1.8463 -1.7812 -1.2011
 7803TIP3   OH247603   0.392   6.250  10.955 -0.3647 -0.2523  0.5743
 7803TIP3    H147604   0.376   6.199  11.034  0.4683  0.3867  1.1753
 7803TIP3    H247605   0.324   6.222  10.894 -2.0636  0.4210  2.0740
 7804TIP3   OH247606   0.084   4.391   9.475 -0.5120  0.0813  0.3773
 7804TIP3    H147607   0.045   4.311   9.510  0.7669 -0.4891  0.5701
 7804TIP3    H247608   0.150   4.361   9.412 -0.4710  0.9995 -0.0375
 7805TIP3   OH247609   2.101   2.043  12.410 -0.1160  0.0833  0.3141
 7805TIP3    H147610   2.125   1.997  12.491  0.5023  3.1622  2.0291
 7805TIP3    H247611   2.170   2.020  12.348  2.9946  2.3060  2.6155
 7806TIP3   OH247612   4.737   5.276   9.304  0.4203  0.4003 -0.5838
 7806TIP3    H147613   4.731   5.350   9.364  0.8303  1.2408 -1.5519
 7806TIP3    H247614   4.818   5.231   9.329 -0.0114  0.0578  0.2347
 7807TIP3   OH247615   3.016   1.831   9.914 -0.3992  0.1992 -0.0621
 7807TIP3    H147616   3.055   1.918   9.918 -0.6313  0.3621 -1.0168
 7807TIP3    H247617   2.986   1.823   9.824  1.0984 -1.5165 -0.4694
 7808TIP3   OH247618   1.146   5.300  11.130 -0.0130 -0.6357  0.4099
 7808TIP3    H147619   1.103   5.241  11.192 -2.0753 -0.6455 -0.9587
 7808TIP3    H247620   1.121   5.388  11.160  0.5860 -0.5591  0.6983
 7809TIP3   OH247621   6.040   5.632  10.602 -0.0112  0.2135 -0.2441
 7809TIP3    H147622   5.952   5.597  10.584  0.5335 -1.2707 -0.1284
 7809TIP3    H247623   6.039   5.652  10.695 -0.9022  2.2922 -0.6323
 7810TIP3   OH247624   0.439   5.682   9.658 -0.6749  0.2853 -0.2209
 7810TIP3    H147625   0.395   5.598   9.656 -0.6958  0.1655  2.0393
 7810TIP3    H247626   0.370   5.746   9.639 -0.8507 -0.1269 -1.0258
 7811TIP3   OH247627   0.698   4.955  10.842  0.1677 -1.0009  0.3689
 7811TIP3    H147628   0.680   4.880  10.899  0.7790  0.0753  2.0554
 7811TIP3    H247629   0.642   5.025  10.875  0.2530 -0.4434 -0.6212
 7812TIP3   OH247630   2.200   3.060  10.594 -0.1820 -0.4904 -0.3201
 7812TIP3    H147631   2.176   3.121  10.664 -1.5834 -0.0149 -1.1818
 7812TIP3    H247632   2.285   3.026  10.621  0.7535  1.9705  0.0903
 7813TIP3   OH247633   2.638   2.185   9.784 -0.3152 -0.2502  0.1673
 7813TIP3    H147634   2.729   2.211   9.793 -0.4213 -0.0189  0.5960
 7813TIP3    H247635   2.605   2.237   9.710 -0.0813 -0.3923 -0.0386
 7814TIP3   OH247636   6.222   5.638  13.224  0.0584 -0.2044 -0.1894
 7814TIP3    H147637   6.259   5.656  13.310 -2.6559  1.0030  0.8515
 7814TIP3    H247638   6.296   5.609  13.171  1.8898 -0.6333  2.4225
 7815TIP3   OH247639   6.099   4.159  12.224 -0.2322 -0.4512  0.4364
 7815TIP3    H147640   6.082   4.244  12.183 -0.0035 -0.0040  1.2382
 7815TIP3    H247641   6.121   4.101  12.151 -1.6100 -0.1457 -0.2669
 7816TIP3   OH247642   2.357   3.760   9.870  0.0908  0.2665 -0.9484
 7816TIP3    H147643   2.286   3.699   9.888  2.4672 -1.9143  1.9350
 7816TIP3    H247644   2.320   3.846   9.889 -2.1062 -0.6399 -0.8270
 7817TIP3   OH247645   5.281   6.299  12.216  0.1489  0.3008  0.2542
 7817TIP3    H147646   5.239   6.378  12.183 -1.5600 -1.0981 -1.1258
 7817TIP3    H247647   5.213   6.255  12.267  0.2976 -1.3625 -0.8950
 7818TIP3   OH247648   0.904   4.129  10.128 -0.5298 -0.1140  0.1239
 7818TIP3    H147649   0.887   4.034  10.127 -1.0248 -0.0314  0.2462
 7818TIP3    H247650   0.851   4.163  10.056 -1.3233  0.2218  0.8461
 7819TIP3   OH247651   1.962   6.426  10.721 -0.4741  0.0478 -0.3258
 7819TIP3    H147652   1.939   6.378  10.641  1.6181  1.6366 -2.0275
 7819TIP3    H247653   1.963   6.517  10.694  0.2095  0.6404  1.5742
 7820TIP3   OH247654   1.908   1.529   9.761 -0.7189 -0.2002 -0.1234
 7820TIP3    H147655   1.835   1.522   9.824  0.5917 -0.7637  1.4021
 7820TIP3    H247656   1.983   1.555   9.814  0.3786 -0.3699 -1.5369
 7821TIP3   OH247657   3.234   6.182  11.248  0.4211 -0.0120  0.2418
 7821TIP3    H147658   3.229   6.238  11.325  1.3432  0.8392 -0.2853
 7821TIP3    H247659   3.327   6.183  11.223  0.3201 -1.1355 -0.2588
 7822TIP3   OH247660   0.925   4.307   9.473  0.1766 -0.4120 -0.8436
 7822TIP3    H147661   0.869   4.344   9.405 -0.6575 -0.5818 -0.2642
 7822TIP3    H247662   0.952   4.222   9.438  0.5464 -0.0837 -1.3689
 7823TIP3   OH247663   3.374   4.919  11.041  0.1892 -0.3673  0.5893
 7823TIP3    H147664   3.382   4.874  11.125  0.3322  0.1497  0.8580
 7823TIP3    H247665   3.398   5.010  11.060  2.8823 -0.7443 -0.5252
 7824TIP3   OH247666   4.052   3.517   9.645  0.5177  0.3008 -0.3663
 7824TIP3    H147667   4.147   3.519   9.648  0.4797  0.5209  1.3573
 7824TIP3    H247668   4.028   3.591   9.589  1.3510 -0.5516 -1.9480
 7825TIP3   OH247669   4.037   5.995   9.965 -0.3383 -0.3213 -0.1055
 7825TIP3    H147670   4.036   6.086   9.934  1.0983  0.2662  1.4399
 7825TIP3    H247671   3.954   5.985  10.012  0.0366  0.6355  0.8127
 7826TIP3   OH247672   4.214   1.607  11.543  0.5114 -0.4498  0.1579
 7826TIP3    H147673   4.270   1.589  11.619  0.1648 -0.1889  0.4743
 7826TIP3    H247674   4.274   1.601  11.468  0.5269 -2.3978  0.2859
 7827TIP3   OH247675   6.426   1.543  12.662 -0.0520 -0.3290  0.2427
 7827TIP3    H147676   6.442   1.613  12.726 -0.9008 -0.3673  0.5072
 7827TIP3    H247677   6.343   1.568  12.620 -0.3127 -1.1309  0.2780
 7828TIP3   OH247678   6.470   1.361  12.381 -0.1224 -0.2017  0.2018
 7828TIP3    H147679   6.512   1.377  12.465  1.1277 -4.2713  0.6048
 7828TIP3    H247680   6.380   1.334  12.403  0.0401 -0.7399  0.2306
 7829TIP3   OH247681   0.039   6.619  10.616  0.2851 -0.0641 -0.8302
 7829TIP3    H147682   0.124   6.662  10.618  1.8313 -2.8071 -2.0172
 7829TIP3    H247683   0.017   6.614  10.523  0.3507 -2.0189 -0.7861
 7830TIP3   OH247684   2.674   3.277  11.053  0.8460 -0.6206 -0.0904
 7830TIP3    H147685   2.680   3.182  11.052  0.8104 -0.6191 -0.5529
 7830TIP3    H247686   2.671   3.300  11.146  0.7581 -1.0749  0.0194
 7831TIP3   OH247687   4.454   3.921  10.339  0.5014  0.5049 -0.4697
 7831TIP3    H147688   4.437   3.955  10.251 -0.1470 -0.3046 -0.6640
 7831TIP3    H247689   4.530   3.972  10.370  1.2160  0.2872 -1.7791
 7832TIP3   OH247690   4.124   2.953  11.105  0.0200  0.0331 -0.3093
 7832TIP3    H147691   4.112   2.931  11.013 -1.6485  1.4799 -0.5055
 7832TIP3    H247692   4.052   2.908  11.150  0.5712 -0.3245  0.2272
 7833TIP3   OH247693   1.321   3.602  10.149 -0.3140  0.2633  0.4458
 7833TIP3    H147694   1.400   3.579  10.101  0.8372  1.3597  1.7370
 7833TIP3    H247695   1.341   3.686  10.189 -2.7117  1.3249 -0.4134
 7834TIP3   OH247696   5.290   4.631  12.272  0.4567 -0.4349 -0.1458
 7834TIP3    H147697   5.199   4.628  12.299  0.3676 -0.8633 -0.4737
 7834TIP3    H247698   5.332   4.690  12.334 -0.0995 -0.0117 -0.1652
 7835TIP3   OH247699   5.718   6.544  11.486 -0.4073 -0.0147  0.7468
 7835TIP3    H147700   5.762   6.460  11.488 -1.7273 -0.7793 -0.3472
 7835TIP3    H247701   5.625   6.522  11.487 -0.8610  1.2449 -2.1112
 7836TIP3   OH247702   2.876   0.942  11.075 -0.1914  0.2457  0.2068
 7836TIP3    H147703   2.944   0.879  11.100 -1.7502 -1.7619 -0.3267
 7836TIP3    H247704   2.915   0.992  11.003  0.9026 -0.5408  0.2253
 7837TIP3   OH247705   3.516   6.456  12.060 -0.1027  0.0600  0.4853
 7837TIP3    H147706   3.587   6.500  12.107 -0.3432  2.5098 -1.2738
 7837TIP3    H247707   3.559   6.414  11.986 -0.4766  2.2968 -1.0931
 7838TIP3   OH247708   0.517   0.700  12.398 -0.2567 -0.0227  0.2798
 7838TIP3    H147709   0.461   0.673  12.471  0.1856 -0.3059  0.5143
 7838TIP3    H247710   0.505   0.795  12.393 -0.0421  0.0448  0.9274
 7839TIP3   OH247711   4.126   0.464  12.028 -0.1179  0.3873  0.2663
 7839TIP3    H147712   4.193   0.417  11.978 -0.5254 -0.1771  0.2474
 7839TIP3    H247713   4.072   0.507  11.961 -1.6778 -1.7071  0.0738
 7840TIP3   OH247714   0.502   2.523   9.706  0.3390  0.0913 -0.0337
 7840TIP3    H147715   0.573   2.502   9.645  0.2840 -1.0984  0.2825
 7840TIP3    H247716   0.472   2.610   9.679 -0.5984 -0.9035 -2.6144
 7841TIP3   OH247717   3.151   6.316   9.675 -0.3434  0.4919  0.0431
 7841TIP3    H147718   3.156   6.222   9.661  2.0029  0.7568 -1.4232
 7841TIP3    H247719   3.167   6.328   9.768 -1.0082 -0.5594  0.3017
 7842TIP3   OH247720   1.003   4.588  11.294 -0.0410  0.3867  0.2071
 7842TIP3    H147721   0.984   4.618  11.205  0.3417 -0.1876 -0.0758
 7842TIP3    H247722   1.041   4.665  11.337  2.9884 -0.1874 -1.1590
 7843TIP3   OH247723   5.408   3.487  10.907 -0.5784  0.1622  0.1795
 7843TIP3    H147724   5.454   3.417  10.953 -0.6846 -0.2169 -0.2898
 7843TIP3    H247725   5.460   3.566  10.925  1.9540 -0.6951 -2.6951
 7844TIP3   OH247726   3.926   4.922  11.773  0.1969 -0.0719  0.5947
 7844TIP3    H147727   4.020   4.904  11.782  0.5041  0.4800 -1.0259
 7844TIP3    H247728   3.910   4.993  11.835  1.3154  1.1380 -0.4164
 7845TIP3   OH247729   3.825   5.115  11.950 -0.1944  0.0230 -0.6048
 7845TIP3    H147730   3.742   5.068  11.954 -0.3856  0.4030  0.0647
 7845TIP3    H247731   3.853   5.122  12.042 -1.0127  2.7045 -0.4854
 7846TIP3   OH247732   5.205   1.390  12.367  0.1037  0.0285  0.1070
 7846TIP3    H147733   5.264   1.428  12.432  3.5319 -1.3484 -1.9700
 7846TIP3    H247734   5.230   1.298  12.361 -3.6078 -1.1713  0.3737
 7847TIP3   OH247735   0.206   3.637  12.413  0.3009  0.1266  0.5402
 7847TIP3    H147736   0.161   3.552  12.417  1.3649 -0.5182 -0.5716
 7847TIP3    H247737   0.208   3.667  12.503 -1.4846 -0.2840  0.7474
 7848TIP3   OH247738   1.510   2.456  12.857 -0.2849 -0.3372  0.3369
 7848TIP3    H147739   1.543   2.514  12.925 -0.5645  1.3783 -0.9290
 7848TIP3    H247740   1.464   2.514  12.796 -1.7627 -2.0748 -0.2875
 7849TIP3   OH247741   3.193   2.801   9.863  0.0679  0.3815  0.1032
 7849TIP3    H147742   3.254   2.866   9.830  1.2924 -0.3904  0.7728
 7849TIP3    H247743   3.153   2.842   9.940 -1.1261  1.3164 -0.9791
 7850TIP3   OH247744   1.167   6.023  12.680  0.0714 -0.3686  0.2614
 7850TIP3    H147745   1.257   6.050  12.694  0.3727 -1.6313  0.8227
 7850TIP3    H247746   1.115   6.087  12.729  0.6855 -0.0212  0.4678
 7851TIP3   OH247747   2.141   2.557  13.251 -1.0721  0.3024 -0.3450
 7851TIP3    H147748   2.177   2.468  13.248 -0.4442  0.5627 -1.7315
 7851TIP3    H247749   2.140   2.580  13.344  0.5724 -0.4472 -0.1015
 7852TIP3   OH247750   2.273   2.306  11.765  0.3152  0.0654 -0.5686
 7852TIP3    H147751   2.353   2.269  11.727  1.3731  1.0865  0.5701
 7852TIP3    H247752   2.216   2.231  11.778  0.0498 -0.3961 -3.6946
 7853TIP3   OH247753   2.422   4.199  10.556  0.4184 -0.4770 -0.2210
 7853TIP3    H147754   2.416   4.291  10.532  0.6088 -0.7560 -1.3960
 7853TIP3    H247755   2.371   4.192  10.636  1.4408  0.8882  0.6010
 7854TIP3   OH247756   5.828   3.970  12.812  0.1499  0.1542 -0.2467
 7854TIP3    H147757   5.819   3.894  12.756  1.9682 -0.4792  0.2660
 7854TIP3    H247758   5.808   3.938  12.900  0.4791  0.3892 -0.0870
 7855TIP3   OH247759   1.261   6.396   9.508  0.0329 -0.4536  0.3608
 7855TIP3    H147760   1.333   6.395   9.445 -1.5870 -0.5150 -1.5846
 7855TIP3    H247761   1.251   6.304   9.534  0.9533 -0.3736  1.0290
 7856TIP3   OH247762   3.041   1.708  10.366  0.2574 -0.7504 -0.0329
 7856TIP3    H147763   3.064   1.797  10.338 -0.9612  0.1221  1.5461
 7856TIP3    H247764   3.118   1.678  10.415 -0.2772  0.5352  1.7150
 7857TIP3   OH247765   4.246   3.459  12.204  0.4215 -0.2008  0.1057
 7857TIP3    H147766   4.219   3.423  12.289  0.9171 -1.3523 -0.2038
 7857TIP3    H247767   4.336   3.486  12.217  0.3986 -0.0902  0.0315
 7858TIP3   OH247768   3.476   0.038   9.705  0.3042 -0.2266 -0.7061
 7858TIP3    H147769   3.415  -0.021   9.660  0.8652  0.5374 -2.5120
 7858TIP3    H247770   3.420   0.088   9.765 -0.8303  0.2031 -2.0632
 7859TIP3   OH247771   5.653   0.615  12.311  0.3161 -0.2677 -0.0514
 7859TIP3    H147772   5.568   0.639  12.349  0.4961  1.2835 -0.5705
 7859TIP3    H247773   5.641   0.626  12.217  0.9266 -0.6007 -0.1715
 7860TIP3   OH247774   1.214   1.177   9.693 -0.0551 -0.5083  0.9111
 7860TIP3    H147775   1.231   1.107   9.756 -0.1792 -1.1524  0.2474
 7860TIP3    H247776   1.276   1.246   9.716  0.5939 -1.1421  1.1071
 7861TIP3   OH247777   2.900   6.046  10.430 -0.0523  0.3684  0.0370
 7861TIP3    H147778   2.890   6.109  10.359  1.1616  1.4511  0.7914
 7861TIP3    H247779   2.966   5.984  10.398  0.3145  0.7141  0.1178
 7862TIP3   OH247780   0.965   1.878  10.041 -0.0368 -0.2655 -0.4536
 7862TIP3    H147781   1.017   1.947  10.000  0.8450 -0.6497 -0.0078
 7862TIP3    H247782   0.945   1.817   9.971  1.9695 -1.2307 -0.2434
 7863TIP3   OH247783   5.741   0.041  10.852  0.0731 -0.3470  0.5412
 7863TIP3    H147784   5.786   0.081  10.927 -0.9226 -0.4588  1.2137
 7863TIP3    H247785   5.702   0.116  10.806  1.1778 -0.2203 -0.2135
 7864TIP3   OH247786   5.672   3.078  10.655  0.0469 -0.4693 -0.5376
 7864TIP3    H147787   5.760   3.079  10.693  0.3159  1.5892 -1.0884
 7864TIP3    H247788   5.684   3.035  10.570  0.0112 -2.3728  0.3626
 7865TIP3   OH247789   1.737   6.515  10.264 -0.1144 -0.0940 -0.1405
 7865TIP3    H147790   1.725   6.481  10.176 -1.5559  1.7411 -0.7269
 7865TIP3    H247791   1.786   6.447  10.310  3.5393  0.1882 -3.1921
 7866TIP3   OH247792   3.591   0.966  12.233  0.1341  0.4840 -0.1500
 7866TIP3    H147793   3.682   0.970  12.260  0.1114 -0.4880  0.1006
 7866TIP3    H247794   3.544   1.022  12.295  0.7398  2.2466 -1.1936
 7867TIP3   OH247795   4.287   2.869  10.073 -0.3494  0.3481 -0.1042
 7867TIP3    H147796   4.348   2.911  10.134 -0.1352 -0.1039 -0.0020
 7867TIP3    H247797   4.305   2.776  10.083 -0.7500  0.2402 -0.4040
 7868TIP3   OH247798   0.991   2.700  10.072 -0.3748  0.1073 -0.0890
 7868TIP3    H147799   0.978   2.605  10.075  0.9570 -0.0656  1.3130
 7868TIP3    H247800   1.025   2.717   9.984  2.8679 -1.2733  0.7485
 7869TIP3   OH247801   2.520   2.732  11.131 -0.2368 -0.0088 -0.2814
 7869TIP3    H147802   2.487   2.647  11.102 -1.6982  0.4460 -0.0440
 7869TIP3    H247803   2.456   2.762  11.195  1.7820 -0.0183  1.8437
 7870TIP3   OH247804   2.657   4.995  13.199  0.2095 -0.4115  0.5914
 7870TIP3    H147805   2.581   4.954  13.159  0.4110  1.3126 -1.7763
 7870TIP3    H247806   2.637   5.089  13.198  1.1001 -0.1514  2.7910
 7871TIP3   OH247807   0.418   1.939  12.474 -0.0944 -0.5081 -0.3431
 7871TIP3    H147808   0.400   2.032  12.488  1.2219 -0.4782  1.4264
 7871TIP3    H247809   0.367   1.894  12.541 -1.0972 -1.1306 -1.4875
 7872TIP3   OH247810   5.799   3.473   9.394 -0.0068  0.0409  0.6403
 7872TIP3    H147811   5.827   3.427   9.473 -1.8933  2.1058  2.6693
 7872TIP3    H247812   5.840   3.559   9.401 -0.1171  0.2232 -0.7216
 7873TIP3   OH247813   4.470   4.573  11.826  0.1745 -0.2580  0.1758
 7873TIP3    H147814   4.436   4.537  11.744  0.6612 -0.0165 -0.1400
 7873TIP3    H247815   4.430   4.520  11.894 -2.7434  1.4963 -0.0097
 7874TIP3   OH247816   1.619   5.179  12.383 -0.2416 -0.1918 -0.0950
 7874TIP3    H147817   1.541   5.199  12.333 -0.1417 -0.1546 -0.2362
 7874TIP3    H247818   1.635   5.086  12.369  0.0539 -0.0805 -0.5097
 7875TIP3   OH247819   3.352   0.726  10.189  0.3290 -0.5495  0.1014
 7875TIP3    H147820   3.405   0.647  10.205 -1.0479 -1.9715 -1.8508
 7875TIP3    H247821   3.400   0.773  10.120 -0.7200 -1.7218 -1.5042
 7876TIP3   OH247822   3.372   3.036  10.379 -0.9034 -0.1700 -0.2927
 7876TIP3    H147823   3.334   2.950  10.394 -1.5777 -0.4275 -2.8779
 7876TIP3    H247824   3.298   3.097  10.385 -0.8497 -0.0679 -0.6108
 7877TIP3   OH247825   1.471   6.064  11.542  0.2874 -0.3982 -0.1526
 7877TIP3    H147826   1.447   6.154  11.564 -0.6928 -0.4952 -0.7748
 7877TIP3    H247827   1.465   6.017  11.626 -0.5531 -0.1567 -0.0605
 7878TIP3   OH247828   5.940   3.705  12.729 -0.8466  0.4600  0.7425
 7878TIP3    H147829   5.933   3.634  12.665  1.8018  0.3266  0.5229
 7878TIP3    H247830   5.962   3.662  12.811  0.6299  0.9723  0.6412
 7879TIP3   OH247831   0.601   2.894  10.287  0.1690 -0.0934  0.1431
 7879TIP3    H147832   0.650   2.828  10.336 -1.2727 -0.2344  1.4758
 7879TIP3    H247833   0.631   2.978  10.323  0.0390 -0.1469  0.3800
 7880TIP3   OH247834   1.262   2.287  10.124  0.6720  0.5200 -0.2937
 7880TIP3    H147835   1.308   2.207  10.148 -0.5139  0.0728  0.5312
 7880TIP3    H247836   1.299   2.311  10.039  1.0956 -0.8573 -0.5181
 7881TIP3   OH247837   0.662   0.698  12.635 -0.1909  0.1703 -0.4323
 7881TIP3    H147838   0.757   0.703  12.623 -0.0722  1.1538  0.8084
 7881TIP3    H247839   0.629   0.671  12.549  1.2696 -1.1626 -0.6331
 7882TIP3   OH247840   0.720   4.883   9.792 -0.5549 -0.4650 -0.0414
 7882TIP3    H147841   0.774   4.943   9.741  1.1305 -1.3668  0.5922
 7882TIP3    H247842   0.645   4.935   9.819  0.4161  1.1051 -0.2358
 7883TIP3   OH247843   0.506   1.757  12.293  0.5150 -0.8570  0.1723
 7883TIP3    H147844   0.481   1.833  12.346  1.9114 -1.0312  1.1505
 7883TIP3    H247845   0.501   1.683  12.353  0.2076 -1.3672 -0.4800
 7884TIP3   OH247846   0.916   1.897  10.504 -0.2247  0.4072 -0.2717
 7884TIP3    H147847   0.836   1.844  10.493 -0.4844  0.4785  1.1350
 7884TIP3    H247848   0.983   1.848  10.457 -0.2606 -1.6714  1.6870
 7885TIP3   OH247849   5.411   4.728  11.072  0.4731  0.2657 -0.1870
 7885TIP3    H147850   5.420   4.633  11.057  0.7469  0.4836 -1.4799
 7885TIP3    H247851   5.320   4.746  11.052  0.4981  0.3279 -0.2442
 7886TIP3   OH247852   1.356   4.003   9.690  0.5003 -0.2454 -0.2801
 7886TIP3    H147853   1.301   4.011   9.768  0.0746  0.2005 -0.6142
 7886TIP3    H247854   1.356   3.910   9.670  1.9612 -0.6085  1.1838
 7887TIP3   OH247855   1.153   3.710  12.244  0.6886  0.0039 -0.2730
 7887TIP3    H147856   1.175   3.637  12.186 -0.5240 -0.6925  0.0941
 7887TIP3    H247857   1.139   3.784  12.185 -0.2087 -0.6089 -0.8559
 7888TIP3   OH247858   0.237   0.819  11.120  0.2937  0.3642 -0.1283
 7888TIP3    H147859   0.168   0.883  11.099  2.3484  3.1216  0.8555
 7888TIP3    H247860   0.318   0.863  11.095  1.9239 -1.3025  1.8692
 7889TIP3   OH247861   3.102   2.088  11.416  0.0470 -0.5818  0.0127
 7889TIP3    H147862   3.027   2.113  11.469 -0.1699  0.5057 -0.7879
 7889TIP3    H247863   3.174   2.082  11.479 -0.5881 -1.1476  0.7091
 7890TIP3   OH247864   1.496   0.272  13.369  0.4774  0.0657  0.6151
 7890TIP3    H147865   1.494   0.189  13.322 -1.0556  0.2529  0.2954
 7890TIP3    H247866   1.534   0.250  13.454 -0.0901 -1.0112  0.6122
 7891TIP3   OH247867   6.422   5.843  11.346 -0.0883  0.1383 -0.0158
 7891TIP3    H147868   6.407   5.828  11.440  0.6910 -0.7618 -0.0162
 7891TIP3    H247869   6.460   5.761  11.315 -1.8837 -0.1862 -1.4941
 7892TIP3   OH247870   4.083   5.966  11.777 -0.2511 -0.1882  0.2616
 7892TIP3    H147871   4.016   6.004  11.834 -0.7900 -2.3239  1.1487
 7892TIP3    H247872   4.045   5.970  11.689 -2.2920 -2.6566  0.9066
 7893TIP3   OH247873   0.196   1.516  12.736  0.0195  0.2505 -0.2762
 7893TIP3    H147874   0.161   1.551  12.818 -0.4655 -2.0460  0.5787
 7893TIP3    H247875   0.274   1.468  12.762 -0.6241 -1.2404 -0.9821
 7894TIP3   OH247876   5.248   4.628  11.902  0.0441  0.0003  0.0404
 7894TIP3    H147877   5.190   4.687  11.854  0.3572  0.4125  0.1582
 7894TIP3    H247878   5.191   4.580  11.960 -0.1756  0.4634  0.2144
 7895TIP3   OH247879   2.635   5.106   9.918 -0.1134  0.0397 -0.3609
 7895TIP3    H147880   2.565   5.041   9.906 -1.0445  0.8448  0.4968
 7895TIP3    H247881   2.637   5.121  10.013  0.2012  1.1359 -0.5260
 7896TIP3   OH247882   4.124   0.625  10.739 -0.1680 -0.3623  0.4414
 7896TIP3    H147883   4.183   0.616  10.664  0.2286 -1.5185  0.8801
 7896TIP3    H247884   4.109   0.719  10.746 -0.9451 -0.2681 -1.6587
 7897TIP3   OH247885   4.563   3.450   9.684 -0.2942  0.8050  0.0886
 7897TIP3    H147886   4.544   3.357   9.668 -0.3758  0.9201 -0.4842
 7897TIP3    H247887   4.560   3.458   9.779 -0.9275  0.3566  0.1154
 7898TIP3   OH247888   3.625   3.123  11.860  0.2354  0.5098  0.1309
 7898TIP3    H147889   3.661   3.034  11.866 -0.0598  0.3994  0.3096
 7898TIP3    H247890   3.682   3.168  11.799 -0.2803 -0.1383 -0.8517
 7899TIP3   OH247891   0.404   3.879  10.713  0.2842 -0.3312  0.4469
 7899TIP3    H147892   0.462   3.925  10.653  1.0371 -0.0660  1.3474
 7899TIP3    H247893   0.425   3.916  10.799 -0.9948 -0.4657  0.8322
 7900TIP3   OH247894   1.686   3.573  10.832 -0.0776 -0.1874  0.0034
 7900TIP3    H147895   1.724   3.596  10.917 -0.5795 -1.1075  0.4921
 7900TIP3    H247896   1.591   3.581  10.845 -0.1439  0.0210 -0.5799
 7901TIP3   OH247897   3.518   3.835  10.189 -0.1436 -0.1960  0.0996
 7901TIP3    H147898   3.500   3.922  10.222  0.2115 -0.6340  1.4854
 7901TIP3    H247899   3.469   3.776  10.246 -0.0651 -0.9419 -0.5715
 7902TIP3   OH247900   3.123   0.446  11.467 -0.2565 -0.6926  0.1594
 7902TIP3    H147901   3.067   0.376  11.502 -0.9984 -0.0956  0.2040
 7902TIP3    H247902   3.142   0.501  11.543  0.6550 -1.0609  0.2009
 7903TIP3   OH247903   0.752   2.206   9.871 -0.0777  0.1232  0.2287
 7903TIP3    H147904   0.709   2.171   9.793  1.5074 -1.4770 -0.0037
 7903TIP3    H247905   0.845   2.206   9.849  0.3469  0.2247  1.8998
 7904TIP3   OH247906   5.034   2.550  10.909  0.3952  0.5068 -0.3380
 7904TIP3    H147907   5.016   2.605  10.833  1.0310  1.5776  0.2658
 7904TIP3    H247908   4.958   2.563  10.966  0.4264  0.5623 -0.3086
 7905TIP3   OH247909   1.063   5.216  10.852 -0.0391  0.3423  0.3224
 7905TIP3    H147910   1.135   5.201  10.791  0.3826  0.1226  0.8649
 7905TIP3    H247911   1.085   5.297  10.897 -0.5286  0.6961 -0.0663
 7906TIP3   OH247912   1.427   4.844  10.423 -0.6486 -0.4658 -0.3957
 7906TIP3    H147913   1.349   4.840  10.367 -2.1508 -1.4057  1.6091
 7906TIP3    H247914   1.475   4.763  10.404 -0.1316  0.1086 -1.6258
 7907TIP3   OH247915   3.094   0.935  21.023  0.2357  0.3309 -0.0653
 7907TIP3    H147916   3.008   0.952  21.061  0.1544  3.4713 -1.3194
 7907TIP3    H247917   3.076   0.892  20.940  0.0182 -0.4954  0.3952
 7908TIP3   OH247918   5.803   5.772  12.239  0.5388  0.5082 -0.3024
 7908TIP3    H147919   5.728   5.820  12.204  0.2798 -0.4903 -1.1519
 7908TIP3    H247920   5.879   5.820  12.206  0.2855  0.8140 -0.4509
 7909TIP3   OH247921   0.026   2.421  10.002  1.3279 -0.1333  0.4538
 7909TIP3    H147922  -0.046   2.428  10.065  0.4226 -0.9062 -0.4670
 7909TIP3    H247923   0.105   2.417  10.056  0.5702 -0.7912  1.5476
 7910TIP3   OH247924   0.238   3.807   9.732  0.2044  0.2082 -0.0413
 7910TIP3    H147925   0.310   3.780   9.674 -1.1054 -2.8900 -0.4081
 7910TIP3    H247926   0.268   3.782   9.820 -1.4251 -4.0784 -0.4735
 7911TIP3   OH247927   0.458   0.256   9.896  0.1646  0.5904  0.5090
 7911TIP3    H147928   0.399   0.305   9.954 -0.5030  1.6487 -1.0132
 7911TIP3    H247929   0.517   0.322   9.861  1.8847 -0.3670  1.4981
 7912TIP3   OH247930   5.626   1.524   9.671  0.3073  0.4575  0.2231
 7912TIP3    H147931   5.712   1.565   9.676  0.2350  0.8164 -1.1033
 7912TIP3    H247932   5.617   1.499   9.579 -1.7349  2.0950 -0.0988
 7913TIP3   OH247933   0.631   3.699  10.473  0.4342  0.0327 -0.0900
 7913TIP3    H147934   0.663   3.768  10.531  0.6788 -0.3148  0.1952
 7913TIP3    H247935   0.567   3.652  10.526  0.3285 -0.0120 -0.2565
 7914TIP3   OH247936   3.446   1.913  10.623 -0.0571 -0.5301 -0.3365
 7914TIP3    H147937   3.424   1.976  10.555 -0.2736 -1.5368 -1.2139
 7914TIP3    H247938   3.394   1.940  10.699 -0.6873 -0.0887 -0.9246
 7915TIP3   OH247939   4.734   5.957  12.145  0.0838 -0.0805 -0.2919
 7915TIP3    H147940   4.728   6.047  12.178  0.7469 -1.0329  2.6816
 7915TIP3    H247941   4.663   5.910  12.188  1.0497 -1.4299 -0.1162
 7916TIP3   OH247942   1.294   4.359  12.092  0.1221  0.2810 -0.2838
 7916TIP3    H147943   1.387   4.343  12.103 -0.4227 -1.5769  2.6458
 7916TIP3    H247944   1.289   4.441  12.043  3.2584  0.7885  0.0773
 7917TIP3   OH247945   0.051   5.466  12.143 -0.4025 -0.1198 -0.2818
 7917TIP3    H147946   0.048   5.539  12.082 -0.0647 -1.0115 -1.3887
 7917TIP3    H247947   0.126   5.413  12.116  0.3734 -0.0320  1.5218
 7918TIP3   OH247948   3.797   2.836  11.526  0.0731 -0.2022  0.3122
 7918TIP3    H147949   3.726   2.897  11.509  1.1033  0.3338 -2.6973
 7918TIP3    H247950   3.860   2.887  11.577 -0.7459 -0.0177  1.1693
 7919TIP3   OH247951   6.498   6.344   9.882  0.1673 -0.0995 -0.0212
 7919TIP3    H147952   6.528   6.341   9.973 -1.7959 -1.0075  0.6470
 7919TIP3    H247953   6.579   6.350   9.831  1.4556 -1.6098  1.6954
 7920TIP3   OH247954   5.833   3.327  11.086  0.3820  0.0546 -0.4818
 7920TIP3    H147955   5.848   3.393  11.154 -0.6874  0.4517 -0.6133
 7920TIP3    H247956   5.842   3.243  11.131 -0.4730  0.3116  0.2034
 7921TIP3   OH247957   6.587   0.483  11.514 -0.1573  0.2864  0.4177
 7921TIP3    H147958   6.547   0.516  11.434  0.7102  1.1234  0.3169
 7921TIP3    H247959   6.617   0.395  11.491  1.2868  1.0052 -0.6171
 7922TIP3   OH247960   0.925   4.696  12.712  0.8658  0.1572  0.2390
 7922TIP3    H147961   0.944   4.602  12.710  0.9980  0.1784 -2.0803
 7922TIP3    H247962   0.979   4.730  12.783  4.6836 -0.8056 -1.9182
 7923TIP3   OH247963   2.876   1.420  12.818  0.1697  0.0686  0.5114
 7923TIP3    H147964   2.812   1.491  12.827  0.6400  0.6245 -0.3717
 7923TIP3    H247965   2.953   1.462  12.779  1.2650 -0.4806  1.9724
 7924TIP3   OH247966   4.978   0.749  12.385  0.5574 -0.2018 -0.2246
 7924TIP3    H147967   4.979   0.703  12.469  1.1188  0.2052 -0.0024
 7924TIP3    H247968   4.947   0.837  12.406 -0.8683 -0.5549 -0.7036
 7925TIP3   OH247969   5.892   5.726  11.362 -0.8182 -0.2927 -0.1091
 7925TIP3    H147970   5.930   5.663  11.424 -0.6040 -0.3329 -0.2813
 7925TIP3    H247971   5.959   5.736  11.294 -0.8754  0.0810 -0.1095
 7926TIP3   OH247972   0.660   5.090  10.564 -0.1614  0.1604  0.3579
 7926TIP3    H147973   0.617   5.055  10.486 -0.2599  0.8180  0.1056
 7926TIP3    H247974   0.635   5.030  10.634 -0.5955 -0.0831  0.0013
 7927TIP3   OH247975   2.128   0.672  13.123 -0.4914  0.0806 -0.2772
 7927TIP3    H147976   2.091   0.617  13.054 -0.6897  0.9536 -0.8868
 7927TIP3    H247977   2.089   0.758  13.109  0.4116  0.5825  0.1597
 7928TIP3   OH247978   0.673   3.237  11.837 -0.1022 -0.1852 -0.5258
 7928TIP3    H147979   0.645   3.147  11.854  0.7688 -0.3533  0.0577
 7928TIP3    H247980   0.709   3.268  11.920 -1.6938  1.2142 -0.2945
 7929TIP3   OH247981   3.773   1.938  12.322  0.0219 -0.3803  0.4980
 7929TIP3    H147982   3.866   1.956  12.336  0.0678 -0.5160  0.3700
 7929TIP3    H247983   3.747   1.998  12.252 -0.1270  0.0633  0.9318
 7930TIP3   OH247984   2.664   2.314  12.105 -0.1128  0.2577 -0.3389
 7930TIP3    H147985   2.679   2.271  12.020  1.2592 -1.4652  0.7253
 7930TIP3    H247986   2.629   2.245  12.161 -0.4580  1.2281  0.6868
 7931TIP3   OH247987   5.569   0.411   9.483 -0.1353  0.1604  0.2737
 7931TIP3    H147988   5.615   0.355   9.421  0.1191 -0.6926  1.2136
 7931TIP3    H247989   5.638   0.453   9.533 -0.3529  0.0191  0.6957
 7932TIP3   OH247990   4.763   0.259  10.930 -0.7439 -0.2164 -0.2190
 7932TIP3    H147991   4.684   0.206  10.939 -1.6295  0.8673 -1.1395
 7932TIP3    H247992   4.741   0.342  10.974 -0.2952  0.2585 -0.8678
 7933TIP3   OH247993   2.708   6.002  11.728  0.3994 -0.0215 -0.0814
 7933TIP3    H147994   2.637   5.979  11.788 -1.1594  0.8976 -1.4761
 7933TIP3    H247995   2.749   5.919  11.706 -1.0438 -0.7382 -0.1865
 7934TIP3   OH247996   0.596   4.682  11.266  0.4413 -0.2732  0.5624
 7934TIP3    H147997   0.620   4.696  11.175 -0.6071  0.0703  0.3171
 7934TIP3    H247998   0.536   4.755  11.286  0.4632 -0.4875  1.4381
 7935TIP3   OH247999   6.176   2.424   9.782  0.0688 -0.3191  0.1983
 7935TIP3    H148000   6.269   2.445   9.771 -0.0426  0.7429  1.0990
 7935TIP3    H248001   6.158   2.445   9.874 -1.1976  0.0635 -0.1185
 7936TIP3   OH248002   6.468   3.696  12.260  0.6202 -0.4598 -0.4719
 7936TIP3    H148003   6.377   3.669  12.273  0.3621  0.5217 -0.1729
 7936TIP3    H248004   6.513   3.668  12.339 -0.3144  2.7573  1.3821
 7937TIP3   OH248005   1.222   1.007  10.702 -0.6081 -0.8513  0.4404
 7937TIP3    H148006   1.256   0.943  10.764 -1.7852 -1.6416  0.2897
 7937TIP3    H248007   1.178   0.955  10.635  0.1689  0.0112 -0.7924
 7938TIP3   OH248008   5.781   1.692   9.976 -0.0148  0.5059  0.5719
 7938TIP3    H148009   5.785   1.744  10.056 -1.7952 -0.4538  1.3532
 7938TIP3    H248010   5.831   1.613   9.996 -1.1000 -0.0812  1.0561
 7939TIP3   OH248011   4.574   0.508  12.598  0.1473 -0.2849 -0.6355
 7939TIP3    H148012   4.516   0.490  12.672  0.0942  0.2620 -0.5434
 7939TIP3    H248013   4.647   0.447  12.610  1.6380  1.7084  1.5354
 7940TIP3   OH248014   5.380   5.060  10.684  0.7731 -0.1629  0.0211
 7940TIP3    H148015   5.369   5.122  10.612 -0.6438 -2.0644 -1.5287
 7940TIP3    H248016   5.368   4.974  10.644 -0.3709 -1.3100  2.5608
 7941TIP3   OH248017   3.709   0.316  10.358 -0.1818  0.8430 -0.7916
 7941TIP3    H148018   3.748   0.334  10.273  1.1201 -1.5802 -0.7904
 7941TIP3    H248019   3.615   0.334  10.346 -0.0735  0.2682 -2.8302
 7942TIP3   OH248020   5.824   6.582   9.646 -0.2368 -0.4512  0.8869
 7942TIP3    H148021   5.902   6.527   9.647 -0.1856 -0.3750  1.0357
 7942TIP3    H248022   5.855   6.669   9.670 -0.2568 -0.2736  0.2907
 7943TIP3   OH248023   2.367   3.166  12.641 -0.0874 -0.1173 -0.5044
 7943TIP3    H148024   2.342   3.258  12.640 -1.4623 -0.4576 -0.3605
 7943TIP3    H248025   2.284   3.119  12.630  0.8199 -1.3119 -2.7623
 7944TIP3   OH248026   6.553   1.763  10.533  0.3931  0.2361 -0.7141
 7944TIP3    H148027   6.468   1.732  10.502  0.5651  0.6822 -1.6639
 7944TIP3    H248028   6.610   1.761  10.456  1.1396  0.3181 -0.1825
 7945TIP3   OH248029   0.474   6.451   9.690  0.0948  0.5550  0.2599
 7945TIP3    H148030   0.499   6.510   9.761 -0.4666 -0.1627  1.0739
 7945TIP3    H248031   0.544   6.460   9.626  1.9083 -0.5618  1.9652
 7946TIP3   OH248032   1.792   2.702  10.107  0.0867 -0.4956  0.2253
 7946TIP3    H148033   1.874   2.727  10.149 -1.2439 -2.0559  4.1712
 7946TIP3    H248034   1.753   2.785  10.080  1.2377  0.6244  1.8077
 7947TIP3   OH248035   3.712   1.355   9.360  0.1936  0.4473 -0.8368
 7947TIP3    H148036   3.781   1.419   9.342  2.5886 -1.5577  0.4918
 7947TIP3    H248037   3.753   1.271   9.342 -1.8251 -0.8681  0.3527
 7948TIP3   OH248038   5.234   2.697  11.079  0.2673 -0.4436  0.2991
 7948TIP3    H148039   5.169   2.736  11.020 -0.9361 -1.3044  1.0094
 7948TIP3    H248040   5.300   2.660  11.021  0.0471  0.2887 -0.4459
 7949TIP3   OH248041   4.574   4.079  11.116 -0.1790  0.0434 -0.4915
 7949TIP3    H148042   4.578   4.009  11.051 -0.0702 -0.8838  0.4970
 7949TIP3    H248043   4.486   4.073  11.153 -0.8068  1.5779 -1.6144
 7950TIP3   OH248044   1.109   2.686  10.444 -0.2114  0.2453  0.0820
 7950TIP3    H148045   1.129   2.601  10.404 -1.8290 -0.4485  0.6429
 7950TIP3    H248046   1.086   2.665  10.534 -0.8128  1.2622  0.1800
 7951TIP3   OH248047   5.915   4.001  11.693 -0.0457 -0.1381  0.1122
 7951TIP3    H148048   5.950   4.047  11.769 -0.1643  2.3954 -1.2454
 7951TIP3    H248049   5.975   4.024  11.622 -1.0282 -0.8063 -0.9668
 7952TIP3   OH248050   5.111   5.281  11.298 -0.1282 -0.2210  0.0875
 7952TIP3    H148051   5.024   5.321  11.309  0.6615  1.5582  0.2007
 7952TIP3    H248052   5.128   5.236  11.381  0.5223  2.4853  1.5362
 7953TIP3   OH248053   4.582   5.900  11.309 -0.2623 -0.1376  0.3256
 7953TIP3    H148054   4.580   5.906  11.214  1.1258  0.8037  0.3236
 7953TIP3    H248055   4.663   5.854  11.329 -0.8034 -0.8022  1.0493
 7954TIP3   OH248056   1.987   1.888  12.015  0.0812 -0.1707  0.1237
 7954TIP3    H148057   2.035   1.969  12.035 -0.5626  0.3347 -0.3729
 7954TIP3    H248058   1.916   1.886  12.079 -0.3426  0.0296 -0.3463
 7955TIP3   OH248059   6.133   0.048  12.139  0.6677 -0.4221 -0.0536
 7955TIP3    H148060   6.090   0.072  12.058  0.1782 -0.6821  0.1234
 7955TIP3    H248061   6.224   0.077  12.129  0.1761  1.2429  0.0484
 7956TIP3   OH248062   1.321   0.727  10.572  0.2224 -0.1434 -0.0539
 7956TIP3    H148063   1.251   0.786  10.598  0.2616 -0.3245  0.4812
 7956TIP3    H248064   1.401   0.774  10.595  0.2882 -1.5726  3.3078
 7957TIP3   OH248065   2.547   2.408  11.501 -0.4236  0.2374  0.2158
 7957TIP3    H148066   2.587   2.485  11.540  1.0738  0.3145 -1.3374
 7957TIP3    H248067   2.456   2.433  11.485  0.1193  1.8266 -0.5545
 7958TIP3   OH248068   2.247   1.500  11.476 -0.7041 -0.3687  0.5731
 7958TIP3    H148069   2.281   1.588  11.494 -0.0770 -0.2012 -1.1777
 7958TIP3    H248070   2.312   1.461  11.418 -1.4063 -1.6835  0.6321
 7959TIP3   OH248071   6.476   1.379   9.596  0.9187  0.7755  0.4627
 7959TIP3    H148072   6.506   1.288   9.600  0.1666  0.4312 -1.0375
 7959TIP3    H248073   6.490   1.405   9.506 -3.1027  0.6037 -0.4182
 7960TIP3   OH248074   4.811   4.529  11.053  0.4067  0.2759 -0.0130
 7960TIP3    H148075   4.811   4.437  11.079 -2.2445  0.8503  2.6670
 7960TIP3    H248076   4.771   4.529  10.966 -0.6095 -1.0532  0.4185
 7961TIP3   OH248077   0.585   5.879  10.818 -0.5164  0.1513 -0.4420
 7961TIP3    H148078   0.536   5.958  10.796 -0.3069  0.4157  0.0276
 7961TIP3    H248079   0.520   5.819  10.856 -0.6941  0.0551 -0.8929
 7962TIP3   OH248080   5.086   4.740  12.602 -0.2910  0.3242  0.3804
 7962TIP3    H148081   5.075   4.796  12.678  0.6942  0.7825  0.2036
 7962TIP3    H248082   5.149   4.673  12.629 -0.0959  0.3650  0.0415
 7963TIP3   OH248083   3.616   5.319  12.090 -0.1608 -0.1813  0.2421
 7963TIP3    H148084   3.526   5.333  12.061  0.2309 -0.1855 -1.0767
 7963TIP3    H248085   3.663   5.297  12.009  1.2850  1.1340  0.6764
 7964TIP3   OH248086   4.417   2.543  11.887 -0.2154 -0.8926  0.2315
 7964TIP3    H148087   4.455   2.483  11.822 -0.5208  0.7988 -1.6289
 7964TIP3    H248088   4.471   2.531  11.965  2.2903 -0.7526 -1.3536
 7965TIP3   OH248089   0.060   4.461   9.927 -0.1580 -0.4864 -0.1116
 7965TIP3    H148090   0.131   4.476   9.990  0.0342 -0.6454 -0.2894
 7965TIP3    H248091   0.044   4.547   9.888 -1.7607  0.1105  1.6917
 7966TIP3   OH248092   2.464   0.860  13.395  0.5331 -0.7032  0.3159
 7966TIP3    H148093   2.382   0.816  13.418 -0.6087  1.1484  0.0481
 7966TIP3    H248094   2.513   0.795  13.346 -0.1919 -2.2940  1.5917
 7967TIP3   OH248095   6.231   3.131  11.128 -0.0853 -0.6991  0.8306
 7967TIP3    H148096   6.245   3.128  11.034 -0.8677 -0.5262  0.7038
 7967TIP3    H248097   6.311   3.094  11.165  0.5811  0.0098  0.1346
 7968TIP3   OH248098   1.845   4.554   9.862 -0.7178  0.2854  0.4162
 7968TIP3    H148099   1.921   4.599   9.898 -0.8752  1.2194 -0.3685
 7968TIP3    H248100   1.825   4.485   9.925 -0.1744  1.0260  1.4200
 7969TIP3   OH248101   5.477   3.949  11.240 -0.2063  0.2737 -0.0616
 7969TIP3    H148102   5.481   3.994  11.324 -0.0888 -0.3227  0.2523
 7969TIP3    H248103   5.434   3.866  11.258  1.9754 -0.9492 -0.0880
 7970TIP3   OH248104   3.671   2.811  11.923 -0.1318  0.0232 -0.6816
 7970TIP3    H148105   3.767   2.803  11.918  0.1290  2.2949 -0.1250
 7970TIP3    H248106   3.653   2.825  12.015 -0.8686  1.0391 -0.9715
 7971TIP3   OH248107   2.358   6.408  11.181 -0.0067 -0.5585 -0.2241
 7971TIP3    H148108   2.383   6.392  11.090 -1.5844 -1.4417 -0.5417
 7971TIP3    H248109   2.280   6.464  11.175  0.4244  0.1578  0.6280
 7972TIP3   OH248110   6.429   2.651   9.950  0.1836 -0.4933 -0.5771
 7972TIP3    H148111   6.437   2.596  10.028  0.5867 -0.3924 -0.5468
 7972TIP3    H248112   6.353   2.706   9.968 -0.3842 -1.2126 -0.7183
 7973TIP3   OH248113   1.031   3.794  12.484  1.0616  0.9881  0.2994
 7973TIP3    H148114   1.006   3.710  12.522 -1.0277  1.6010  0.3567
 7973TIP3    H248115   1.085   3.770  12.409 -1.0136 -0.5411 -0.8093
 7974TIP3   OH248116   4.900   4.471  11.794  0.4808  0.3822  0.7479
 7974TIP3    H148117   4.871   4.516  11.873 -0.7269  0.0951  0.4884
 7974TIP3    H248118   4.820   4.457  11.743  1.2008  0.3519 -0.4178
 7975TIP3   OH248119   3.739   5.480  10.413  0.0691  0.5650 -0.4474
 7975TIP3    H148120   3.817   5.531  10.433  0.7284 -0.7198  0.3846
 7975TIP3    H248121   3.751   5.398  10.460 -1.0811 -0.2688 -1.5418
 7976TIP3   OH248122   2.416   2.852  12.461 -0.3082  0.5041  0.3683
 7976TIP3    H148123   2.447   2.825  12.548  0.0103 -0.6358 -0.0816
 7976TIP3    H248124   2.322   2.865  12.472 -0.5454 -1.1900  0.5390
 7977TIP3   OH248125   5.313   4.749  10.083  0.0769  0.0394 -0.2200
 7977TIP3    H148126   5.403   4.740  10.114  0.1910  2.2605  0.2623
 7977TIP3    H248127   5.260   4.744  10.163 -0.4373 -2.6756 -0.6264
 7978TIP3   OH248128   2.519   1.119  10.533  0.4104  0.0562  0.6336
 7978TIP3    H148129   2.425   1.120  10.519  0.1452  0.4488  2.2314
 7978TIP3    H248130   2.547   1.210  10.521  0.6463 -0.1068 -0.1159
 7979TIP3   OH248131   5.817   2.697  10.509 -0.2035 -0.6440  0.2448
 7979TIP3    H148132   5.815   2.694  10.605  0.2402 -0.3914  0.2659
 7979TIP3    H248133   5.819   2.791  10.488  0.7027 -0.7059  0.0179
 7980TIP3   OH248134   1.069   0.881  10.504  0.2985 -0.2663 -0.1885
 7980TIP3    H148135   1.024   0.796  10.505 -2.5413  1.0979 -1.5494
 7980TIP3    H248136   1.098   0.892  10.414 -1.3524  1.1110 -0.5961
 7981TIP3   OH248137   5.067   2.191  12.368 -0.1978 -0.0004 -0.4631
 7981TIP3    H148138   5.127   2.248  12.319  0.8449 -2.1789 -1.8657
 7981TIP3    H248139   5.020   2.251  12.426 -0.6738  2.6097 -3.2770
 7982TIP3   OH248140   4.300   2.750  10.731 -0.1975  0.2095 -0.1662
 7982TIP3    H148141   4.368   2.788  10.787 -0.7434 -1.8711  2.1220
 7982TIP3    H248142   4.348   2.703  10.663  1.0075 -3.2920  2.7660
 7983TIP3   OH248143   2.694   4.618   9.992 -0.0046 -0.5830  0.1677
 7983TIP3    H148144   2.659   4.538  10.029  1.8289 -0.6451  1.9664
 7983TIP3    H248145   2.713   4.596   9.901 -2.2526 -1.2342 -0.1980
 7984TIP3   OH248146   1.632   3.471   9.759 -0.3552 -0.1492 -0.2592
 7984TIP3    H148147   1.564   3.406   9.748 -0.9373  0.5490 -0.8907
 7984TIP3    H248148   1.607   3.543   9.701  0.8006  0.2120 -0.3430
 7985TIP3   OH248149   3.480   1.662   9.948 -0.6416 -0.2784  0.1474
 7985TIP3    H148150   3.573   1.639   9.955 -1.0900 -1.8654  1.6935
 7985TIP3    H248151   3.477   1.755   9.971  0.4271 -0.5356  1.5134
 7986TIP3   OH248152   2.558   5.127  11.552 -0.3243 -0.0266  0.0774
 7986TIP3    H148153   2.536   5.037  11.575 -0.4405 -0.5095 -1.8040
 7986TIP3    H248154   2.475   5.167  11.525 -0.2610  0.6372  0.8162
 7987TIP3   OH248155   0.996   6.002  11.259 -0.3585  0.4261 -0.0252
 7987TIP3    H148156   0.909   6.034  11.282 -1.1837 -1.0872 -0.8757
 7987TIP3    H248157   1.045   6.005  11.342 -0.6897  2.7579  0.1536
 7988TIP3   OH248158   4.119   0.545  13.032 -0.2924  0.3026 -0.6773
 7988TIP3    H148159   4.143   0.594  12.953 -0.1412 -1.0764 -1.5212
 7988TIP3    H248160   4.182   0.474  13.036 -0.2673  0.3759  0.7423
 7989TIP3   OH248161   3.707   2.700  11.103  0.9731 -0.6604  0.3048
 7989TIP3    H148162   3.793   2.731  11.130  0.8642 -0.7034  0.7063
 7989TIP3    H248163   3.724   2.627  11.044  1.2436  0.2920 -0.8379
 7990TIP3   OH248164   1.402   4.157  11.883 -0.3407 -0.4522 -0.1130
 7990TIP3    H148165   1.329   4.173  11.942  0.9015  3.0678  0.6703
 7990TIP3    H248166   1.379   4.205  11.803  1.7121  2.1668  0.7517
 7991TIP3   OH248167   2.350   2.755  11.353  1.0192  1.0188  0.0402
 7991TIP3    H148168   2.289   2.829  11.349 -0.2754 -0.0451 -1.8164
 7991TIP3    H248169   2.307   2.693  11.412  0.3182  0.3418 -1.1324
 7992TIP3   OH248170   3.842   6.307  12.468  0.2610 -0.3517 -0.5023
 7992TIP3    H148171   3.901   6.270  12.535  1.6624  1.4407 -0.6698
 7992TIP3    H248172   3.798   6.379  12.512 -1.3962 -1.2886 -0.5732
 7993TIP3   OH248173   6.014   0.173   9.928 -0.6458  0.2551  0.6312
 7993TIP3    H148174   5.947   0.240   9.913 -1.4810 -0.5937  0.5069
 7993TIP3    H248175   5.967   0.100   9.968  0.0844 -0.6065 -0.0471
 7994TIP3   OH248176   2.081   4.158   9.659 -0.1794 -0.0515  0.4334
 7994TIP3    H148177   2.074   4.126   9.749 -1.7535 -1.2092 -0.0575
 7994TIP3    H248178   1.991   4.172   9.631  0.3269  1.2696 -0.6531
 7995TIP3   OH248179   2.025   4.030  10.428 -0.5219  0.0670  0.0923
 7995TIP3    H148180   1.972   3.960  10.466  0.1261 -0.1205  0.6821
 7995TIP3    H248181   2.102   4.035  10.486  1.6529 -1.7503 -2.3758
 7996TIP3   OH248182   5.174   0.951  11.899 -0.4101 -0.4160 -0.1124
 7996TIP3    H148183   5.133   0.900  11.970  2.4095 -0.8826  1.3312
 7996TIP3    H248184   5.176   1.040  11.933 -1.1078 -0.2087 -0.6091
 7997TIP3   OH248185   4.574   2.937  11.548  0.1745 -0.2787 -0.9237
 7997TIP3    H148186   4.632   3.007  11.517 -0.3834  0.1069 -1.1234
 7997TIP3    H248187   4.590   2.864  11.489  0.7143 -0.2952 -0.7579
 7998TIP3   OH248188   1.208   0.662  12.733 -0.2536  0.0096  0.0600
 7998TIP3    H148189   1.302   0.659  12.716  0.0213  2.7267  0.6898
 7998TIP3    H248190   1.179   0.744  12.693 -2.2156 -0.3929  0.5713
 7999TIP3   OH248191   5.858   6.556  11.980 -0.1218 -0.3327 -0.3237
 7999TIP3    H148192   5.850   6.556  12.076  2.8776  0.6240  0.0566
 7999TIP3    H248193   5.899   6.640  11.960 -0.7793 -0.4809 -2.4899
 8000TIP3   OH248194   1.131   6.467  13.007  1.2284  0.4241  0.2228
 8000TIP3    H148195   1.160   6.492  13.094  0.9075 -0.7022  0.6624
 8000TIP3    H248196   1.127   6.550  12.959  0.2432  1.2210  1.6133
 8001TIP3   OH248197   0.128   6.490  12.027 -0.2183  0.1334 -0.3618
 8001TIP3    H148198   0.200   6.533  11.980 -0.1253  1.2328  0.7254
 8001TIP3    H248199   0.050   6.511  11.975  0.0940 -0.1252 -0.9439
 8002TIP3   OH248200   6.101   3.293  11.971 -0.3177 -0.2476 -0.4637
 8002TIP3    H148201   6.120   3.217  12.026  1.0026  0.2220 -0.2493
 8002TIP3    H248202   6.077   3.255  11.886  0.0507 -0.9169 -0.2748
 8003TIP3   OH248203   5.779   5.490  10.687 -0.0998  0.0690 -0.0899
 8003TIP3    H148204   5.747   5.560  10.629  0.5647 -0.8935 -1.6582
 8003TIP3    H248205   5.711   5.423  10.684  0.0875 -0.1258 -0.0113
 8004TIP3   OH248206   4.140   1.079  11.797 -0.2138 -0.1657 -0.1677
 8004TIP3    H148207   4.158   1.034  11.715  0.6588 -0.1387 -0.0041
 8004TIP3    H248208   4.119   1.008  11.859 -1.8715 -0.1238 -0.6297
 8005TIP3   OH248209   4.379   0.374  11.913  0.2229 -0.1899  0.3729
 8005TIP3    H148210   4.471   0.361  11.939 -0.2603  0.5816  2.6909
 8005TIP3    H248211   4.378   0.459  11.870  0.6287 -0.2932  0.1526
 8006TIP3   OH248212   3.461   1.338   9.497 -0.1345  0.1680 -0.0269
 8006TIP3    H148213   3.549   1.343   9.459  0.1645  0.9455  0.7476
 8006TIP3    H248214   3.417   1.269   9.447 -0.0368  1.6955 -2.3712
 8007TIP3   OH248215   6.398   4.006  10.317  0.1132  0.2182  0.0942
 8007TIP3    H148216   6.377   4.070  10.249 -2.3366 -1.3289 -0.7541
 8007TIP3    H248217   6.448   4.055  10.382  2.3066  1.8482 -2.6193
 8008TIP3   OH248218   0.480   6.106  10.735 -0.5283 -0.3959 -0.5341
 8008TIP3    H148219   0.461   6.167  10.806  1.6655 -2.0677  1.6169
 8008TIP3    H248220   0.541   6.155  10.678 -1.5781  0.6169 -0.8364
 8009TIP3   OH248221   3.249   1.983  12.088 -0.2031  0.1487 -0.6365
 8009TIP3    H148222   3.344   1.982  12.099 -0.2263 -0.9456 -0.4351
 8009TIP3    H248223   3.235   1.944  12.001 -0.5662 -1.9850  0.3315
 8010TIP3   OH248224   4.331   3.914  11.315 -0.2215 -0.4321 -0.0656
 8010TIP3    H148225   4.236   3.927  11.305  0.2704  2.3713 -2.7544
 8010TIP3    H248226   4.348   3.928  11.408 -2.3391  0.0558  0.3062
 8011TIP3   OH248227   0.868   3.992  11.937  0.1490  0.0272 -0.3331
 8011TIP3    H148228   0.835   4.037  12.015  0.3983  1.0961 -0.8250
 8011TIP3    H248229   0.815   3.912  11.932 -0.1043  0.1051  0.7294
 8012TIP3   OH248230   2.755   3.470  10.065 -0.3700 -0.1470 -0.2460
 8012TIP3    H148231   2.812   3.537  10.027 -0.7217  0.3705  0.1284
 8012TIP3    H248232   2.674   3.476  10.015 -1.0321  0.9037  0.8899
 8013TIP3   OH248233   3.983   1.113  11.500 -0.0495 -0.4692 -0.0239
 8013TIP3    H148234   3.967   1.207  11.514 -0.1864 -0.5167  0.1257
 8013TIP3    H248235   4.055   1.112  11.436  1.3130 -0.2538  1.4333
 8014TIP3   OH248236   1.724   2.482  13.351 -0.6221 -0.4633 -0.0406
 8014TIP3    H148237   1.685   2.569  13.338  1.1080  0.5418  0.9710
 8014TIP3    H248238   1.664   2.422  13.307 -2.4906  1.1038  0.1981
 8015TIP3   OH248239   4.860   1.499  10.106 -0.1444  0.2962  0.1564
 8015TIP3    H148240   4.857   1.476  10.199 -0.7288 -1.3836 -0.2459
 8015TIP3    H248241   4.946   1.539  10.094  0.7539 -1.2857  1.0224
 8016TIP3   OH248242   6.111   5.000  10.541  0.1412  0.1797 -0.5057
 8016TIP3    H148243   6.096   5.033  10.629  0.6754 -2.4021  0.6650
 8016TIP3    H248244   6.059   5.057  10.484 -0.4543  1.7322  1.4868
 8017TIP3   OH248245   2.489   2.143  11.581 -0.2883 -0.0265 -0.0359
 8017TIP3    H148246   2.452   2.087  11.512  2.5688 -1.8047 -0.2860
 8017TIP3    H248247   2.528   2.217  11.534 -0.5083  0.0578 -0.0865
 8018TIP3   OH248248   2.834   2.395   9.701 -0.2079 -0.2059 -0.5095
 8018TIP3    H148249   2.895   2.399   9.775  0.2051 -1.0239 -0.7955
 8018TIP3    H248250   2.795   2.482   9.698  0.2574  0.0424  0.2619
 8019TIP3   OH248251   3.093   3.822   9.446  0.1485 -0.5814  0.2729
 8019TIP3    H148252   3.060   3.909   9.423  0.8561  0.4103  2.6374
 8019TIP3    H248253   3.164   3.840   9.508  1.9465 -2.7864 -1.0109
 8020TIP3   OH248254   0.899   5.906  12.307 -0.7209 -0.3005  0.2836
 8020TIP3    H148255   0.831   5.947  12.360 -1.3184  0.3555 -0.9505
 8020TIP3    H248256   0.859   5.895  12.221  0.7048 -0.0108 -0.4404
 8021TIP3   OH248257   4.469   2.311  11.718  1.1095  0.3105  0.5558
 8021TIP3    H148258   4.533   2.262  11.667  1.1792 -0.1155  1.0418
 8021TIP3    H248259   4.469   2.268  11.804 -1.0091 -0.7644  0.0950
 8022TIP3   OH248260   2.566   2.039   9.231  0.1176  0.2274  0.5061
 8022TIP3    H148261   2.624   2.006   9.162 -0.9641  1.2684 -0.9700
 8022TIP3    H248262   2.538   1.961   9.278  1.1218 -0.4866 -0.0406
 8023TIP3   OH248263   5.455   5.356  12.735 -0.0666  0.1923 -0.1248
 8023TIP3    H148264   5.489   5.390  12.818 -0.0948  1.5211 -0.6264
 8023TIP3    H248265   5.519   5.382  12.670 -1.0551  1.0077 -0.8051
 8024TIP3   OH248266   3.097   1.463   9.809  0.4598 -0.3714  0.1991
 8024TIP3    H148267   3.047   1.426   9.881  0.9923 -1.6269 -0.0525
 8024TIP3    H248268   3.189   1.450   9.834  0.6510 -0.8089 -0.6900
 8025TIP3   OH248269   0.669   2.373  11.972  0.1862 -0.1495  0.0406
 8025TIP3    H148270   0.618   2.442  11.930  1.0204  0.0750 -0.6327
 8025TIP3    H248271   0.708   2.324  11.899  0.5533 -0.6011  0.5324
 8026TIP3   OH248272   1.654   4.139  12.004 -0.3442  0.3968 -0.0559
 8026TIP3    H148273   1.639   4.102  12.091 -1.9855 -0.3127 -0.5897
 8026TIP3    H248274   1.566   4.163  11.973 -0.0476 -1.0736 -2.2465
 8027TIP3   OH248275   2.506   4.988  12.372  0.1620 -0.3835 -0.4196
 8027TIP3    H148276   2.438   5.022  12.314  0.2853 -0.6163 -0.7101
 8027TIP3    H248277   2.547   5.066  12.409 -0.2508 -0.2434 -0.2527
 8028TIP3   OH248278   1.377   4.885  11.766  0.4727  0.2026  0.2982
 8028TIP3    H148279   1.425   4.941  11.705 -1.8665  1.3260 -0.6409
 8028TIP3    H248280   1.429   4.885  11.846  3.0635 -0.3744 -1.2585
 8029TIP3   OH248281   5.060   6.283  11.296 -0.3905  0.3512  0.2245
 8029TIP3    H148282   4.980   6.330  11.273 -1.2415  0.2179  2.6575
 8029TIP3    H248283   5.040   6.242  11.380  1.5909 -1.3105 -0.0446
 8030TIP3   OH248284   5.066   1.613  11.407  0.8078  0.2022  0.1728
 8030TIP3    H148285   4.985   1.583  11.448  0.9388  2.0611  1.9262
 8030TIP3    H248286   5.061   1.709  11.411  2.1938  0.3989 -1.5565
 8031TIP3   OH248287   5.248   3.395  10.713  0.5011 -0.1691 -0.2809
 8031TIP3    H148288   5.213   3.308  10.730 -0.6435  0.3001 -0.1315
 8031TIP3    H248289   5.295   3.418  10.792 -0.5692 -0.0153  0.3336
 8032TIP3   OH248290   1.452   1.666  12.724 -0.3357  0.3617  0.1484
 8032TIP3    H148291   1.392   1.671  12.799  1.3494  1.2433  1.4892
 8032TIP3    H248292   1.494   1.580  12.732  0.6136  0.8766  0.8566
 8033TIP3   OH248293   4.832   1.336  11.218 -0.7699  0.6166  0.1233
 8033TIP3    H148294   4.819   1.373  11.305  0.5280  2.7847 -0.5146
 8033TIP3    H248295   4.914   1.287  11.225 -0.9988  0.2500  0.2664
 8034TIP3   OH248296   5.779   2.970  12.864 -0.0263  0.3858  0.0307
 8034TIP3    H148297   5.848   3.020  12.906 -0.6137  0.3156  1.1100
 8034TIP3    H248298   5.698   3.018  12.884 -0.4241 -0.1761 -0.1850
 8035TIP3   OH248299   4.877   4.730  10.040 -0.0461 -0.3911  0.0430
 8035TIP3    H148300   4.945   4.730   9.973  1.8566  1.1730  1.8674
 8035TIP3    H248301   4.890   4.811  10.088 -0.9772 -1.6851  2.6527
 8036TIP3   OH248302   3.426   4.330  10.917 -0.0373 -0.3825  0.8888
 8036TIP3    H148303   3.519   4.327  10.942 -0.1578 -2.1147  1.2725
 8036TIP3    H248304   3.412   4.420  10.886  1.7321 -0.0520  0.9438
 8037TIP3   OH248305   4.302   3.240   9.499 -0.3021 -0.0333 -0.4019
 8037TIP3    H148306   4.332   3.291   9.424 -0.1365  1.2844  0.5094
 8037TIP3    H248307   4.369   3.256   9.566 -0.8423 -0.5491  0.2762
 8038TIP3   OH248308   2.240   2.578  10.465  0.3151 -0.1669 -0.1740
 8038TIP3    H148309   2.187   2.569  10.387 -0.7241  2.6224  0.1136
 8038TIP3    H248310   2.329   2.558  10.436 -0.3313 -1.2340 -1.5320
 8039TIP3   OH248311   0.523   5.763  10.509 -0.3676 -0.2475 -0.0838
 8039TIP3    H148312   0.539   5.853  10.537  3.8972 -0.2277 -1.8445
 8039TIP3    H248313   0.560   5.709  10.579 -2.2676 -0.7520  0.6204
 8040TIP3   OH248314   3.987   1.376  10.098  1.0107 -0.6707  0.3139
 8040TIP3    H148315   4.063   1.324  10.123  0.9462 -1.0983 -0.3450
 8040TIP3    H248316   4.023   1.451  10.051  1.0901 -0.2360  1.0587
 8041TIP3   OH248317   6.314   2.735  11.055  0.3944  0.4453  0.5020
 8041TIP3    H148318   6.225   2.765  11.037  0.1345 -0.5760  0.0136
 8041TIP3    H248319   6.370   2.804  11.018 -0.1785  0.0654 -1.1598
 8042TIP3   OH248320   1.861   0.632  11.721  0.2506  0.3382 -0.8430
 8042TIP3    H148321   1.921   0.563  11.749 -1.1566 -0.5123  0.1507
 8042TIP3    H248322   1.913   0.712  11.728  0.9852 -0.2424  1.0290
 8043TIP3   OH248323   2.783   0.596  10.523  0.1373 -0.4753  0.0267
 8043TIP3    H148324   2.855   0.545  10.487  1.5894  0.1756  1.8196
 8043TIP3    H248325   2.713   0.532  10.540  0.7040 -1.3080 -0.7214
 8044TIP3   OH248326   4.612   5.059  10.062  0.1226 -0.0798  0.8594
 8044TIP3    H148327   4.643   4.997  10.128 -0.3321  0.1151  1.2680
 8044TIP3    H248328   4.598   5.141  10.111 -0.1340  0.0911  0.5066
 8045TIP3   OH248329   2.400   3.739  11.198  0.4684  0.1619 -0.2576
 8045TIP3    H148330   2.312   3.771  11.221  0.5574 -0.3357  0.8238
 8045TIP3    H248331   2.460   3.796  11.245  0.7137  0.0942 -0.4827
 8046TIP3   OH248332   0.555   4.585  12.536 -0.0576  0.5480  0.0007
 8046TIP3    H148333   0.550   4.490  12.528 -2.0543  0.6829 -1.1275
 8046TIP3    H248334   0.585   4.601  12.625 -1.5526 -1.1579  0.8602
 8047TIP3   OH248335   5.812   0.854  12.774 -0.0323  0.1555  0.1673
 8047TIP3    H148336   5.720   0.874  12.791 -0.0379 -0.3939  0.8292
 8047TIP3    H248337   5.858   0.937  12.785 -0.4175  0.3784  0.0887
 8048TIP3   OH248338   5.731   0.976  12.150 -0.0392 -0.8254  0.1993
 8048TIP3    H148339   5.657   1.014  12.197  0.2861  0.9651 -0.6280
 8048TIP3    H248340   5.693   0.906  12.097 -1.0793 -0.2652  0.1695
 8049TIP3   OH248341   4.017   0.670   9.536 -0.2070  0.2876  0.2525
 8049TIP3    H148342   3.934   0.650   9.580  1.1157 -3.9999  1.2837
 8049TIP3    H248343   4.077   0.690   9.608  0.3195  0.4759 -0.2417
 8050TIP3   OH248344   2.175   5.031  12.258  0.6032 -0.6031  0.2783
 8050TIP3    H148345   2.106   4.989  12.309  1.5325 -1.3627  0.9491
 8050TIP3    H248346   2.176   4.983  12.175  1.2529 -1.5300  0.8081
 8051TIP3   OH248347   5.849   4.556   9.940  0.2849  0.5373 -0.3281
 8051TIP3    H148348   5.759   4.527   9.954  0.6872 -0.2191  0.8015
 8051TIP3    H248349   5.857   4.562   9.844 -0.6635 -0.3329 -0.4874
 8052TIP3   OH248350   4.612   2.801  12.611  0.0542  0.1082 -0.3282
 8052TIP3    H148351   4.693   2.823  12.565  1.1687 -0.0870  1.4625
 8052TIP3    H248352   4.591   2.712  12.583  0.6415  0.0414 -0.5664
 8053TIP3   OH248353   1.185   4.562  10.542  0.4003 -0.2988 -0.1222
 8053TIP3    H148354   1.122   4.628  10.513  1.2999  0.6991  0.1220
 8053TIP3    H248355   1.138   4.511  10.608  0.4647  1.8027  1.6537
 8054TIP3   OH248356   0.406   3.585  12.012  0.2564  0.0541 -0.0482
 8054TIP3    H148357   0.433   3.528  11.939 -1.4410  0.2035 -0.8351
 8054TIP3    H248358   0.310   3.582  12.011  0.1776 -0.3418  2.5263
 8055TIP3   OH248359   1.143   0.389   9.664 -0.1363  0.0367 -0.0057
 8055TIP3    H148360   1.166   0.333   9.738 -1.3360  1.4464  1.5341
 8055TIP3    H248361   1.222   0.440   9.647  0.2399 -0.5066  0.1004
 8056TIP3   OH248362   0.953   1.361  12.761 -0.1911 -0.0440  0.1631
 8056TIP3    H148363   1.031   1.387  12.711 -0.3499 -0.0778 -0.1001
 8056TIP3    H248364   0.881   1.407  12.718 -0.4096 -0.5510 -0.0140
 8057TIP3   OH248365   1.343   3.143  11.199  0.1722 -0.1395  0.1869
 8057TIP3    H148366   1.379   3.210  11.257 -1.7576  0.3234  0.9227
 8057TIP3    H248367   1.337   3.185  11.113 -1.3915  0.8202  0.7251
 8058TIP3   OH248368   4.962   1.840   9.483 -0.1397  0.1629 -0.9461
 8058TIP3    H148369   5.000   1.836   9.571  0.0033  4.5668 -0.5963
 8058TIP3    H248370   5.020   1.787   9.429  1.2793 -0.5389  1.1414
 8059TIP3   OH248371   4.207   1.019  11.309  0.3215  0.7224 -0.2286
 8059TIP3    H148372   4.252   0.984  11.232 -0.3269  0.6906 -0.6013
 8059TIP3    H248373   4.261   1.094  11.336  1.3244 -0.1028  0.1432
 8060TIP3   OH248374   0.391   0.542  12.580 -0.4526  0.0546  0.3142
 8060TIP3    H148375   0.449   0.467  12.570  0.8060  1.2115 -1.8098
 8060TIP3    H248376   0.304   0.505  12.592  0.4887 -1.7289  2.2946
 8061TIP3   OH248377   4.196   3.105   9.976 -0.3675 -0.2720 -0.0684
 8061TIP3    H148378   4.105   3.100   9.948 -0.4412  0.3882  0.0478
 8061TIP3    H248379   4.224   3.014   9.982 -0.4908 -0.4724 -1.8503
 8062TIP3   OH248380   2.543   3.020   9.663  0.1362 -0.2064  0.4746
 8062TIP3    H148381   2.480   3.083   9.697  0.4684  0.4815 -0.1695
 8062TIP3    H248382   2.588   3.066   9.593 -1.5093 -2.0360 -1.9345
 8063TIP3   OH248383   5.853   1.246  10.913 -0.0785 -0.3109  0.5799
 8063TIP3    H148384   5.833   1.202  10.995  0.3659 -2.0567 -0.1955
 8063TIP3    H248385   5.817   1.189  10.846  1.1152  0.1605 -0.5142
 8064TIP3   OH248386   1.672   3.386  11.573 -0.1617  0.8852 -0.4922
 8064TIP3    H148387   1.601   3.360  11.515  0.0567  0.5261 -0.6063
 8064TIP3    H248388   1.750   3.386  11.518  0.2606 -0.6754  0.0434
 8065TIP3   OH248389   2.207   2.787  10.130 -0.2634 -0.3684 -0.5286
 8065TIP3    H148390   2.223   2.693  10.116 -0.6383 -0.2696 -1.6919
 8065TIP3    H248391   2.293   2.827  10.124 -0.1114 -0.6204 -0.1161
 8066TIP3   OH248392   0.890   0.520  10.957  0.4348  0.2337 -0.5988
 8066TIP3    H148393   0.876   0.448  10.896 -1.0672 -1.2471  1.3622
 8066TIP3    H248394   0.886   0.598  10.903 -1.9103 -0.9298 -2.2821
 8067TIP3   OH248395   4.257   5.257  11.914  0.5515  0.4088  0.0098
 8067TIP3    H148396   4.234   5.190  11.978 -1.7118  0.7280 -0.3905
 8067TIP3    H248397   4.305   5.210  11.846  0.0500 -0.5700  0.3209
 8068TIP3   OH248398   0.024   5.179  13.713  0.4274  0.0670 -0.3136
 8068TIP3    H148399   0.067   5.094  13.711  1.7127  0.3861  3.9378
 8068TIP3    H248400  -0.069   5.159  13.706  0.7259 -1.6498  0.2092
 8069TIP3   OH248401   2.526   2.097  12.211  0.6667  0.2257 -0.5054
 8069TIP3    H148402   2.560   2.086  12.300 -2.6695  1.8713  1.1864
 8069TIP3    H248403   2.483   2.014  12.190  1.0511 -0.0056 -0.3714
 8070TIP3   OH248404   5.551   3.156  12.871  0.1697 -0.3046 -0.1107
 8070TIP3    H148405   5.464   3.184  12.898  0.3702  0.2149  0.0116
 8070TIP3    H248406   5.577   3.218  12.804  1.4440  1.0846  1.5705
 8071TIP3   OH248407   0.117   2.989  11.857 -0.3551  0.6503 -0.5994
 8071TIP3    H148408   0.072   2.937  11.791  0.6063 -0.2398 -0.5716
 8071TIP3    H248409   0.209   2.965  11.849 -0.0117  1.6696  0.0356
 8072TIP3   OH248410   0.871   3.227  10.076 -0.0933 -0.3003 -0.0413
 8072TIP3    H148411   0.908   3.268  10.154 -1.2648 -1.7501  1.3386
 8072TIP3    H248412   0.943   3.176  10.039  0.0269 -1.0423  1.1519
 8073TIP3   OH248413   2.444   2.469   9.798  0.4844 -0.3946  0.5759
 8073TIP3    H148414   2.487   2.448   9.715 -0.3188  0.5482 -0.0986
 8073TIP3    H248415   2.351   2.455   9.782  0.2229  0.6782  1.0150
 8074TIP3   OH248416   4.924   1.227  12.444 -0.2375  0.8076  0.1779
 8074TIP3    H148417   5.015   1.251  12.465 -0.2122  0.1662  0.8785
 8074TIP3    H248418   4.871   1.283  12.501 -0.1563 -1.2998  2.5591
 8075TIP3   OH248419   5.748   1.871  11.692 -0.0069 -0.4919  0.1116
 8075TIP3    H148420   5.811   1.863  11.620 -0.3338 -0.9005 -0.1318
 8075TIP3    H248421   5.739   1.966  11.705 -1.8720 -0.2817 -2.1152
 8076TIP3   OH248422   0.581   0.500   9.766  0.0618  0.0947  0.7791
 8076TIP3    H148423   0.619   0.584   9.793  2.9994 -1.5988  2.4727
 8076TIP3    H248424   0.654   0.453   9.725 -0.5017 -2.7470  2.7019
 8077TIP3   OH248425   1.221   2.389  10.657 -0.1333  0.2120 -0.3018
 8077TIP3    H148426   1.236   2.455  10.725 -2.0408  1.1592 -0.7234
 8077TIP3    H248427   1.143   2.343  10.687  0.5450 -1.1382 -0.5743
 8078TIP3   OH248428   3.754   3.043   9.306 -0.1236  0.1241  0.0100
 8078TIP3    H148429   3.699   3.075   9.235 -0.6473 -0.4901  0.1276
 8078TIP3    H248430   3.726   3.093   9.382 -1.2173 -0.8454  0.2783
 8079TIP3   OH248431   2.103   2.769   9.875 -0.1553 -0.0434  0.7920
 8079TIP3    H148432   2.043   2.695   9.888 -0.8657  0.2576 -0.5739
 8079TIP3    H248433   2.152   2.774   9.956 -1.7171 -0.5604  1.8180
 8080TIP3   OH248434   3.770   4.422   9.389  0.5146 -0.6140  0.1249
 8080TIP3    H148435   3.828   4.377   9.327  0.3556  0.9718 -1.2547
 8080TIP3    H248436   3.823   4.494   9.424 -0.1891  0.0328 -0.1169
 8081TIP3   OH248437   0.777   4.692  13.027 -0.6206  0.3582 -0.2034
 8081TIP3    H148438   0.779   4.716  13.119  1.8869 -1.4847  0.3332
 8081TIP3    H248439   0.867   4.705  12.997 -0.4885 -2.5339 -1.3737
 8082TIP3   OH248440   1.180   4.245  10.196  0.3339 -0.3626  0.0305
 8082TIP3    H148441   1.187   4.305  10.122 -0.5971 -0.5409 -0.2107
 8082TIP3    H248442   1.087   4.225  10.202 -0.2178  2.1433  3.1684
 8083TIP3   OH248443   1.712   1.040   9.237 -0.4206  0.1890 -0.2786
 8083TIP3    H148444   1.623   1.070   9.218 -0.1492  0.0688 -1.8617
 8083TIP3    H248445   1.769   1.107   9.198  0.1758 -0.8532 -1.2443
 8084TIP3   OH248446   0.063   0.824  12.580 -0.0826 -0.3966 -0.2812
 8084TIP3    H148447  -0.013   0.881  12.566  0.5151  0.1951 -1.1734
 8084TIP3    H248448   0.135   0.869  12.537  0.6344 -1.3021 -0.0492
 8085TIP3   OH248449   6.085   0.240  11.177 -0.4283 -0.9194  0.4501
 8085TIP3    H148450   6.005   0.292  11.176  0.2069  0.1152  1.3542
 8085TIP3    H248451   6.156   0.304  11.181  0.5139 -1.7897 -1.2838
 8086TIP3   OH248452   2.901   0.044  12.773  0.1586  0.1023 -0.2206
 8086TIP3    H148453   2.834   0.069  12.710  1.2404 -1.2233 -1.9686
 8086TIP3    H248454   2.972   0.106  12.758 -0.2712  0.9387  1.0119
 8087TIP3   OH248455   4.460   3.554  11.447 -0.3016 -0.1143 -0.3761
 8087TIP3    H148456   4.539   3.562  11.393  0.5466 -0.3051  0.7812
 8087TIP3    H248457   4.489   3.580  11.535 -1.4496 -0.5349  0.1435
 8088TIP3   OH248458   2.377   3.358   9.906 -0.1907 -0.6774  0.1029
 8088TIP3    H148459   2.422   3.361   9.990  0.9222  1.5290 -0.5124
 8088TIP3    H248460   2.288   3.389   9.925  0.2105  0.3315  0.4105
 8089TIP3   OH248461   5.692   3.385  10.730 -0.0722 -0.2765  0.7213
 8089TIP3    H148462   5.670   3.378  10.823  1.3517 -0.4642  1.0698
 8089TIP3    H248463   5.662   3.303  10.692 -1.3293  0.1027  0.8538
 8090TIP3   OH248464   4.518   4.395  12.290 -0.3804 -0.6423  0.0033
 8090TIP3    H148465   4.578   4.397  12.216  1.9846  2.1556  1.7536
 8090TIP3    H248466   4.431   4.395  12.250  0.7540 -1.1534 -2.7021
 8091TIP3   OH248467   3.241   5.346  10.613 -0.4203  0.0429  0.0200
 8091TIP3    H148468   3.149   5.373  10.618 -0.4428 -0.2992  1.7429
 8091TIP3    H248469   3.284   5.417  10.565 -1.2077  1.2130  1.0102
 8092TIP3   OH248470   2.107   5.835  11.893  0.2795 -0.4330 -0.2885
 8092TIP3    H148471   2.096   5.851  11.800  0.7365  0.3347 -0.2191
 8092TIP3    H248472   2.105   5.740  11.902 -2.1554 -0.4962 -0.7884
 8093TIP3   OH248473   1.666   1.647  11.463  0.0738  0.2343 -0.7233
 8093TIP3    H148474   1.637   1.733  11.495  0.7442 -0.5374  2.2527
 8093TIP3    H248475   1.664   1.591  11.540  1.7041 -1.9101 -2.1331
 8094TIP3   OH248476   1.340   2.108  12.279 -0.0463 -0.2072  0.4280
 8094TIP3    H148477   1.399   2.032  12.279  0.1612 -0.0502  0.9973
 8094TIP3    H248478   1.253   2.070  12.270  0.1244 -0.4508 -0.3092
 8095TIP3   OH248479   2.598   2.679  12.324  0.3098 -0.1342  0.0908
 8095TIP3    H148480   2.533   2.749  12.318  0.1086 -0.3578 -0.3924
 8095TIP3    H248481   2.599   2.655  12.416 -2.2595 -1.9664 -0.2504
 8096TIP3   OH248482   4.461   4.061   9.210 -0.0391  0.3221  0.4677
 8096TIP3    H148483   4.403   4.074   9.285  0.0765  1.7090  0.3433
 8096TIP3    H248484   4.402   4.058   9.134 -0.2968 -2.5210  0.6765
 8097TIP3   OH248485   6.149   2.573  11.305 -0.0252 -0.2416 -0.2222
 8097TIP3    H148486   6.073   2.518  11.287  0.4545 -0.4236 -1.9010
 8097TIP3    H248487   6.223   2.512  11.302  0.4995  0.4187 -1.9907
 8098TIP3   OH248488   5.070   5.020  12.445 -0.7970  0.3370 -0.0483
 8098TIP3    H148489   5.072   5.054  12.356 -2.3239  0.3510 -0.1143
 8098TIP3    H248490   5.148   5.056  12.487  0.4521 -0.4339 -1.6262
 8099TIP3   OH248491   0.075   6.143  10.272 -0.0191  0.0804  0.3415
 8099TIP3    H148492   0.147   6.149  10.335  0.0832  0.0234  0.2291
 8099TIP3    H248493   0.105   6.082  10.205  1.2414  2.5586 -1.5337
 8100TIP3   OH248494   0.881   1.261  12.389  0.0496  0.2098  0.2706
 8100TIP3    H148495   0.957   1.294  12.436  1.4062  0.0303 -1.6717
 8100TIP3    H248496   0.896   1.166  12.383 -1.1418 -0.0630  1.2030
 8101TIP3   OH248497   0.540   3.193  13.284  0.2350 -0.7378  0.2084
 8101TIP3    H148498   0.582   3.137  13.350 -1.1578 -1.7489  0.2873
 8101TIP3    H248499   0.459   3.221  13.325  1.2706  2.1647  0.5094
 8102TIP3   OH248500   2.617   1.228   9.291 -0.1335  0.3832 -0.0616
 8102TIP3    H148501   2.546   1.216   9.354  1.0409  0.8292  1.4039
 8102TIP3    H248502   2.696   1.233   9.345  0.9767  0.2765 -1.6194
 8103TIP3   OH248503   3.714   0.287  12.627 -0.2072  0.1942 -0.0009
 8103TIP3    H148504   3.768   0.363  12.652  0.2920 -0.3907  0.7345
 8103TIP3    H248505   3.628   0.305  12.664  0.1540 -0.0141  0.9557
 8104TIP3   OH248506   2.063   1.125  10.312 -0.0091  0.1135  0.0821
 8104TIP3    H148507   2.003   1.091  10.378  0.0344  0.8063  0.4934
 8104TIP3    H248508   2.052   1.068  10.236  2.1179 -2.6235  1.6451
 8105TIP3   OH248509   1.196   2.405  12.163  0.4281  0.2525 -0.2242
 8105TIP3    H148510   1.201   2.413  12.258  0.7525  0.6951 -0.2801
 8105TIP3    H248511   1.120   2.348  12.148  0.2286  0.3795  0.2893
 8106TIP3   OH248512   4.129   3.863  11.049  0.2161  0.2164 -0.5971
 8106TIP3    H148513   4.214   3.822  11.061  0.8424  1.9529  1.8354
 8106TIP3    H248514   4.066   3.798  11.081  0.9762  0.2207  1.0015
 8107TIP3   OH248515   4.297   5.325  10.243  0.0490  0.2273  0.0783
 8107TIP3    H148516   4.250   5.281  10.172  0.1849 -0.1911  0.2516
 8107TIP3    H248517   4.278   5.418  10.229 -2.2448 -0.0280  1.1392
 8108TIP3   OH248518   1.725   0.352  10.018  0.0894 -0.4222  0.1847
 8108TIP3    H148519   1.743   0.319   9.930 -0.8461 -2.4314  0.6779
 8108TIP3    H248520   1.716   0.273  10.071 -2.2666  0.6169  1.4678
 8109TIP3   OH248521   3.478   3.404  12.467 -0.0836  0.5659  0.3050
 8109TIP3    H148522   3.440   3.485  12.431 -0.6638  0.3870  0.5021
 8109TIP3    H248523   3.543   3.377  12.403 -0.6566  0.5981 -0.2995
 8110TIP3   OH248524   1.414   3.600  10.832  0.0989  0.0212  0.1061
 8110TIP3    H148525   1.392   3.687  10.798  0.1463  0.0281  0.0946
 8110TIP3    H248526   1.374   3.598  10.919  0.4644  0.2120  0.2791
 8111TIP3   OH248527   5.774   1.672  11.854  0.1628 -0.1488 -0.1034
 8111TIP3    H148528   5.752   1.742  11.793  0.5905 -0.6899 -0.9004
 8111TIP3    H248529   5.812   1.603  11.799 -1.9925 -1.8275  0.3531
 8112TIP3   OH248530   4.026   0.890  10.645  0.2029  0.1022 -0.4165
 8112TIP3    H148531   3.947   0.855  10.686  0.0460 -0.1863 -0.9412
 8112TIP3    H248532   3.999   0.909  10.555  1.0387 -1.2224 -0.9905
 8113TIP3   OH248533   1.840   3.140  10.755 -0.5409  0.3785 -0.2294
 8113TIP3    H148534   1.849   3.052  10.793 -1.1296  0.2536 -0.3600
 8113TIP3    H248535   1.926   3.180  10.765 -0.1691 -0.3400 -0.4735
 8114TIP3   OH248536   6.085   3.650  10.263 -0.0467 -0.2325  0.3083
 8114TIP3    H148537   6.158   3.610  10.216 -0.1178 -0.9956  0.8284
 8114TIP3    H248538   6.103   3.744  10.259 -0.0371 -0.2799 -1.1996
 8115TIP3   OH248539   0.488   4.652   9.917 -0.1189  0.1380  0.4561
 8115TIP3    H148540   0.406   4.670   9.870 -0.0421  0.1516  0.3260
 8115TIP3    H248541   0.551   4.633   9.847  0.0543  0.3843  0.5461
 8116TIP3   OH248542   1.016   4.997   9.873 -0.4589  0.2601  0.0397
 8116TIP3    H148543   0.980   4.930   9.932 -0.6380  1.0350  0.8311
 8116TIP3    H248544   0.956   5.071   9.882 -0.3311  0.4874 -0.9268
 8117TIP3   OH248545   6.284   5.234  10.928 -0.6725  0.2712  0.5835
 8117TIP3    H148546   6.270   5.316  10.882 -1.5346  0.2611  0.8189
 8117TIP3    H248547   6.336   5.181  10.867 -1.0500  0.5828 -0.0158
 8118TIP3   OH248548   3.383   1.037   9.400 -0.0996  0.3639  0.3858
 8118TIP3    H148549   3.295   1.061   9.372 -0.3077  1.0801  1.5722
 8118TIP3    H248550   3.376   1.025   9.494  1.0776  0.4329  0.5008
 8119TIP3   OH248551   0.891   4.582  10.195  0.0014  0.2843 -0.0005
 8119TIP3    H148552   0.877   4.640  10.120  0.2027 -0.9767 -1.0576
 8119TIP3    H248553   0.969   4.532  10.172  0.0332 -0.1629  1.0374
 8120TIP3   OH248554   2.390   0.429   9.892 -0.4706 -0.2297 -0.4306
 8120TIP3    H148555   2.462   0.371   9.869  0.5078  0.1409  1.4895
 8120TIP3    H248556   2.419   0.516   9.862 -0.0186 -0.0505  0.5051
 8121TIP3   OH248557   0.206   1.000   9.524  0.6095 -0.1966 -0.8505
 8121TIP3    H148558   0.217   0.905   9.528 -0.6725 -0.3489 -0.5799
 8121TIP3    H248559   0.295   1.035   9.532  1.1946 -1.3872 -1.9672
 8122TIP3   OH248560   4.901   3.300  17.453 -0.3126 -0.3628  0.3367
 8122TIP3    H148561   4.990   3.308  17.488  0.5330 -4.6067 -0.2984
 8122TIP3    H248562   4.846   3.344  17.518  2.1023  2.0394  0.9658
 8123TIP3   OH248563   0.406   6.255  11.869 -0.4074 -0.1816 -1.1316
 8123TIP3    H148564   0.371   6.314  11.935  0.0898 -0.0385 -0.9890
 8123TIP3    H248565   0.376   6.292  11.785 -0.1955  0.2131 -1.0381
 8124TIP3   OH248566   1.012   1.500  12.454 -0.2630 -0.0772  0.0911
 8124TIP3    H148567   1.025   1.490  12.360  0.9692  2.0036 -0.0155
 8124TIP3    H248568   1.078   1.443  12.494  2.4264  2.5089 -0.4003
 8125TIP3   OH248569   4.293   1.405  10.020 -0.4599 -0.0198 -0.0547
 8125TIP3    H148570   4.375   1.423  10.067 -1.8633  0.6508  2.3146
 8125TIP3    H248571   4.254   1.331  10.066 -1.6591  0.3269 -0.4679
 8126TIP3   OH248572   3.597   3.853  11.940  0.0626 -0.1592  0.0560
 8126TIP3    H148573   3.674   3.815  11.898 -0.6392 -1.0220 -0.5177
 8126TIP3    H248574   3.582   3.935  11.893  0.1506 -0.3947 -0.3877
 8127TIP3   OH248575   0.175   6.383  11.679  0.1028  0.2570  0.3132
 8127TIP3    H148576   0.174   6.478  11.671 -0.4734  0.3376  1.1572
 8127TIP3    H248577   0.084   6.360  11.700  0.6620 -0.2558  2.3557
 8128TIP3   OH248578   4.570   1.622  12.619  0.3382  0.4755  0.1124
 8128TIP3    H148579   4.648   1.669  12.649 -0.0210  1.0214  0.2122
 8128TIP3    H248580   4.533   1.585  12.699  1.7001 -1.7153 -0.1779
 8129TIP3   OH248581   4.870   5.619  11.110 -0.2577  0.0500  0.1794
 8129TIP3    H148582   4.854   5.709  11.139 -0.5320  0.1814 -0.3578
 8129TIP3    H248583   4.938   5.628  11.043 -0.0426 -0.1841  0.3648
 8130TIP3   OH248584   1.945   3.257  12.352 -0.3537 -0.3380 -0.0406
 8130TIP3    H148585   2.000   3.197  12.302 -0.0605  0.7105 -1.0398
 8130TIP3    H248586   1.920   3.324  12.288  0.3073  1.2504  1.3016
 8131TIP3   OH248587   0.074   2.672   9.878 -0.2702 -0.6306 -0.2763
 8131TIP3    H148588   0.086   2.578   9.861 -2.3265 -0.6475 -2.0560
 8131TIP3    H248589  -0.019   2.681   9.895 -0.0308  1.0627  0.2462
 8132TIP3   OH248590   3.179   0.068   9.679  0.3836 -0.2901 -0.1851
 8132TIP3    H148591   3.133   0.006   9.735  0.9025 -1.8509 -1.3999
 8132TIP3    H248592   3.166   0.153   9.721 -1.1985 -1.0654  1.0016
 8133TIP3   OH248593   0.616   4.667  11.649  0.3362 -0.0695  0.7870
 8133TIP3    H148594   0.644   4.704  11.733  0.0066  1.4828  0.2587
 8133TIP3    H248595   0.521   4.673  11.651  0.2812 -0.8422  0.6412
 8134TIP3   OH248596   4.583   2.124  18.421  0.4423  0.2318 -0.8034
 8134TIP3    H148597   4.552   2.124  18.511 -0.1425  0.1459 -1.0022
 8134TIP3    H248598   4.665   2.074  18.424 -0.1837 -0.8117 -0.5176
 8135TIP3   OH248599   5.601   0.092  10.283  0.5282  0.5293  0.0900
 8135TIP3    H148600   5.543   0.135  10.346  0.5660 -0.2731  0.6880
 8135TIP3    H248601   5.542   0.059  10.215  0.2473 -0.3138  0.7147
 8136TIP3   OH248602   5.160   2.622  10.067  0.0673 -0.2981 -0.4281
 8136TIP3    H148603   5.209   2.646   9.989 -0.2375  0.3655 -0.4259
 8136TIP3    H248604   5.132   2.532  10.052  1.9544 -0.9860 -0.0773
 8137TIP3   OH248605   3.118   5.780  10.014 -0.2026  0.4213 -0.0467
 8137TIP3    H148606   3.134   5.739   9.929  0.9835 -2.4985  1.4285
 8137TIP3    H248607   3.024   5.799  10.015 -0.2099  0.6450 -2.0226
 8138TIP3   OH248608   0.333   5.160  12.364 -0.1404  0.3575  0.0775
 8138TIP3    H148609   0.385   5.202  12.432 -0.8923 -0.1177  0.9572
 8138TIP3    H248610   0.392   5.156  12.288  0.4654  1.5251  0.4702
 8139TIP3   OH248611   1.788   3.547  11.111 -0.2165  0.2067  0.6407
 8139TIP3    H148612   1.790   3.580  11.200  2.0663 -0.9385  1.0762
 8139TIP3    H248613   1.705   3.500  11.104  0.0398 -0.5949  2.5234
 8140TIP3   OH248614   4.372   6.560   9.598 -0.2684  0.3823 -0.4243
 8140TIP3    H148615   4.412   6.474   9.585 -1.7118 -0.1536 -1.7175
 8140TIP3    H248616   4.445   6.619   9.613  0.7555 -1.0794  0.6837
 8141TIP3   OH248617   3.882   4.526  12.772  1.0468 -0.3241  0.4131
 8141TIP3    H148618   3.854   4.501  12.860 -0.1765 -1.8029 -0.3516
 8141TIP3    H248619   3.801   4.540  12.724  1.6757 -0.3029 -0.6779
 8142TIP3   OH248620   0.713   0.716  11.950  0.0962 -0.1737 -0.4266
 8142TIP3    H148621   0.703   0.776  11.876 -0.9947 -0.2046 -0.3159
 8142TIP3    H248622   0.714   0.629  11.910  0.5538 -0.1387 -0.4925
 8143TIP3   OH248623   4.733   6.106  11.554 -0.1910  0.3564 -0.2154
 8143TIP3    H148624   4.706   6.197  11.557  0.4568  0.5528 -0.2373
 8143TIP3    H248625   4.828   6.109  11.541 -0.2294 -0.3194 -0.7274
 8144TIP3   OH248626   6.358   6.242   9.675 -0.3817  0.3104  0.2423
 8144TIP3    H148627   6.378   6.256   9.768 -1.2314 -1.7849  0.7995
 8144TIP3    H248628   6.438   6.206   9.638  0.7303  3.2049 -0.4529
 8145TIP3   OH248629   1.382   1.539  12.029  0.4644  0.5640  0.2443
 8145TIP3    H148630   1.324   1.614  12.018  0.8388  1.1326  1.8415
 8145TIP3    H248631   1.421   1.525  11.942  0.1175  1.9873 -0.1627
 8146TIP3   OH248632   5.300   3.382  12.059  0.1353  0.1908  0.0404
 8146TIP3    H148633   5.368   3.447  12.080  0.0575 -0.1722  1.4557
 8146TIP3    H248634   5.286   3.334  12.140 -0.5035 -0.9762 -0.7363
 8147TIP3   OH248635   3.554   0.544  11.971  0.1582 -0.3209  0.0033
 8147TIP3    H148636   3.515   0.591  12.045 -0.8716 -0.3463 -0.4957
 8147TIP3    H248637   3.493   0.471  11.955  1.4111 -1.4842  0.3865
 8148TIP3   OH248638   0.876   5.727  11.697 -0.2258  0.4646 -0.1651
 8148TIP3    H148639   0.944   5.792  11.713 -1.2082  1.7110 -0.8506
 8148TIP3    H248640   0.911   5.646  11.733  0.6004  1.5854  1.7353
 8149TIP3   OH248641   6.034   4.621  13.071 -0.0833  0.2454  0.4289
 8149TIP3    H148642   6.074   4.542  13.108 -1.2525 -0.6332 -0.1394
 8149TIP3    H248643   5.948   4.626  13.113 -0.2513  0.8778  0.0130
 8150TIP3   OH248644   2.272   4.271  12.400  0.0013 -0.1889 -0.0126
 8150TIP3    H148645   2.268   4.244  12.492 -1.5612  1.5355  0.4987
 8150TIP3    H248646   2.331   4.346  12.399 -1.9526  1.4274  0.1116
 8151TIP3   OH248647   3.174   0.410  12.539 -0.2009  0.4819 -0.1836
 8151TIP3    H148648   3.210   0.325  12.512 -0.4190  0.6792 -1.1244
 8151TIP3    H248649   3.191   0.468  12.465  0.7233  1.5038  0.7860
 8152TIP3   OH248650   1.493   4.176  12.268 -0.4461  0.3241  0.0845
 8152TIP3    H148651   1.427   4.206  12.329 -0.5056 -0.4832  0.4252
 8152TIP3    H248652   1.567   4.150  12.323 -0.6753 -0.8560 -0.1252
 8153TIP3   OH248653   4.990   5.055   9.782 -0.1802  0.2824  0.2723
 8153TIP3    H148654   4.995   4.968   9.742 -2.0971  0.3458 -0.2277
 8153TIP3    H248655   5.051   5.108   9.731  0.1810 -0.5075 -0.1376
 8154TIP3   OH248656   1.752   1.004   9.620 -0.5624  0.9342 -0.1167
 8154TIP3    H148657   1.729   1.095   9.605  0.8744  1.3144 -0.2028
 8154TIP3    H248658   1.791   0.975   9.537  0.9135  0.8976  0.5631
 8155TIP3   OH248659   1.012   5.048  11.896  0.3524 -0.0880  0.2697
 8155TIP3    H148660   1.104   5.029  11.917  0.6859  0.8522 -0.2667
 8155TIP3    H248661   0.992   5.128  11.946 -0.8705 -1.4784  2.1197
 8156TIP3   OH248662   1.965   6.038  11.397 -0.6767  0.7515 -0.1494
 8156TIP3    H148663   1.994   5.947  11.390 -1.6197  0.3744  0.7377
 8156TIP3    H248664   1.994   6.078  11.315  1.0994  0.0554  0.0914
 8157TIP3   OH248665   5.894   4.288  10.211 -0.2384  0.3817  0.2603
 8157TIP3    H148666   5.893   4.272  10.305 -0.9376 -2.1612 -0.1036
 8157TIP3    H248667   5.802   4.296  10.186 -0.1893 -0.9732 -0.4520
 8158TIP3   OH248668   5.087   3.516  10.516 -0.2417 -0.1866  0.2728
 8158TIP3    H148669   5.146   3.484  10.585 -1.4431 -0.2329  1.3187
 8158TIP3    H248670   4.999   3.500  10.551 -0.8929 -0.8102 -1.5665
 8159TIP3   OH248671   1.292   2.506  10.316 -0.3088 -0.3615 -0.4691
 8159TIP3    H148672   1.334   2.590  10.298 -2.0238  0.8893  1.0334
 8159TIP3    H248673   1.310   2.454  10.238 -0.5983  1.9763 -2.2129
 8160TIP3   OH248674   3.961   3.644  11.149 -0.2153 -0.1159  0.2815
 8160TIP3    H148675   3.959   3.574  11.214 -0.8531 -0.0779  0.3087
 8160TIP3    H248676   3.876   3.638  11.105  0.4500 -0.5675 -1.0022
 8161TIP3   OH248677   1.295   3.783  12.684  0.1608 -0.3478  0.6180
 8161TIP3    H148678   1.372   3.735  12.654  1.8834  1.4983  1.8104
 8161TIP3    H248679   1.279   3.848  12.615 -0.6016 -0.9528  0.2023
 8162TIP3   OH248680   3.753   6.546   9.642  0.0680 -0.1290  0.4335
 8162TIP3    H148681   3.810   6.618   9.614 -1.5618  1.0189 -0.1450
 8162TIP3    H248682   3.675   6.590   9.677 -0.9257 -1.6177  0.1849
 8163TIP3   OH248683   4.311   2.143  11.448  0.2878  0.1792 -0.5608
 8163TIP3    H148684   4.345   2.127  11.536  0.7126  0.4344 -0.6727
 8163TIP3    H248685   4.320   2.059  11.403 -0.2745 -0.0528 -0.2532
 8164TIP3   OH248686   0.173   4.966  13.619  0.2523  0.1648  0.2616
 8164TIP3    H148687   0.169   4.873  13.594  0.5511 -0.2510  1.6713
 8164TIP3    H248688   0.255   4.997  13.580  0.4631 -0.3289  0.3004
 8165TIP3   OH248689   4.304   0.512  12.240  0.1266  0.1982  0.3933
 8165TIP3    H148690   4.251   0.506  12.160  1.1148 -0.0985 -0.2583
 8165TIP3    H248691   4.310   0.422  12.272  2.8664 -0.3776 -1.3414
 8166TIP3   OH248692   0.168   6.055   9.473  0.4799  0.2268  0.2507
 8166TIP3    H148693   0.107   6.127   9.456  1.6300  0.7534 -1.9971
 8166TIP3    H248694   0.253   6.097   9.481  0.9261 -0.7307  0.7280
 8167TIP3   OH248695   2.579   1.474   9.532  0.2008  0.0973 -0.0632
 8167TIP3    H148696   2.654   1.467   9.590 -0.3278 -1.3109  0.4759
 8167TIP3    H248697   2.546   1.385   9.524 -0.5214  0.4675 -1.4919
 8168TIP3   OH248698   3.706   4.908  10.740 -0.1464 -0.0389  0.1169
 8168TIP3    H148699   3.615   4.931  10.759 -0.0030 -0.3273  1.2521
 8168TIP3    H248700   3.757   4.949  10.810  0.6261  0.2992 -0.6276
 8169TIP3   OH248701   3.198   1.149  10.027  0.3441 -0.0418 -0.4439
 8169TIP3    H148702   3.182   1.144  10.121 -0.5259  2.8482 -0.3314
 8169TIP3    H248703   3.290   1.172  10.019 -0.3372  3.5987  0.0643
 8170TIP3   OH248704   1.078   4.190   9.837 -0.5823  0.2604  0.2401
 8170TIP3    H148705   1.122   4.147   9.910 -1.9894 -1.2213  0.2865
 8170TIP3    H248706   0.987   4.200   9.866 -1.2299 -0.5613 -1.3515
 8171TIP3   OH248707   1.382   6.510  11.205 -0.3693  0.0583  0.3412
 8171TIP3    H148708   1.445   6.447  11.240  0.0732 -0.3097 -1.0875
 8171TIP3    H248709   1.300   6.460  11.198  0.1009 -0.5349 -1.2585
 8172TIP3   OH248710   0.676   5.599  10.052 -0.3269 -0.3364  0.0435
 8172TIP3    H148711   0.738   5.529  10.071 -0.6573 -1.6984 -3.2070
 8172TIP3    H248712   0.594   5.569  10.091 -0.5103 -1.9432 -1.4857
 8173TIP3   OH248713   5.724   4.588  10.590  0.1486 -0.0166 -0.2292
 8173TIP3    H148714   5.746   4.679  10.568  0.5186 -0.3175 -1.1050
 8173TIP3    H248715   5.673   4.557  10.516  0.8503 -0.8374 -0.3725
 8174TIP3   OH248716   3.144   4.722  12.288 -0.4043 -0.2950 -0.1337
 8174TIP3    H148717   3.129   4.629  12.308  1.8874 -0.5671  0.7215
 8174TIP3    H248718   3.089   4.769  12.350  0.6222 -1.1499  1.5131
 8175TIP3   OH248719   3.854   3.365  10.897  0.3066 -0.3704 -0.3582
 8175TIP3    H148720   3.793   3.415  10.951  0.2081 -0.4822 -0.3670
 8175TIP3    H248721   3.883   3.427  10.830  0.9747 -0.0192  0.2419
 8176TIP3   OH248722   3.000   1.282  10.223 -0.3068  0.0449  0.9086
 8176TIP3    H148723   2.963   1.371  10.221 -1.5921 -0.4830  0.6438
 8176TIP3    H248724   3.092   1.296  10.244 -0.2062  1.5417 -0.2978
 8177TIP3   OH248725   1.061   5.334  10.494 -0.1757  0.1956 -0.6519
 8177TIP3    H148726   1.119   5.398  10.535 -0.6170 -0.2510  0.7260
 8177TIP3    H248727   1.064   5.258  10.552 -3.6657  0.8686  0.7050
 8178TIP3   OH248728   3.376   6.140  11.552 -0.2362 -0.9172  0.1947
 8178TIP3    H148729   3.341   6.051  11.549 -0.2839 -0.9464  1.3225
 8178TIP3    H248730   3.466   6.130  11.584 -1.0326 -0.3804  2.8014
 8179TIP3   OH248731   2.878   0.522  12.820 -0.0549  0.2252 -0.3054
 8179TIP3    H148732   2.857   0.494  12.910 -0.4793  0.3325 -0.3682
 8179TIP3    H248733   2.799   0.567  12.790  0.3157  0.7547 -0.5059
 8180TIP3   OH248734   6.333   6.071  11.943  0.4312 -0.1460  0.0240
 8180TIP3    H148735   6.380   6.154  11.941 -0.7190  0.5638  0.9118
 8180TIP3    H248736   6.334   6.045  12.034 -0.1306 -0.5575 -0.0844
 8181TIP3   OH248737   1.300   5.872  10.194  0.4150  0.0021  0.3675
 8181TIP3    H148738   1.311   5.964  10.171  1.7990  0.0028  0.9309
 8181TIP3    H248739   1.368   5.827  10.143  1.0454 -0.4437  1.5699
 8182TIP3   OH248740   4.877   2.793  10.464  0.1047  0.2871  0.3554
 8182TIP3    H148741   4.794   2.768  10.504  0.6804 -1.1723  0.7208
 8182TIP3    H248742   4.943   2.740  10.510  0.9280 -0.5902 -1.6776
 8183TIP3   OH248743   4.732   5.522  11.408 -0.2449  0.0143 -0.2932
 8183TIP3    H148744   4.781   5.509  11.327 -0.4161 -0.5694 -0.3089
 8183TIP3    H248745   4.758   5.450  11.464 -1.1476 -0.3680 -0.3404
 8184TIP3   OH248746   0.384   2.182   9.598 -0.2535 -0.3083  0.0966
 8184TIP3    H148747   0.335   2.251   9.644 -1.9014 -0.6505 -1.0588
 8184TIP3    H248748   0.321   2.110   9.590  0.6944 -1.0574 -0.7844
 8185TIP3   OH248749   1.850   3.976   9.859 -0.0022 -0.1918 -0.5524
 8185TIP3    H148750   1.805   3.923   9.924 -0.3725  0.8632  0.0743
 8185TIP3    H248751   1.922   4.017   9.907 -0.6231  1.0489 -0.6511
 8186TIP3   OH248752   4.139   1.254  10.663 -0.4921  0.0383  0.0765
 8186TIP3    H148753   4.165   1.320  10.599 -1.1683 -0.0087 -0.2458
 8186TIP3    H248754   4.188   1.175  10.636 -0.5025  0.1156 -0.1756
 8187TIP3   OH248755   6.590   2.005  10.668  1.0475 -0.0064  0.1588
 8187TIP3    H148756   6.570   1.930  10.612  1.4998 -0.9975  1.2931
 8187TIP3    H248757   6.508   2.056  10.670  0.5095 -0.8474 -0.0293
 8188TIP3   OH248758   2.116   3.470   9.635 -0.4810 -0.3593  0.1331
 8188TIP3    H148759   2.153   3.414   9.566  0.2237 -2.1468  1.8904
 8188TIP3    H248760   2.023   3.477   9.613 -0.4996 -1.8611 -0.3995
 8189TIP3   OH248761   6.611   4.057  10.680 -0.0939 -0.1606 -0.4054
 8189TIP3    H148762   6.608   4.088  10.590 -0.5124  1.7818  0.2377
 8189TIP3    H248763   6.521   4.033  10.700 -0.1674  0.2544 -0.2311
 8190TIP3   OH248764   4.597   5.666  11.907 -0.2236 -0.2008 -0.5428
 8190TIP3    H148765   4.634   5.686  11.993  0.7841  1.8455 -1.3790
 8190TIP3    H248766   4.579   5.572  11.910  0.7104 -0.3787  1.5373
 8191TIP3   OH248767   6.367   0.710   9.923  0.3666  0.4723 -0.2901
 8191TIP3    H148768   6.377   0.620   9.891  0.1748  0.3558 -0.0188
 8191TIP3    H248769   6.457   0.740   9.939  0.5203  0.7441 -1.5201
 8192TIP3   OH248770   3.065   4.122   9.657 -0.4092  0.6973  0.3795
 8192TIP3    H148771   3.010   4.047   9.680 -0.0143  1.0982  2.9916
 8192TIP3    H248772   3.155   4.088   9.663 -0.2700  0.6558 -1.4506
 8193TIP3   OH248773   1.802   4.257   9.687  0.0735 -0.5559 -0.1660
 8193TIP3    H148774   1.825   4.317   9.616 -1.1763  0.5588  0.3234
 8193TIP3    H248775   1.706   4.258   9.689  0.0406 -2.0665  0.3021
 8194TIP3   OH248776   3.976   1.786  11.254 -0.1839  0.4769 -0.1192
 8194TIP3    H148777   4.029   1.755  11.180  0.9990 -0.2388  0.9816
 8194TIP3    H248778   3.958   1.877  11.234  0.7481  0.5034 -0.9376
 8195TIP3   OH248779   0.326   3.948  10.270  0.3773  0.2238 -0.2947
 8195TIP3    H148780   0.329   4.012  10.341 -1.9863 -0.2551  0.3033
 8195TIP3    H248781   0.274   3.876  10.304  0.2304 -0.5865 -2.0951
 8196TIP3   OH248782   5.782   5.213  10.895  0.5187 -0.0948  0.6647
 8196TIP3    H148783   5.779   5.119  10.914 -1.3457  0.0592  1.4445
 8196TIP3    H248784   5.690   5.240  10.896  1.0185  1.7678  0.5605
 8197TIP3   OH248785   3.587   0.475   9.449 -0.1347  0.0536  0.0656
 8197TIP3    H148786   3.613   0.383   9.440 -0.0050  0.0483  0.4731
 8197TIP3    H248787   3.655   0.524   9.402 -1.1900 -0.1551 -1.8037
 8198TIP3   OH248788   2.147   5.300   9.809 -0.1498 -0.2837 -0.4100
 8198TIP3    H148789   2.204   5.343   9.746  0.7031  0.1739  0.6491
 8198TIP3    H248790   2.154   5.207   9.788 -1.0293 -0.0501 -1.9065
 8199TIP3   OH248791   6.030   0.158  11.909 -0.2155 -0.4647 -0.0790
 8199TIP3    H148792   5.993   0.132  11.825 -0.4342  0.8394 -0.4092
 8199TIP3    H248793   6.071   0.243  11.892 -0.6418  0.0252  1.2272
 8200TIP3   OH248794   5.434   4.743  11.518 -0.0411  0.3880  0.4215
 8200TIP3    H148795   5.377   4.788  11.455 -0.0526 -0.1973  0.0042
 8200TIP3    H248796   5.522   4.773  11.496 -0.0933  0.5580  0.4418
 8201TIP3   OH248797   6.523   1.074  11.522 -0.2055 -0.3539  0.3287
 8201TIP3    H148798   6.574   1.051  11.600 -0.6219  0.8256  0.9642
 8201TIP3    H248799   6.552   1.011  11.456  2.1508  0.3041  0.6251
 8202TIP3   OH248800   1.942   3.352  11.921  0.3548 -0.3533 -0.2402
 8202TIP3    H148801   1.969   3.320  11.835 -0.4867  1.5427 -1.2780
 8202TIP3    H248802   1.931   3.447  11.909 -1.2597 -0.2425  1.5517
 8203TIP3   OH248803   4.883   0.974  12.536  0.2379  0.2904  0.1174
 8203TIP3    H148804   4.791   0.949  12.546  0.3034 -0.5770 -1.1969
 8203TIP3    H248805   4.880   1.055  12.485  0.2108 -0.2753 -0.8097
 8204TIP3   OH248806   5.314   4.888  12.716 -0.1242  0.0936  0.0717
 8204TIP3    H148807   5.234   4.913  12.762 -0.3696 -0.3640 -0.1028
 8204TIP3    H248808   5.324   4.795  12.735  0.3238  0.1333  0.0279
 8205TIP3   OH248809   3.648   4.118  10.665  0.3829  0.1816  0.0248
 8205TIP3    H148810   3.558   4.087  10.653  1.0485 -1.4898 -1.1275
 8205TIP3    H248811   3.699   4.037  10.676  2.1754  0.8043 -2.6518
 8206TIP3   OH248812   1.280   0.104  12.120 -0.1049  0.3778 -0.1743
 8206TIP3    H148813   1.299   0.010  12.123  0.5515  0.4985 -0.3754
 8206TIP3    H248814   1.294   0.128  12.028  1.0029  0.9163  0.1153
 8207TIP3   OH248815   5.548   5.999  12.497 -0.0630  0.1636 -0.6263
 8207TIP3    H148816   5.513   5.914  12.468 -2.0187  1.0432 -1.0439
 8207TIP3    H248817   5.497   6.020  12.575  1.9958 -0.0433  0.8652
 8208TIP3   OH248818   2.920   4.414   9.389  0.1708 -0.1630  0.3949
 8208TIP3    H148819   2.869   4.440   9.466  0.8754 -0.0837  0.8471
 8208TIP3    H248820   2.975   4.490   9.371 -2.1093  1.0531 -2.0884
 8209TIP3   OH248821   4.357   3.194  12.091 -0.0156  0.3105 -0.0496
 8209TIP3    H148822   4.353   3.265  12.027  1.4343 -0.8341 -1.5012
 8209TIP3    H248823   4.316   3.119  12.048 -0.3920 -0.0923  0.9608
 8210TIP3   OH248824   2.132   0.220  11.591 -0.0855 -0.0571 -0.0025
 8210TIP3    H148825   2.187   0.148  11.562 -0.7305 -0.4102 -0.3710
 8210TIP3    H248826   2.193   0.286  11.623  0.6350  0.1086 -1.6339
 8211TIP3   OH248827   2.474   2.466  10.381 -0.3887 -0.3947 -0.4246
 8211TIP3    H148828   2.479   2.380  10.423 -1.0814 -0.4912 -0.5289
 8211TIP3    H248829   2.493   2.449  10.289  3.6553  0.1599  0.1558
 8212TIP3   OH248830   0.797   4.481  11.442  0.5949 -0.1529  0.3847
 8212TIP3    H148831   0.853   4.431  11.502  0.0910 -0.9902  0.1749
 8212TIP3    H248832   0.859   4.526  11.384  1.0638 -0.7458  0.4114
 8213TIP3   OH248833   6.342   2.747  11.891 -0.0081  0.2921 -0.1101
 8213TIP3    H148834   6.259   2.776  11.853 -0.3295  0.0609  0.4089
 8213TIP3    H248835   6.371   2.676  11.834  0.4509  1.1735 -1.0057
 8214TIP3   OH248836   5.979   2.749  12.376 -0.0123  0.7748 -0.4310
 8214TIP3    H148837   6.071   2.724  12.374  0.7556  3.0478  1.7426
 8214TIP3    H248838   5.941   2.695  12.445  0.2051  1.2959  0.1021
 8215TIP3   OH248839   2.858   4.538  11.974 -0.1029 -0.4734  0.1195
 8215TIP3    H148840   2.886   4.517  12.063  0.4164 -1.7763 -0.3318
 8215TIP3    H248841   2.763   4.528  11.975 -0.2041  0.3759  0.7255
 8216TIP3   OH248842   4.157   6.029  11.302 -0.5473  0.3486  0.2055
 8216TIP3    H148843   4.178   6.066  11.216  0.1657  1.0559  0.6625
 8216TIP3    H248844   4.207   6.083  11.363  0.3875 -1.2649  0.9286
 8217TIP3   OH248845   1.440   0.378   9.771  0.4387 -0.1280  0.3815
 8217TIP3    H148846   1.467   0.458   9.817  0.3872 -0.6788  1.4064
 8217TIP3    H248847   1.450   0.309   9.836 -0.8608 -0.7550 -0.0540
 8218TIP3   OH248848   1.755   1.196  10.341  0.2452  0.3391 -0.0404
 8218TIP3    H148849   1.788   1.157  10.422  0.4715  1.4077  0.3993
 8218TIP3    H248850   1.731   1.121  10.286 -1.5815 -0.4166  1.6849
 8219TIP3   OH248851   5.573   3.015  10.950  0.5794 -0.1595  0.6159
 8219TIP3    H148852   5.636   2.965  11.002  0.1065 -1.1978  0.2215
 8219TIP3    H248853   5.611   3.018  10.862 -0.3328 -1.6568  0.1213
 8220TIP3   OH248854   4.663   6.251  10.031  0.0058  0.1404 -0.0930
 8220TIP3    H148855   4.757   6.243  10.015  0.4117  0.7586  1.7206
 8220TIP3    H248856   4.630   6.300   9.955  1.3666  0.9670 -0.1980
 8221TIP3   OH248857   0.838   0.247  12.383 -0.3922 -0.3248  0.2088
 8221TIP3    H148858   0.824   0.342  12.379  0.3318 -0.1878  0.9628
 8221TIP3    H248859   0.876   0.226  12.297 -0.8702  0.0046 -0.0941
 8222TIP3   OH248860   0.390   4.884   9.630  0.7197 -0.3047 -0.0947
 8222TIP3    H148861   0.455   4.942   9.670  0.2578  0.5358 -0.5443
 8222TIP3    H248862   0.327   4.867   9.700  0.3588  0.4926 -0.2215
 8223TIP3   OH248863   3.169   0.708  11.956 -0.1311 -0.3163 -0.1912
 8223TIP3    H148864   3.076   0.687  11.948 -0.3469 -0.1578  1.5981
 8223TIP3    H248865   3.177   0.753  12.040  1.4856  0.2004 -0.5726
 8224TIP3   OH248866   3.414   5.548   9.625  0.2828 -0.4100 -0.0927
 8224TIP3    H148867   3.428   5.576   9.535 -0.7606 -1.2639 -0.5309
 8224TIP3    H248868   3.460   5.614   9.677  1.3329 -0.1841 -1.2520
 8225TIP3   OH248869   1.568   2.965  12.013 -0.3871 -0.5376  0.2535
 8225TIP3    H148870   1.578   3.060  12.008  0.0013 -0.6510 -2.0110
 8225TIP3    H248871   1.476   2.949  11.994 -0.4434 -0.6132  0.5895
 8226TIP3   OH248872   5.934   0.714  12.057  0.3617 -0.1202  0.3413
 8226TIP3    H148873   5.875   0.667  12.000  2.2041  0.0790 -1.8858
 8226TIP3    H248874   5.887   0.794  12.080 -0.8040 -0.6692 -0.0596
 8227TIP3   OH248875   4.367   0.921  10.386  0.0239  0.7256 -0.3094
 8227TIP3    H148876   4.388   0.985  10.318  0.9533  0.8680  0.1034
 8227TIP3    H248877   4.451   0.884  10.411 -0.1788  1.4317  1.5203
 8228TIP3   OH248878   6.303   5.378  12.888  0.2435  0.2279  0.4535
 8228TIP3    H148879   6.278   5.469  12.908 -1.1179  0.3818 -1.5801
 8228TIP3    H248880   6.283   5.329  12.968 -0.0438  1.5362  1.2172
 8229TIP3   OH248881   5.468   4.550  12.073 -0.0244 -0.2091 -0.6223
 8229TIP3    H148882   5.410   4.556  11.997  1.2968  0.1042 -1.6396
 8229TIP3    H248883   5.409   4.553  12.148 -1.3003  0.3631 -1.6042
 8230TIP3   OH248884   1.319   1.190  10.272  0.1456  0.6054 -0.4275
 8230TIP3    H148885   1.238   1.216  10.315  0.1814  0.0654 -0.0183
 8230TIP3    H248886   1.381   1.176  10.343  0.2365 -0.1928 -0.6519
 8231TIP3   OH248887   6.434   6.280  10.746  0.6267 -0.2644  0.5037
 8231TIP3    H148888   6.348   6.242  10.726  1.4075 -2.1722  0.5847
 8231TIP3    H248889   6.427   6.306  10.838 -0.1817  0.5704  0.2240
 8232TIP3   OH248890   0.204   6.061  13.655 -0.0172 -0.5157 -0.1497
 8232TIP3    H148891   0.122   6.082  13.699  1.0147  0.0232  1.6418
 8232TIP3    H248892   0.265   6.128  13.686  1.4577 -1.7490 -0.2751
 8233TIP3   OH248893   4.919   6.091  10.210 -0.0616  0.0952  0.2025
 8233TIP3    H148894   4.897   6.146  10.134 -0.7676 -0.4676 -0.0138
 8233TIP3    H248895   4.886   6.140  10.285 -2.1769 -0.7521 -0.1208
 8234TIP3   OH248896   6.463   5.876  10.536  0.2418 -0.1233  0.1632
 8234TIP3    H148897   6.395   5.855  10.472  1.6585 -2.1069 -0.7953
 8234TIP3    H248898   6.507   5.954  10.501 -0.0321 -0.2414 -0.4406
 8235TIP3   OH248899   1.221   2.174  12.551  0.7131 -0.2248 -0.7668
 8235TIP3    H148900   1.164   2.098  12.558  1.8254 -0.9741  0.6135
 8235TIP3    H248901   1.294   2.145  12.497  0.4467  0.3296 -1.4441
 8236TIP3   OH248902   1.590   3.568  10.378  0.4014  0.3347  0.1091
 8236TIP3    H148903   1.661   3.520  10.336  0.4701 -0.3680  0.9835
 8236TIP3    H248904   1.635   3.635  10.430  0.4475 -0.1756  0.7434
 8237TIP3   OH248905   4.956   4.827  12.174  0.2357 -0.4843 -0.0415
 8237TIP3    H148906   4.897   4.771  12.225  0.2510  0.1126  0.6434
 8237TIP3    H248907   5.022   4.855  12.237 -0.5013  1.3719 -0.0471
 8238TIP3   OH248908   1.071   4.147  11.874  0.8411 -0.4333  0.7931
 8238TIP3    H148909   0.993   4.096  11.895  0.8888 -0.6655  0.4047
 8238TIP3    H248910   1.133   4.083  11.837  0.7847 -0.0426  0.0113
 8239TIP3   OH248911   2.718   1.918  11.145 -0.2652 -0.4140  0.3112
 8239TIP3    H148912   2.761   1.879  11.221  2.9149  0.9760 -0.5768
 8239TIP3    H248913   2.680   1.844  11.099  0.8130 -1.7522  1.4546
 8240TIP3   OH248914   0.393   5.721  12.430  0.2824 -0.4909 -0.2414
 8240TIP3    H148915   0.343   5.719  12.512  1.5903 -0.3508  0.5780
 8240TIP3    H248916   0.349   5.788  12.378 -0.7493 -0.7883  0.2162
 8241TIP3   OH248917   0.324   3.421  12.614  0.8195  0.3302  0.0587
 8241TIP3    H148918   0.293   3.331  12.622  1.7945  0.0588  1.1901
 8241TIP3    H248919   0.298   3.463  12.696  1.5334  0.6864  0.1144
 8242TIP3   OH248920   0.001   0.202  11.828 -0.1791 -0.5218  0.1017
 8242TIP3    H148921  -0.017   0.214  11.921  0.5916  1.1971  0.0737
 8242TIP3    H248922  -0.085   0.204  11.786 -0.5821 -1.8565  0.7912
 8243TIP3   OH248923   4.924   1.205   9.540 -0.1318 -0.1340  0.6946
 8243TIP3    H148924   4.981   1.259   9.485 -1.3530  1.1410  0.6314
 8243TIP3    H248925   4.844   1.195   9.490 -0.0095 -1.8807  0.8001
 8244TIP3   OH248926   4.571   2.330  11.446  0.4019  0.1870  0.1727
 8244TIP3    H148927   4.479   2.355  11.456 -0.1388 -1.0498 -1.4292
 8244TIP3    H248928   4.569   2.242  11.409  2.2345  0.3476 -0.4293
 8245TIP3   OH248929   4.645   1.550  10.341 -0.9131  0.0646 -0.0613
 8245TIP3    H148930   4.638   1.587  10.429  1.3685  0.1038  0.1831
 8245TIP3    H248931   4.739   1.552  10.322 -1.1961 -1.3179 -1.9158
 8246TIP3   OH248932   4.738   5.111  10.943  0.2447  0.5861  0.9109
 8246TIP3    H148933   4.759   5.041  11.004 -1.2589 -0.3211  0.4263
 8246TIP3    H248934   4.717   5.067  10.861  2.8287  1.8104 -0.5319
 8247TIP3   OH248935   0.945   0.279  10.803  0.2234 -0.5368 -0.4289
 8247TIP3    H148936   0.929   0.222  10.878  1.5398 -0.5182 -0.1108
 8247TIP3    H248937   1.040   0.279  10.793  0.1321  0.2965 -1.4497
 8248TIP3   OH248938   0.741   4.073   9.489  0.0716  0.0902  0.6554
 8248TIP3    H148939   0.670   4.047   9.430 -0.3143  2.2083  0.1034
 8248TIP3    H248940   0.793   4.136   9.438  0.8891  0.4640  1.9115
 8249TIP3   OH248941   5.586   3.280  10.992  0.0284  0.0136 -0.1332
 8249TIP3    H148942   5.672   3.291  11.033 -0.9511  2.0777  1.5978
 8249TIP3    H248943   5.576   3.185  10.984  1.5978 -0.3777  1.5924
 8250TIP3   OH248944   5.236   2.331   9.642  0.1806  0.2667  0.0705
 8250TIP3    H148945   5.165   2.285   9.687 -1.6027 -0.6001 -3.2903
 8250TIP3    H248946   5.222   2.423   9.664 -1.9989  0.1005 -0.4136
 8251TIP3   OH248947   6.496   4.628  13.437  0.0726  0.3347 -0.1741
 8251TIP3    H148948   6.510   4.595  13.525  1.1458 -1.1073 -0.8376
 8251TIP3    H248949   6.583   4.655  13.407 -0.0352 -0.4236 -1.2371
 8252TIP3   OH248950   6.518   1.154  10.352 -0.2809 -0.3059  0.2466
 8252TIP3    H148951   6.510   1.248  10.372 -0.6144 -0.5007  1.0602
 8252TIP3    H248952   6.566   1.152  10.269  0.4436  0.5700  0.6172
 8253TIP3   OH248953   3.412   4.194   9.912  0.2674 -0.9189  0.1096
 8253TIP3    H148954   3.371   4.241   9.839  0.1901 -1.0670  0.0574
 8253TIP3    H248955   3.488   4.248   9.936 -0.4672 -0.1541  0.8067
 8254TIP3   OH248956   4.709   6.198  11.104  0.4348 -0.5159 -0.0476
 8254TIP3    H148957   4.699   6.220  11.011 -0.2014  0.2824  0.1936
 8254TIP3    H248958   4.770   6.264  11.137  0.3428 -0.5462  0.1825
 8255TIP3   OH248959   1.213   3.503  10.630  0.1019  0.1645  0.3283
 8255TIP3    H148960   1.257   3.483  10.547 -0.4222  0.8995 -0.1457
 8255TIP3    H248961   1.284   3.524  10.691  0.4728 -0.0122 -0.0353
 8256TIP3   OH248962   4.542   4.969  12.264  0.0860 -0.0051  0.2425
 8256TIP3    H148963   4.451   4.990  12.283 -0.0775  0.1093 -0.6437
 8256TIP3    H248964   4.548   4.874  12.280 -0.3977 -0.1646 -0.4613
 8257TIP3   OH248965   4.301   5.459   9.826  0.1195  0.0499  0.8934
 8257TIP3    H148966   4.292   5.549   9.795  1.4187  0.0184  0.3735
 8257TIP3    H248967   4.232   5.450   9.893 -0.9675  0.9590 -0.0523
 8258TIP3   OH248968   0.644   0.436  11.762 -0.1536 -0.5083 -0.7917
 8258TIP3    H148969   0.701   0.392  11.825 -1.2053  0.0579  0.5917
 8258TIP3    H248970   0.559   0.394  11.772 -1.3508  2.0499  0.9750
 8259TIP3   OH248971   3.541   5.674  12.078  0.1438 -0.7853  0.4505
 8259TIP3    H148972   3.618   5.638  12.033  0.3356 -0.3426  0.4212
 8259TIP3    H248973   3.541   5.767  12.055 -1.3272 -1.0647 -0.9193
 8260TIP3   OH248974   2.147   2.675  11.047 -0.4537  0.2128 -0.2573
 8260TIP3    H148975   2.235   2.678  11.084 -0.6831  1.2814  0.2295
 8260TIP3    H248976   2.142   2.590  11.004  1.2789  0.6349 -1.4208
 8261TIP3   OH248977   3.722   5.806  11.253  0.0910 -0.4072  0.0010
 8261TIP3    H148978   3.643   5.860  11.256 -0.3353 -0.8032 -2.3959
 8261TIP3    H248979   3.716   5.751  11.331 -0.2715  1.8333  1.6482
 8262TIP3   OH248980   1.555   5.203   9.868  0.3423  0.2331  0.1758
 8262TIP3    H148981   1.472   5.242   9.840  0.2444 -0.1877 -0.1225
 8262TIP3    H248982   1.531   5.117   9.904  0.5391  0.4993  0.9671
 8263TIP3   OH248983   6.519   5.058  10.026  0.3507  0.0518 -0.5344
 8263TIP3    H148984   6.556   5.070  10.114 -1.3241  2.4961 -0.0738
 8263TIP3    H248985   6.532   5.143   9.983 -4.6787  1.2722 -0.2409
 8264TIP3   OH248986   2.464   4.209  11.620 -0.1720  0.2040 -0.3387
 8264TIP3    H148987   2.373   4.231  11.596  0.4082  0.3583 -2.6195
 8264TIP3    H248988   2.515   4.285  11.593  0.9554 -0.9463 -1.6445
 8265TIP3   OH248989   1.855   5.028  11.378 -0.5414  0.4739  0.3622
 8265TIP3    H148990   1.779   5.087  11.377 -0.8888  0.0292  0.3090
 8265TIP3    H248991   1.819   4.943  11.354  0.2426  0.5674 -1.2390
 8266TIP3   OH248992   5.062   4.692  10.553  0.6822 -0.6026  0.4969
 8266TIP3    H148993   5.030   4.752  10.620  1.9636 -0.1161  0.7059
 8266TIP3    H248994   4.991   4.686  10.489  0.6226  1.3412  0.3433
 8267TIP3   OH248995   6.436   5.711   9.847  0.3931  0.3950 -0.0844
 8267TIP3    H148996   6.480   5.637   9.889 -0.5738 -0.1712 -0.0612
 8267TIP3    H248997   6.400   5.762   9.919 -1.1755 -0.5199 -0.1900
 8268TIP3   OH248998   5.209   5.578  13.671  0.1788  0.0790 -0.5590
 8268TIP3    H148999   5.186   5.498  13.622  1.9584  0.1609 -1.6012
 8268TIP3    H249000   5.298   5.562  13.702 -0.6178  0.3512  2.1007
 8269TIP3   OH249001   4.396   1.967  11.143  0.3700 -0.5815  0.2401
 8269TIP3    H149002   4.447   2.036  11.185  2.6911 -0.3800 -2.6167
 8269TIP3    H249003   4.424   1.886  11.186  0.8015 -0.1573  0.7673
 8270TIP3   OH249004   6.522   2.819  10.350 -0.3875 -1.0014  0.3751
 8270TIP3    H149005   6.440   2.863  10.370  1.1158  2.1424  0.2401
 8270TIP3    H249006   6.584   2.851  10.415  1.7603  0.3216 -2.0930
 8271TIP3   OH249007   6.328   4.584  12.188  0.0459 -0.3353 -1.4612
 8271TIP3    H149008   6.247   4.602  12.237 -0.0925 -2.8148 -0.6084
 8271TIP3    H249009   6.363   4.670  12.167 -2.0447  0.8226 -0.5565
 8272TIP3   OH249010   4.355   1.262   9.765 -0.2590 -0.1176  0.2130
 8272TIP3    H149011   4.327   1.313   9.841 -2.2151  0.8919 -1.0942
 8272TIP3    H249012   4.445   1.237   9.785 -0.1826  1.4476  2.1696
 8273TIP3   OH249013   2.402   0.526  10.302  0.3289 -0.4682 -0.0746
 8273TIP3    H149014   2.491   0.494  10.314  0.2978 -0.2223  0.8664
 8273TIP3    H249015   2.346   0.457  10.336  0.1021 -0.9791 -1.3995
 8274TIP3   OH249016   5.877   2.236  10.312 -0.2442 -0.0686 -0.4293
 8274TIP3    H149017   5.825   2.224  10.232  0.3881  2.0487 -1.2044
 8274TIP3    H249018   5.833   2.306  10.359  1.0074  0.6855 -0.3412
 8275TIP3   OH249019   4.139   1.977  11.067 -0.1834  0.4961 -0.5173
 8275TIP3    H149020   4.227   2.001  11.095 -0.2352 -1.4720  1.5792
 8275TIP3    H249021   4.143   1.883  11.052 -1.8299  0.4318 -0.8047
 8276TIP3   OH249022   6.496   0.993  12.520 -0.0612 -0.2297 -0.0976
 8276TIP3    H149023   6.481   1.051  12.594 -0.0868 -0.7983  0.3458
 8276TIP3    H249024   6.408   0.964  12.493 -0.1779  1.1892 -1.3458
 8277TIP3   OH249025   3.857   3.963  11.618  0.4273  0.4608  0.3650
 8277TIP3    H149026   3.930   3.902  11.610  1.0995  1.3009 -0.0854
 8277TIP3    H249027   3.829   3.978  11.528 -0.1445  0.3338  0.5213
 8278TIP3   OH249028   2.436   4.057  11.150 -0.3407 -0.4401  0.1480
 8278TIP3    H149029   2.476   4.119  11.089  0.3660  1.6850  2.6078
 8278TIP3    H249030   2.511   4.017  11.195 -0.7781  1.1699  2.4993
 8279TIP3   OH249031   5.109   4.095  12.182  0.0773  0.4596 -0.1523
 8279TIP3    H149032   5.167   4.052  12.245  0.5850  0.9110 -0.3029
 8279TIP3    H249033   5.162   4.167  12.147  0.4289 -0.8044 -2.3863
 8280TIP3   OH249034   4.705   1.374  11.485 -0.1267  0.5018  0.3291
 8280TIP3    H149035   4.744   1.430  11.552 -0.5552  0.2612  0.7901
 8280TIP3    H249036   4.654   1.310  11.535  2.3102 -1.8849  0.0183
 8281TIP3   OH249037   0.137   4.079   9.479  0.4726  0.5757 -0.2401
 8281TIP3    H149038   0.087   4.110   9.554  0.8772 -0.9961  0.7161
 8281TIP3    H249039   0.227   4.072   9.510  0.5973 -0.3746 -0.7516
 8282TIP3   OH249040   5.915   3.394   9.675 -0.0321  0.0861  1.1931
 8282TIP3    H149041   5.995   3.355   9.639  0.3338  1.2155  0.7331
 8282TIP3    H249042   5.925   3.386   9.770  1.0150  0.9084  1.1749
 8283TIP3   OH249043   2.884   5.891  11.976  0.0672 -0.1266 -0.5897
 8283TIP3    H149044   2.876   5.831  11.902  0.8728 -0.2361 -0.6051
 8283TIP3    H249045   2.819   5.861  12.040  0.3088 -0.8800 -0.6912
 8284TIP3   OH249046   3.514   4.579  11.810 -0.3170  0.1759 -0.6080
 8284TIP3    H149047   3.446   4.628  11.763  0.1517  0.7299 -0.7309
 8284TIP3    H249048   3.571   4.647  11.846 -0.7835 -0.2223  0.9695
 8285TIP3   OH249049   0.223   5.371  10.051 -0.4436 -0.2852 -1.0374
 8285TIP3    H149050   0.281   5.392   9.977 -1.5844  0.6370 -1.6946
 8285TIP3    H249051   0.221   5.450  10.104  0.3002 -0.9170 -0.0289
 8286TIP3   OH249052   4.298   1.865  10.745 -0.4666 -0.2772  0.0769
 8286TIP3    H149053   4.243   1.940  10.766 -1.1095 -0.5492 -0.6157
 8286TIP3    H249054   4.270   1.796  10.806 -0.0865 -0.0525  0.5073
 8287TIP3   OH249055   5.288   0.001  10.594 -0.7811  0.0424  0.2854
 8287TIP3    H149056   5.259  -0.062  10.528  0.3021  0.4712 -0.6378
 8287TIP3    H249057   5.209   0.048  10.619 -1.1299  0.2269 -1.1089
 8288TIP3   OH249058   5.586   2.280  11.786 -0.2497  0.0565 -0.3553
 8288TIP3    H149059   5.502   2.253  11.748 -1.3885  2.2847  0.4279
 8288TIP3    H249060   5.578   2.375  11.796  2.0935  0.2106  0.4506
 8289TIP3   OH249061   6.175   0.078  10.351 -0.0783  0.4728 -0.2227
 8289TIP3    H149062   6.132   0.141  10.409  0.7844 -1.6050  2.9117
 8289TIP3    H249063   6.211   0.012  10.410  0.1105 -2.3502 -3.2261
 8290TIP3   OH249064   1.562   2.403  11.534  0.0984 -0.2738  0.4070
 8290TIP3    H149065   1.487   2.404  11.475  0.0285  1.3054  0.4685
 8290TIP3    H249066   1.638   2.408  11.476  0.1049 -0.5109  0.3941
 8291TIP3   OH249067   2.844   5.795  11.696 -0.7259 -0.3817  0.1636
 8291TIP3    H149068   2.894   5.814  11.617 -1.8171  2.6786  0.0758
 8291TIP3    H249069   2.779   5.730  11.670 -0.4122 -0.1716 -1.1900
 8292TIP3   OH249070   6.619   6.059  12.139  0.8441  0.0306 -0.2430
 8292TIP3    H149071   6.629   5.968  12.110 -2.3587 -0.4830 -0.0255
 8292TIP3    H249072   6.619   6.110  12.058  1.2068 -0.3177 -0.4664
 8293TIP3   OH249073   4.590   5.717  11.550  0.3638  0.2085  0.2963
 8293TIP3    H149074   4.666   5.670  11.515  0.4411  0.3384  0.2898
 8293TIP3    H249075   4.518   5.654  11.543 -0.4394  1.3225 -3.2710
 8294TIP3   OH249076   0.381   1.192  11.476  0.0704  0.2555  0.6887
 8294TIP3    H149077   0.368   1.159  11.565 -2.3973 -0.9783 -0.0228
 8294TIP3    H249078   0.308   1.253  11.463  1.3122  1.6467  0.0195
 8295TIP3   OH249079   4.786   4.245  11.088 -0.0762  0.1481 -0.6916
 8295TIP3    H149080   4.706   4.202  11.120  1.1098 -0.7047  1.3822
 8295TIP3    H249081   4.828   4.178  11.034 -0.7442  0.6170 -1.8305
 8296TIP3   OH249082   3.563   3.339  11.061  0.3146  0.0922  0.0074
 8296TIP3    H149083   3.476   3.312  11.092  0.5744 -1.6207 -0.6183
 8296TIP3    H249084   3.547   3.381  10.977 -0.0150  1.0252  0.5230
 8297TIP3   OH249085   0.655   2.389   9.219  0.1426  0.0124  0.5090
 8297TIP3    H149086   0.581   2.401   9.159 -0.2897  1.0601  1.2249
 8297TIP3    H249087   0.629   2.314   9.273  0.0585 -0.2631  0.0918
 8298TIP3   OH249088   3.847   6.307  10.899  0.6208 -0.3282  0.1600
 8298TIP3    H149089   3.923   6.364  10.914  0.2429  0.1559  0.2919
 8298TIP3    H249090   3.832   6.264  10.983  1.2254 -1.0272 -0.0842
 8299TIP3   OH249091   4.028   4.311   9.676 -0.0905 -0.1238 -0.7102
 8299TIP3    H149092   3.945   4.354   9.694 -0.8183 -1.5206 -0.6121
 8299TIP3    H249093   4.025   4.290   9.583 -0.6040 -1.6695 -0.3711
 8300TIP3   OH249094   2.811   1.219  10.398 -0.2162 -0.0521  0.0352
 8300TIP3    H149095   2.785   1.136  10.358 -1.9951 -0.1541  1.2628
 8300TIP3    H249096   2.859   1.265  10.330  0.7439 -2.0386 -0.7072
 8301TIP3   OH249097   3.600   5.976  10.370  0.4341  0.2920 -0.0412
 8301TIP3    H149098   3.570   5.885  10.364  0.9562  0.0381  1.0623
 8301TIP3    H249099   3.529   6.021  10.416  1.0271  0.0137  1.1834
 8302TIP3   OH249100   4.770   5.223   9.864  0.3747  0.2447 -0.4557
 8302TIP3    H149101   4.714   5.179   9.928 -1.5232  0.6504 -1.7514
 8302TIP3    H249102   4.830   5.155   9.835  0.6237 -0.1984  1.0140
 8303TIP3   OH249103   4.057   2.078  11.298  0.1409  0.3101  0.9032
 8303TIP3    H149104   4.111   2.156  11.311  0.3950  0.0710  1.3108
 8303TIP3    H249105   4.099   2.031  11.226  1.5509 -0.7809  2.3677
 8304TIP3   OH249106   4.637   3.597  11.175 -0.0217 -0.0570  0.3136
 8304TIP3    H149107   4.655   3.683  11.214  0.1834  0.1675 -0.2614
 8304TIP3    H249108   4.668   3.605  11.085  0.2786 -0.8337  0.3394
 8305TIP3   OH249109   1.910   4.917  11.896  0.5524  0.2656  0.2342
 8305TIP3    H149110   1.867   4.896  11.980  1.4542  1.3078  0.9773
 8305TIP3    H249111   1.858   4.989  11.860 -0.1142 -0.4896 -0.3499
 8306TIP3   OH249112   3.844   4.551   9.889 -0.5320 -0.0507  0.4007
 8306TIP3    H149113   3.797   4.624   9.928  1.0169  1.4262 -0.3550
 8306TIP3    H249114   3.936   4.578   9.891  0.0689 -1.9324 -0.0327
 8307TIP3   OH249115   3.428   3.700   9.624  0.1882 -0.2261  0.1284
 8307TIP3    H149116   3.410   3.630   9.687  1.9519 -1.1059 -0.2709
 8307TIP3    H249117   3.512   3.737   9.653 -0.4969  1.4445  0.0715
 8308TIP3   OH249118   4.662   4.595  10.842  0.5751  0.4575 -0.0598
 8308TIP3    H149119   4.637   4.669  10.787 -0.1238 -0.6638 -1.3310
 8308TIP3    H249120   4.580   4.548  10.858  1.2086 -0.8944 -0.6163
 8309TIP3   OH249121   0.536   4.024  10.523  0.0011  0.0062  0.0430
 8309TIP3    H149122   0.618   4.039  10.570  1.0432 -0.3565 -1.5797
 8309TIP3    H249123   0.557   4.039  10.431 -1.7553 -0.1149 -0.4250
 8310TIP3   OH249124   3.504   1.200  11.198 -0.0347  0.3459 -0.3867
 8310TIP3    H149125   3.523   1.293  11.187  0.3582  0.2630 -0.4249
 8310TIP3    H249126   3.441   1.180  11.128 -2.7255  1.3158  1.6282
 8311TIP3   OH249127   1.358   4.436  10.372 -0.2905 -0.0167 -0.5042
 8311TIP3    H149128   1.307   4.399  10.301 -0.8729  0.3383 -0.2838
 8311TIP3    H249129   1.292   4.473  10.432  0.2325  0.7674 -0.3906
 8312TIP3   OH249130   2.841   4.694  10.537  0.1899  0.0685  0.3115
 8312TIP3    H149131   2.911   4.758  10.548  0.7829 -0.7442  1.5223
 8312TIP3    H249132   2.884   4.609  10.548 -0.7678 -0.4936 -0.1589
 8313TIP3   OH249133   2.495   2.932  10.395  0.0831  0.2128  0.1403
 8313TIP3    H149134   2.453   2.879  10.463  0.4490  0.6835  0.7462
 8313TIP3    H249135   2.506   2.873  10.321 -1.0572 -0.0994  0.1965
 8314TIP3   OH249136   4.443   2.809  12.269  0.2010  0.4735  0.4559
 8314TIP3    H149137   4.395   2.787  12.349 -1.2065  1.8563  0.0289
 8314TIP3    H249138   4.407   2.750  12.203 -0.3796  0.9823  0.3102
 8315TIP3   OH249139   3.560   2.200  10.483 -0.0588  0.3914 -0.0173
 8315TIP3    H149140   3.536   2.273  10.540  0.9343  0.7006  0.0192
 8315TIP3    H249141   3.627   2.152  10.531  0.4872  0.4136 -0.7303
 8316TIP3   OH249142   2.646   2.908  13.059 -0.3213 -0.2048 -0.1285
 8316TIP3    H149143   2.720   2.968  13.052  1.0578 -1.8274 -0.1669
 8316TIP3    H249144   2.596   2.922  12.978  0.7502 -0.0809 -0.7870
 8317TIP3   OH249145   1.718   2.098  10.612 -0.3314 -0.2627 -0.1228
 8317TIP3    H149146   1.628   2.091  10.645 -1.1036 -0.5385 -2.1539
 8317TIP3    H249147   1.723   2.185  10.572  1.4648  1.2491  2.9816
 8318TIP3   OH249148   5.284   0.505  12.661  0.3765 -0.0527  0.0845
 8318TIP3    H149149   5.353   0.449  12.698 -1.0435 -2.0038 -0.0515
 8318TIP3    H249150   5.203   0.462  12.687 -0.8130  2.0902  0.0857
 8319TIP3   OH249151   0.592   6.278  11.453  0.0486 -0.6288  0.5215
 8319TIP3    H149152   0.503   6.243  11.464  0.0610 -0.5015  1.0508
 8319TIP3    H249153   0.580   6.360  11.405  0.0267 -1.3767 -0.8102
 8320TIP3   OH249154   4.259   5.022   9.520  0.3820  0.2471  0.0561
 8320TIP3    H149155   4.183   5.076   9.499  0.8845  0.1884 -2.1369
 8320TIP3    H249156   4.330   5.059   9.468  0.4841 -3.0645 -2.5101
 8321TIP3   OH249157   1.722   0.172  11.835 -0.0761  0.3139 -0.1005
 8321TIP3    H149158   1.626   0.165  11.833 -0.1945  1.2841  0.9995
 8321TIP3    H249159   1.748   0.167  11.743 -1.0549 -1.3241 -0.3303
 8322TIP3   OH249160   6.610   0.877  11.329 -0.0673  0.2836  0.4749
 8322TIP3    H149161   6.581   0.793  11.295  1.2884 -0.4373  1.0322
 8322TIP3    H249162   6.635   0.927  11.251 -0.7427  0.1353  0.1539
 8323TIP3   OH249163   5.176   0.294  11.090  0.1242  0.2823 -0.0736
 8323TIP3    H149164   5.097   0.250  11.123 -0.1749  0.2944 -0.7606
 8323TIP3    H249165   5.202   0.353  11.161  0.9073 -1.4289  1.1647
 8324TIP3   OH249166   6.203   3.919  12.615 -0.3273  0.1935  0.2592
 8324TIP3    H149167   6.261   3.952  12.546  0.3773 -1.1216  0.1809
 8324TIP3    H249168   6.211   3.823  12.608 -3.0308 -0.0734 -0.1952
 8325TIP3   OH249169   1.647   1.761  12.552  0.2872 -0.0353  0.0698
 8325TIP3    H149170   1.674   1.672  12.529 -0.3446  0.0656 -1.1695
 8325TIP3    H249171   1.567   1.750  12.604 -0.1064 -0.1923 -0.5541
 8326TIP3   OH249172   2.441   6.022  12.677 -0.3903  0.4929  0.2563
 8326TIP3    H149173   2.510   6.088  12.675  1.1379 -0.9803 -2.8209
 8326TIP3    H249174   2.484   5.944  12.713 -1.3332  0.3143  1.0531
 8327TIP3   OH249175   4.827   4.888  12.994  0.2859 -0.2235  0.4615
 8327TIP3    H149176   4.747   4.917  13.037  0.4647 -0.8409  1.2285
 8327TIP3    H249177   4.797   4.835  12.921 -0.0157  0.5590  0.0079
 8328TIP3   OH249178   2.237   4.434  11.206 -0.3659 -0.0764  0.0442
 8328TIP3    H149179   2.315   4.468  11.161 -0.0090 -1.9409 -0.8294
 8328TIP3    H249180   2.165   4.452  11.145 -0.3326 -0.0084  0.0246
 8329TIP3   OH249181   0.895   0.234   9.953  0.1071  0.2925 -0.2645
 8329TIP3    H149182   0.984   0.209   9.930 -0.1716 -0.3599 -0.6655
 8329TIP3    H249183   0.871   0.175  10.024 -0.5412 -0.5985 -1.1896
 8330TIP3   OH249184   3.940   2.304  11.691 -0.6643 -0.1435  0.1165
 8330TIP3    H149185   3.966   2.213  11.702  0.0345  0.0434  0.0646
 8330TIP3    H249186   3.964   2.345  11.774 -0.0309  0.2052 -0.2321
 8331TIP3   OH249187   2.821   0.572  11.651 -0.5379  0.6492 -0.2364
 8331TIP3    H149188   2.748   0.605  11.704 -1.3782 -0.8572 -0.3825
 8331TIP3    H249189   2.808   0.613  11.565 -1.2124  0.4240 -0.2507
 8332TIP3   OH249190   5.106   2.697  11.588  0.1820  0.0508 -0.5090
 8332TIP3    H149191   5.080   2.672  11.499  0.5952 -0.8201 -0.3954
 8332TIP3    H249192   5.042   2.763  11.614 -0.2278 -0.0310 -1.2778
 8333TIP3   OH249193   3.260   4.107  12.309 -0.2248  0.6199 -0.2651
 8333TIP3    H149194   3.290   4.016  12.310  0.9986  1.0242  0.4567
 8333TIP3    H249195   3.193   4.111  12.377  1.2955  0.7585  1.2790
 8334TIP3   OH249196   1.617   2.777  11.577  0.2500 -0.1451 -0.1198
 8334TIP3    H149197   1.685   2.723  11.537  0.2238 -0.3216  0.0717
 8334TIP3    H249198   1.640   2.780  11.670 -1.0831 -1.8587  0.3272
 8335TIP3   OH249199   0.942   5.082  11.269  0.0083  0.3382 -0.2766
 8335TIP3    H149200   0.939   5.154  11.332  0.3889  0.3751 -0.2981
 8335TIP3    H249201   0.870   5.024  11.295  0.9997 -0.3453  1.0480
 8336TIP3   OH249202   6.329   4.526  20.856 -0.7247  0.7374 -0.1955
 8336TIP3    H149203   6.332   4.457  20.923  0.5563 -0.8266 -1.7874
 8336TIP3    H249204   6.244   4.568  20.870  0.3999  2.1242  3.9228
 8337TIP3   OH249205   0.121   2.962  11.141  0.1796  0.9689  0.1437
 8337TIP3    H149206   0.158   3.020  11.206  0.8938 -0.1093  0.7205
 8337TIP3    H249207   0.156   2.993  11.057  1.5871  0.5937  0.5769
 8338TIP3   OH249208   0.076   5.263  11.697  0.7783 -0.2032 -0.0554
 8338TIP3    H149209   0.095   5.270  11.604  1.1627 -2.7637 -0.2463
 8338TIP3    H249210   0.153   5.219  11.734 -0.0060 -0.5976  1.1758
 8339TIP3   OH249211   2.547   3.078  12.826  0.0578  0.0531 -0.0021
 8339TIP3    H149212   2.546   2.992  12.784 -0.9445 -0.4635  1.0356
 8339TIP3    H249213   2.493   3.133  12.769  0.2758 -0.1272 -0.3882
 8340TIP3   OH249214   0.895   2.224  12.755 -0.2823 -0.3681  0.1749
 8340TIP3    H149215   0.900   2.293  12.688 -2.8971 -0.4656 -0.2094
 8340TIP3    H249216   0.883   2.143  12.705 -1.6645 -0.5098  0.6883
 8341TIP3   OH249217   3.537   4.335   9.541  0.0299  0.4544  0.2070
 8341TIP3    H149218   3.583   4.364   9.463 -1.1318  0.1548 -0.6097
 8341TIP3    H249219   3.607   4.310   9.602  0.9488  0.1895 -0.9187
 8342TIP3   OH249220   6.438   1.661  11.525 -0.6139 -0.3122  0.3631
 8342TIP3    H149221   6.441   1.755  11.507  4.4134 -0.5753 -2.0254
 8342TIP3    H249222   6.354   1.632  11.489  0.1701  2.5421 -4.8128
 8343TIP3   OH249223   4.450   2.173  10.826 -0.1886  0.3407 -0.2038
 8343TIP3    H149224   4.387   2.153  10.757 -0.3417 -1.7829  0.4972
 8343TIP3    H249225   4.514   2.102  10.822  0.9635  1.2905  0.5230
 8344TIP3   OH249226   2.573   0.267  10.184  0.2243 -0.3892 -0.3687
 8344TIP3    H149227   2.616   0.331  10.127 -0.6208 -0.4142 -1.0515
 8344TIP3    H249228   2.625   0.187  10.173  0.5369 -0.1736 -0.4854
 8345TIP3   OH249229   2.438   1.216   9.521 -0.0339 -0.0024  0.4359
 8345TIP3    H149230   2.350   1.228   9.487  0.1194 -0.2198 -0.0420
 8345TIP3    H249231   2.433   1.138   9.576 -0.4124  0.6740  1.3799
 8346TIP3   OH249232   2.047   3.538  11.128 -0.2464 -0.0672  0.2137
 8346TIP3    H149233   2.085   3.612  11.176  1.3833 -0.1456 -0.8818
 8346TIP3    H249234   1.956   3.564  11.113 -0.2013  0.8919  1.4505
 8347TIP3   OH249235   1.712   5.404  12.502  0.1504 -0.3673  0.2176
 8347TIP3    H149236   1.628   5.444  12.522 -0.0659 -0.2632 -0.8351
 8347TIP3    H249237   1.691   5.327  12.450  0.6604 -0.9218  0.8083
 8348TIP3   OH249238   0.542   0.362  20.176 -0.3313  0.6049 -0.3441
 8348TIP3    H149239   0.601   0.380  20.249 -1.8560  3.3248  0.3663
 8348TIP3    H249240   0.600   0.347  20.101  1.2524 -1.0117  1.1298
 8349TIP3   OH249241   5.248   2.626  10.370  0.4079 -0.3197  0.2657
 8349TIP3    H149242   5.225   2.710  10.330  0.2675 -0.2901  0.4056
 8349TIP3    H249243   5.344   2.624  10.368  0.6042  1.2241  2.9988
 8350TIP3   OH249244   4.158   3.493  11.955 -0.1546 -0.2717  0.0893
 8350TIP3    H149245   4.199   3.477  12.040  1.1597 -0.1820 -0.5127
 8350TIP3    H249246   4.145   3.406  11.917  0.6624 -0.2409 -0.2638
 8351TIP3   OH249247   1.971   4.878  12.443  0.0677  0.4687  0.5261
 8351TIP3    H149248   2.060   4.888  12.477 -0.2592 -0.8428  1.8973
 8351TIP3    H249249   1.916   4.924  12.507 -0.5011 -1.4455  1.4887
 8352TIP3   OH249250   4.937   5.110   9.438 -0.0291  0.0131 -0.2212
 8352TIP3    H149251   4.962   5.030   9.484  0.1424 -0.2725 -0.8046
 8352TIP3    H249252   5.021   5.155   9.422 -0.2167  0.9042  1.1644
 8353TIP3   OH249253   4.973   5.031  11.992 -0.4051 -0.3364  0.1279
 8353TIP3    H149254   5.012   5.085  12.061 -1.0773  1.4328 -0.8163
 8353TIP3    H249255   4.951   4.949  12.036  0.5163  0.1831  1.6573
 8354TIP3   OH249256   1.104   1.689  11.166 -0.1636 -0.2162  0.0040
 8354TIP3    H149257   1.069   1.703  11.254 -0.4324 -1.1110  0.0507
 8354TIP3    H249258   1.199   1.685  11.179 -0.2775 -3.0918  0.7282
 8355TIP3   OH249259   3.838   1.550  11.308 -0.4045  0.0105  0.2299
 8355TIP3    H149260   3.864   1.642  11.308 -0.3823  0.0042  0.2832
 8355TIP3    H249261   3.813   1.532  11.217 -1.9414  0.4993  0.5296
 8356TIP3   OH249262   6.455   5.522  12.523 -0.0265 -0.1769 -0.2163
 8356TIP3    H149263   6.505   5.603  12.532 -2.5381  1.3056  1.4931
 8356TIP3    H249264   6.516   5.453  12.549  1.4553  1.4132  0.7088
 8357TIP3   OH249265   3.571   2.936  10.853  0.6767 -0.0232 -0.0630
 8357TIP3    H149266   3.665   2.955  10.858  1.0645 -1.6411 -0.5615
 8357TIP3    H249267   3.542   2.978  10.772  0.7963  1.0538  0.4302
 8358TIP3   OH249268   5.286   6.292  10.137  0.5414 -0.0138 -0.3752
 8358TIP3    H149269   5.196   6.321  10.148  1.0091  0.8398  1.7433
 8358TIP3    H249270   5.338   6.352  10.191  2.4130 -0.3441 -1.7074
 8359TIP3   OH249271   2.640   0.350  10.465  0.0870 -0.3775  0.4921
 8359TIP3    H149272   2.633   0.287  10.536  0.4736 -1.3138 -0.2688
 8359TIP3    H249273   2.618   0.300  10.386 -2.0662  1.0542  0.1070
 8360TIP3   OH249274   0.367   4.648  11.463 -0.1539  0.3057 -0.2035
 8360TIP3    H149275   0.293   4.607  11.418 -1.9765  1.8873  1.1750
 8360TIP3    H249276   0.368   4.738  11.431  1.4062  0.2454 -0.4039
 8361TIP3   OH249277   4.865   4.434  10.660  0.1941  0.2423 -0.2169
 8361TIP3    H149278   4.803   4.487  10.711 -1.2920 -1.0821 -0.6033
 8361TIP3    H249279   4.884   4.488  10.583 -0.5458  0.6258 -0.1430
 8362TIP3   OH249280   0.248   0.317  11.805  0.2958  0.1352 -0.3220
 8362TIP3    H149281   0.163   0.273  11.812  0.8266 -0.6953  1.8923
 8362TIP3    H249282   0.230   0.396  11.755 -1.6561 -0.3125 -0.4200
 8363TIP3   OH249283   6.041   3.214  10.450 -0.2019  0.3144 -0.2699
 8363TIP3    H149284   6.014   3.250  10.534 -2.6361 -1.0195 -0.3799
 8363TIP3    H249285   5.990   3.263  10.385  0.0394 -0.1000 -0.7879
 8364TIP3   OH249286   4.060   6.560  10.640 -0.6442  0.9757  0.0312
 8364TIP3    H149287   4.056   6.570  10.735 -0.8746 -1.1879  0.2949
 8364TIP3    H249288   3.969   6.545  10.614 -0.4163  0.1847 -0.3393
 8365TIP3   OH249289   0.959   3.798  11.323 -0.5267  0.1980  0.0958
 8365TIP3    H149290   0.880   3.752  11.349  1.3764 -1.4361  3.7963
 8365TIP3    H249291   0.954   3.882  11.369  0.2204 -0.2936  1.1231
 8366TIP3   OH249292   4.666   4.727  11.230 -0.0560 -0.0018  0.2693
 8366TIP3    H149293   4.700   4.666  11.164 -0.3178 -0.9432  0.9923
 8366TIP3    H249294   4.582   4.690  11.257 -0.4213  0.9042  0.4287
 8367TIP3   OH249295   2.603   4.416  11.897 -0.1142 -0.7075 -0.0729
 8367TIP3    H149296   2.566   4.428  11.985  1.3908  0.8244  0.4086
 8367TIP3    H249297   2.572   4.492  11.847  1.3661  0.0065  0.0223
 8368TIP3   OH249298   4.165   4.560  12.420  0.0542  0.2332  0.0394
 8368TIP3    H149299   4.176   4.475  12.379  1.4182  0.4312 -0.0281
 8368TIP3    H249300   4.080   4.591  12.388 -1.1249 -1.6661  1.1326
 8369TIP3   OH249301   5.822   5.163   9.890 -0.0756 -0.2953 -0.4057
 8369TIP3    H149302   5.913   5.192   9.893  0.3976 -1.7925  0.4957
 8369TIP3    H249303   5.775   5.236   9.849  1.2561  1.1536  0.5571
 8370TIP3   OH249304   3.167   6.557  10.598  0.0554 -0.3013  0.0572
 8370TIP3    H149305   3.114   6.493  10.552 -0.4744  0.4813 -0.4413
 8370TIP3    H249306   3.117   6.577  10.677 -0.6476  0.7688 -0.6274
 8371TIP3   OH249307   0.589   3.740  12.831 -0.5018 -0.3074 -0.0770
 8371TIP3    H149308   0.550   3.769  12.749  0.7226  1.4833 -0.0792
 8371TIP3    H249309   0.549   3.797  12.897 -0.2701 -0.6279  0.3429
 8372TIP3   OH249310   3.206   4.780  11.421 -0.1182  0.4060 -0.4373
 8372TIP3    H149311   3.132   4.840  11.412 -1.2320 -0.3788  2.3057
 8372TIP3    H249312   3.197   4.718  11.348 -1.2225  1.2618 -1.0447
 8373TIP3   OH249313   1.682   1.829  10.407 -0.1303  0.5942 -0.2072
 8373TIP3    H149314   1.726   1.769  10.346  1.8476  2.5723 -0.8343
 8373TIP3    H249315   1.626   1.883  10.350 -0.1356  0.8611  0.0507
 8374TIP3   OH249316   4.423   4.687  10.107 -0.1745  0.0163 -0.1822
 8374TIP3    H149317   4.389   4.661  10.021  0.4270  1.4820 -0.9061
 8374TIP3    H249318   4.395   4.778  10.117  1.2233  0.4169  0.3882
 8375TIP3   OH249319   2.315   2.393  12.011  0.2014  0.1377  0.4499
 8375TIP3    H149320   2.297   2.382  11.918 -1.0137  0.1196  0.6653
 8375TIP3    H249321   2.327   2.488  12.022  0.9347  0.0782  0.1856
 8376TIP3   OH249322   2.847   3.230  10.156 -0.0130  0.1178 -0.1069
 8376TIP3    H149323   2.809   3.317  10.149 -0.6512 -0.2886 -2.5647
 8376TIP3    H249324   2.929   3.243  10.204  0.4848  2.2800 -1.4102
 8377TIP3   OH249325   2.518   5.012   9.465  0.0385 -0.1277  0.0019
 8377TIP3    H149326   2.522   4.995   9.371 -1.1460 -0.1756 -0.0506
 8377TIP3    H249327   2.584   5.080   9.480  1.2454 -1.1294 -0.6100
 8378TIP3   OH249328   3.426   2.099  11.846 -0.1537 -0.2488 -0.8212
 8378TIP3    H149329   3.441   2.011  11.809  0.3682 -1.8182  2.7400
 8378TIP3    H249330   3.510   2.123  11.885 -0.8631  0.9571  0.0133
 8379TIP3   OH249331   5.043   1.898  11.337  0.1402 -0.0384  0.5382
 8379TIP3    H149332   5.127   1.909  11.293  0.1590 -2.2299 -0.0791
 8379TIP3    H249333   5.048   1.956  11.413  2.6644 -0.8990  1.1095
 8380TIP3   OH249334   0.271   4.426   9.720  0.1813 -0.5541 -0.0921
 8380TIP3    H149335   0.246   4.392   9.634 -0.3550 -1.7224  0.4986
 8380TIP3    H249336   0.189   4.433   9.768  0.1596  2.2409 -0.3466
 8381TIP3   OH249337   1.854   3.933  12.224  0.0081  0.2242 -0.1663
 8381TIP3    H149338   1.887   3.883  12.299  1.6745  0.4356 -0.7102
 8381TIP3    H249339   1.831   4.018  12.261 -0.6075 -0.1560  0.3537
 8382TIP3   OH249340   0.721   2.859  12.231 -0.1735 -0.0107 -0.5708
 8382TIP3    H149341   0.762   2.893  12.311  0.0649  0.8155 -1.0283
 8382TIP3    H249342   0.629   2.848  12.254  0.0527 -0.6102  0.0743
 8383TIP3   OH249343   1.393   0.140  10.228 -0.4845 -0.1253  0.3548
 8383TIP3    H149344   1.436   0.150  10.313 -0.7238 -1.2991  0.6319
 8383TIP3    H249345   1.322   0.077  10.244 -0.5414 -0.3527 -0.7052
 8384TIP3   OH249346   1.186   0.882  12.308 -0.1790 -0.6914 -0.6466
 8384TIP3    H149347   1.091   0.896  12.307 -0.5201 -2.6768 -0.3097
 8384TIP3    H249348   1.203   0.837  12.390  1.1360 -0.0651 -0.5425
 8385TIP3   OH249349   2.377   6.444  12.889 -0.0494 -0.4067  0.5507
 8385TIP3    H149350   2.428   6.434  12.970 -0.6391  0.8778  1.0926
 8385TIP3    H249351   2.286   6.451  12.918 -0.2254  0.5197 -0.1796
 8386TIP3   OH249352   0.302   1.206  11.153 -0.5860  0.3513 -0.1955
 8386TIP3    H149353   0.352   1.124  11.160  1.3762  1.5482  0.7196
 8386TIP3    H249354   0.259   1.216  11.238 -2.1493 -0.4762 -0.8476
 8387TIP3   OH249355   4.908   3.916  12.194 -0.4576  0.1896  0.8549
 8387TIP3    H149356   4.833   3.937  12.139  0.4593 -2.9196 -1.9370
 8387TIP3    H249357   4.972   3.985  12.175 -0.4473 -0.4050 -1.5719
 8388TIP3   OH249358   1.678   3.833  10.039 -0.4588  0.4507 -0.0668
 8388TIP3    H149359   1.637   3.748  10.022  1.0712 -0.0542 -1.5735
 8388TIP3    H249360   1.700   3.831  10.132 -0.3417 -0.8573 -0.1037
 8389TIP3   OH249361   5.302   2.716   9.848  0.1456  0.6070  0.3257
 8389TIP3    H149362   5.251   2.701   9.768  0.2166  0.7659  0.2490
 8389TIP3    H249363   5.389   2.683   9.827 -0.3410 -1.2588  1.0412
 8390TIP3   OH249364   0.724   3.287  12.276 -0.2474 -0.7597 -0.6880
 8390TIP3    H149365   0.801   3.306  12.330 -1.0238  0.5013  0.0187
 8390TIP3    H249366   0.752   3.302  12.186 -0.1564  1.5531 -0.3227
 8391TIP3   OH249367   5.473   1.322  11.495  0.1420  0.4998  0.4698
 8391TIP3    H149368   5.419   1.380  11.441 -0.1300  0.4369  0.6748
 8391TIP3    H249369   5.563   1.343  11.469 -0.0082 -0.0364 -0.5410
 8392TIP3   OH249370   0.095   5.594  11.447 -0.2667  0.2475 -0.0427
 8392TIP3    H149371   0.112   5.631  11.361  0.8802  1.1249  0.5341
 8392TIP3    H249372   0.177   5.552  11.472 -0.8489 -0.7389  0.2871
 8393TIP3   OH249373   6.326   5.223  11.876 -0.3901 -0.7308  0.0714
 8393TIP3    H149374   6.385   5.150  11.894  0.3488 -0.7366 -2.0828
 8393TIP3    H249375   6.343   5.246  11.785 -2.2534  0.6417  0.0024
 8394TIP3   OH249376   6.272   2.512  10.846 -0.3554 -0.4003  0.2421
 8394TIP3    H149377   6.221   2.555  10.915 -1.3196  1.3553 -1.4625
 8394TIP3    H249378   6.354   2.560  10.844 -0.8626  0.4639 -0.6936
 8395TIP3   OH249379   6.555   0.582  12.502 -0.0046  0.3235 -0.0372
 8395TIP3    H149380   6.602   0.665  12.513 -0.8909  0.5941  2.5183
 8395TIP3    H249381   6.467   0.607  12.474 -1.2921  0.7106  3.6884
 8396TIP3   OH249382   1.035   5.801  12.567  0.1000 -0.3748  0.6423
 8396TIP3    H149383   1.090   5.874  12.594 -1.3419  0.6537  0.8909
 8396TIP3    H249384   1.007   5.824  12.479  0.1046 -0.9177  0.4966
 8397TIP3   OH249385   0.686   3.469  10.310 -0.0975 -0.2132  0.1647
 8397TIP3    H149386   0.650   3.498  10.226 -2.4500 -0.5360  0.9773
 8397TIP3    H249387   0.696   3.549  10.361  1.3979 -0.0085 -0.3815
 8398TIP3   OH249388   6.418   3.442   9.475  0.2849  0.3707  0.3180
 8398TIP3    H149389   6.467   3.361   9.467 -0.8612 -0.3138  0.0291
 8398TIP3    H249390   6.482   3.511   9.456  1.5246 -0.3847  1.5715
 8399TIP3   OH249391   5.496   1.034  10.926  0.1174  0.1678  0.1042
 8399TIP3    H149392   5.512   1.116  10.973  1.5502  0.3699 -0.6992
 8399TIP3    H249393   5.570   1.024  10.867 -0.5611 -1.1835 -0.5823
 8400TIP3   OH249394   1.525   6.293  10.301  0.0455  0.3484 -0.4813
 8400TIP3    H149395   1.528   6.316  10.208  0.2331 -0.3251 -0.6491
 8400TIP3    H249396   1.611   6.319  10.334  0.2512 -0.0712 -0.6672
 8401TIP3   OH249397   4.644   4.670   9.894 -0.9651 -0.2341  0.2729
 8401TIP3    H149398   4.586   4.689   9.968 -0.3729  1.0624  0.4314
 8401TIP3    H249399   4.732   4.688   9.927 -0.6762  0.1249 -0.6693
 8402TIP3   OH249400   4.352   2.197   9.387  0.3091  0.3616 -1.0243
 8402TIP3    H149401   4.336   2.286   9.420  1.0153  0.4672 -0.9624
 8402TIP3    H249402   4.270   2.151   9.403  0.5269  0.4883  0.6111
 8403TIP3   OH249403   2.315   3.620   9.484  0.2091  0.2919  0.2779
 8403TIP3    H149404   2.231   3.592   9.519 -0.4693 -0.0618 -1.5028
 8403TIP3    H249405   2.368   3.541   9.482  0.4932  0.4544  1.1232
 8404TIP3   OH249406   4.764   2.690   9.741 -0.8385  0.2553 -0.2051
 8404TIP3    H149407   4.815   2.609   9.731 -0.7536  0.4908 -1.8520
 8404TIP3    H249408   4.820   2.747   9.794 -0.0452 -0.0472 -0.7079
 8405TIP3   OH249409   1.402   1.847  11.785  0.2825  0.0320  0.2529
 8405TIP3    H149410   1.437   1.857  11.874 -1.1681 -0.4142  0.9030
 8405TIP3    H249411   1.454   1.776  11.747  1.6539  0.9528  0.3313
 8406TIP3   OH249412   4.309   2.859  12.803  0.4108 -0.4850  0.4447
 8406TIP3    H149413   4.323   2.839  12.711 -1.3812  0.0166  0.0185
 8406TIP3    H249414   4.395   2.885  12.836  0.6675  1.7503 -1.7086
 8407TIP3   OH249415   5.687   4.800  11.173 -0.2334 -0.3632 -0.1465
 8407TIP3    H149416   5.773   4.818  11.136  0.0820  1.1222  1.1945
 8407TIP3    H249417   5.626   4.846  11.114  0.1663  1.0195  0.4655
 8408TIP3   OH249418   0.126   1.591  11.676  0.2390 -0.0961  0.3163
 8408TIP3    H149419   0.143   1.503  11.709  0.9730  0.3836  1.2624
 8408TIP3    H249420   0.035   1.610  11.702  1.0550  0.6046  2.9506
 8409TIP3   OH249421   2.013   2.737  11.290  0.3045  0.2044  0.4957
 8409TIP3    H149422   1.949   2.802  11.261  0.0638  0.3059  1.2406
 8409TIP3    H249423   2.055   2.708  11.209 -1.4440 -0.6823 -0.1654
 8410TIP3   OH249424   3.993   3.826  11.930 -0.3408 -0.4573 -0.0173
 8410TIP3    H149425   3.944   3.796  11.853 -0.0500 -1.2815  0.1049
 8410TIP3    H249426   4.028   3.745  11.969 -1.2317 -0.1392  1.4962
 8411TIP3   OH249427   3.101   3.829  11.988 -0.0863  0.1901 -0.0805
 8411TIP3    H149428   3.155   3.839  11.909  0.6968  0.0389  0.4292
 8411TIP3    H249429   3.035   3.898  11.980  0.0959  0.2914 -0.7796
 8412TIP3   OH249430   0.144   5.966  11.872 -0.1224 -0.2178 -0.1224
 8412TIP3    H149431   0.129   5.895  11.810  1.1838 -1.2319  0.6634
 8412TIP3    H249432   0.101   6.042  11.833  1.1116 -0.6800 -2.5512
 8413TIP3   OH249433   0.692   3.771  10.763  0.1463  0.4071 -0.1260
 8413TIP3    H149434   0.598   3.788  10.768  0.6101  3.2921  1.2155
 8413TIP3    H249435   0.706   3.699  10.824 -1.3080 -0.9388 -1.2996
 8414TIP3   OH249436   5.918   3.275  11.460  0.4750 -0.1150 -0.0380
 8414TIP3    H149437   5.978   3.349  11.470  0.1281  0.2560 -0.6185
 8414TIP3    H249438   5.949   3.229  11.382 -0.1946  0.2851 -0.5511
 8415TIP3   OH249439   1.839   2.682  10.435  0.4637 -0.4987 -0.0975
 8415TIP3    H149440   1.910   2.671  10.498 -0.3942  0.3246  1.0640
 8415TIP3    H249441   1.880   2.722  10.359  1.2115  0.1829  0.6467
 8416TIP3   OH249442   1.991   5.670   9.693  0.1378 -0.4020 -0.0093
 8416TIP3    H149443   1.984   5.723   9.772  1.2744 -1.0732  0.5613
 8416TIP3    H249444   2.085   5.661   9.678 -0.0227 -2.0259 -0.2300
 8417TIP3   OH249445   3.412   4.943  11.344  0.0956  0.0480  0.0089
 8417TIP3    H149446   3.365   5.025  11.329  1.4722  0.5984 -1.7176
 8417TIP3    H249447   3.348   4.885  11.384 -1.0425  1.8076  0.8577
 8418TIP3   OH249448   3.207   4.981   9.642  0.1260 -0.2587 -0.0807
 8418TIP3    H149449   3.136   4.970   9.579 -0.1219  0.4370  0.0756
 8418TIP3    H249450   3.248   4.894   9.647 -0.6754 -0.6503 -0.2054
 8419TIP3   OH249451   1.728   3.903  11.614  0.0918 -0.4877  0.5171
 8419TIP3    H149452   1.816   3.921  11.647 -0.1140  0.0803  0.7759
 8419TIP3    H249453   1.731   3.931  11.522  0.2657 -0.7570  0.4387
 8420TIP3   OH249454   0.367   5.840  10.028  0.0114 -0.1657  0.1205
 8420TIP3    H149455   0.401   5.801  10.108  1.2654  2.6257  1.0728
 8420TIP3    H249456   0.443   5.845   9.969  0.5841  2.7987  0.9174
 8421TIP3   OH249457   5.045   0.807  12.759 -0.2860 -0.4124  0.6526
 8421TIP3    H149458   4.990   0.874  12.718  0.7994 -0.9093 -1.7801
 8421TIP3    H249459   5.039   0.732  12.700  2.4402 -0.7000  0.6206
 8422TIP3   OH249460   3.467   1.483  12.300 -0.1801  0.6359  0.0321
 8422TIP3    H149461   3.382   1.472  12.342  0.2026 -0.0540  0.6441
 8422TIP3    H249462   3.471   1.412  12.236  0.0927  0.4340  0.2723
 8423TIP3   OH249463   1.627   5.973  11.778  0.3591 -0.0765  0.1839
 8423TIP3    H149464   1.655   5.881  11.774  2.2704  0.5064 -0.5978
 8423TIP3    H249465   1.696   6.021  11.733 -0.7552  1.7379  0.3368
 8424TIP3   OH249466   5.940   4.386  11.645 -0.0071 -0.5120  0.7616
 8424TIP3    H149467   6.014   4.363  11.588  0.5285 -0.7392  1.5286
 8424TIP3    H249468   5.971   4.461  11.695 -1.1387  0.8804 -0.5239
 8425TIP3   OH249469   0.948   6.040  13.148  0.4343  0.0836 -0.5840
 8425TIP3    H149470   0.991   5.971  13.199  2.4445  0.7541 -1.2906
 8425TIP3    H249471   1.006   6.116  13.157 -2.0723  1.9801  0.7685
 8426TIP3   OH249472   5.773   3.358  12.190 -0.2015  0.4727 -0.1963
 8426TIP3    H149473   5.766   3.328  12.100  1.4575  0.3645 -0.3275
 8426TIP3    H249474   5.799   3.280  12.240 -0.2814  0.7077  0.2195
 8427TIP3   OH249475   4.251   0.685  10.484  0.1228 -0.3660  0.1603
 8427TIP3    H149476   4.302   0.753  10.439  0.2666 -0.5722  0.0141
 8427TIP3    H249477   4.275   0.604  10.440  1.3697 -0.7800  1.5479
 8428TIP3   OH249478   3.559   0.703  12.895  0.3499 -0.0734 -0.0754
 8428TIP3    H149479   3.478   0.691  12.945  0.9510 -0.0420  0.9328
 8428TIP3    H249480   3.621   0.642  12.934  1.7363  2.0767  1.2673
 8429TIP3   OH249481   2.381   5.667  12.020  0.5097  0.0996  0.2850
 8429TIP3    H149482   2.364   5.694  12.111  0.6291  0.2192  0.2719
 8429TIP3    H249483   2.404   5.747  11.975 -1.9030  0.4583 -0.4328
 8430TIP3   OH249484   0.300   2.333  13.362  0.4276  0.1928  0.2833
 8430TIP3    H149485   0.367   2.277  13.324  1.0628  0.6067  0.7725
 8430TIP3    H249486   0.265   2.384  13.289  0.7493  0.0812  0.0543
 8431TIP3   OH249487   3.343   4.699  10.488  0.2993  0.5498  0.1455
 8431TIP3    H149488   3.360   4.790  10.464 -0.8248  0.1202 -2.6754
 8431TIP3    H249489   3.372   4.648  10.412 -1.2968 -1.2212  0.6472
 8432TIP3   OH249490   4.967   0.551  10.717  0.0635 -0.4958 -0.1089
 8432TIP3    H149491   4.937   0.617  10.780  0.8436 -0.5850  0.3742
 8432TIP3    H249492   4.971   0.470  10.768 -0.8829 -0.9290 -0.6974
 8433TIP3   OH249493   0.523   2.631   9.383  0.2236  0.1391  0.6576
 8433TIP3    H149494   0.575   2.603   9.307  1.3445  0.7956  1.1607
 8433TIP3    H249495   0.457   2.562   9.392 -0.4749  0.4673 -1.4031
 8434TIP3   OH249496   0.293   3.751   9.992  0.0731  0.1372 -0.4868
 8434TIP3    H149497   0.374   3.802   9.993  0.3433 -0.2851 -0.7942
 8434TIP3    H249498   0.317   3.665  10.026 -0.5525  0.4486  0.8190
 8435TIP3   OH249499   5.506   3.162  12.285  1.1325 -0.0538 -0.2540
 8435TIP3    H149500   5.522   3.137  12.376  1.1897 -0.5147 -0.3871
 8435TIP3    H249501   5.414   3.190  12.284  0.7322 -1.2790 -0.3009
 8436TIP3   OH249502   2.332   3.517  10.502 -0.0240  0.3753  0.1340
 8436TIP3    H149503   2.316   3.464  10.424  0.9819 -1.1052  0.8837
 8436TIP3    H249504   2.385   3.461  10.558 -1.6462  0.9472  2.3864
 8437TIP3   OH249505   3.738   1.298  10.008  0.1567  0.0986 -0.0813
 8437TIP3    H149506   3.826   1.297  10.046  0.2590 -0.8997 -0.3062
 8437TIP3    H249507   3.740   1.370   9.944  1.0617 -0.3871 -0.6308
 8438TIP3   OH249508   0.676   5.357  11.635 -0.1106  0.0294 -0.6813
 8438TIP3    H149509   0.633   5.272  11.629 -0.1774  0.0880 -1.0827
 8438TIP3    H249510   0.673   5.380  11.728  0.5072 -0.7202 -0.4608
 8439TIP3   OH249511   6.537   5.195  12.579 -0.1958  0.4495  0.1730
 8439TIP3    H149512   6.527   5.184  12.484 -0.3589  0.1283  0.2243
 8439TIP3    H249513   6.454   5.163  12.615  0.2109 -0.2897  0.4771
 8440TIP3   OH249514   2.934   2.504  10.887 -0.5947 -0.2361 -0.2301
 8440TIP3    H149515   2.950   2.582  10.833 -1.8496 -0.5124 -1.0330
 8440TIP3    H249516   2.859   2.461  10.845 -0.3853 -1.4813  0.6396
 8441TIP3   OH249517   3.893   2.875  11.219 -0.3369 -0.2285  0.0928
 8441TIP3    H149518   3.870   2.967  11.215  0.6093  0.0645  0.8469
 8441TIP3    H249519   3.847   2.842  11.296 -0.4904 -0.3325 -0.0430
 8442TIP3   OH249520   1.383   2.911   9.757 -0.2889  0.2852  0.3329
 8442TIP3    H149521   1.424   2.985   9.801  0.5102 -0.4160  0.7878
 8442TIP3    H249522   1.445   2.839   9.766 -0.1040  0.0871 -1.9274
 8443TIP3   OH249523   4.864   3.212  10.784 -0.0120  0.2344  0.2857
 8443TIP3    H149524   4.874   3.117  10.790 -0.5783  0.2294  1.2507
 8443TIP3    H249525   4.818   3.226  10.701  1.2198 -0.2330 -0.5001
 8444TIP3   OH249526   2.174   1.887  10.218 -0.2046  0.5516 -0.3900
 8444TIP3    H149527   2.218   1.918  10.297 -0.6907  0.5946 -0.1320
 8444TIP3    H249528   2.188   1.792  10.219 -1.6075  0.3354  0.6306
 8445TIP3   OH249529   2.073   5.295  10.681 -0.0286 -0.1657 -0.4856
 8445TIP3    H149530   2.028   5.365  10.633 -0.7964  0.1460  0.6585
 8445TIP3    H249531   2.035   5.297  10.769  0.5850 -1.4314 -0.1619
 8446TIP3   OH249532   0.771   4.201   9.852 -0.7364  0.0534  0.0516
 8446TIP3    H149533   0.713   4.125   9.842  0.6005 -0.7270 -2.5585
 8446TIP3    H249534   0.723   4.274   9.813 -0.7331 -0.1604 -0.3498
 8447TIP3   OH249535   0.179   0.094   9.657 -0.6862 -0.2714  0.4081
 8447TIP3    H149536   0.255   0.081   9.713 -0.7070  0.4444  0.6127
 8447TIP3    H249537   0.172   0.189   9.647 -0.7708 -0.3748 -0.6807
 8448TIP3   OH249538   5.081   3.861  11.391  0.0205  0.4061 -0.3378
 8448TIP3    H149539   5.004   3.839  11.444  1.0965 -3.7580 -0.1087
 8448TIP3    H249540   5.045   3.883  11.305 -1.4824  0.6027  0.3001
 8449TIP3   OH249541   4.909   5.823   9.929 -0.4400 -0.4288  0.2863
 8449TIP3    H149542   4.955   5.759   9.875 -0.7219 -0.0857 -0.3682
 8449TIP3    H249543   4.971   5.844  10.000  0.4831  0.1316 -0.6620
 8450TIP3   OH249544   5.938   3.103  10.754  0.0512 -0.2436 -0.4469
 8450TIP3    H149545   5.980   3.035  10.702 -0.7315  0.1767 -1.6703
 8450TIP3    H249546   5.962   3.083  10.844  2.4925 -0.2917 -1.0267
 8451TIP3   OH249547   4.166   4.871  11.875 -0.1265  0.0804 -0.3927
 8451TIP3    H149548   4.254   4.835  11.887 -1.2249 -2.1595  1.6930
 8451TIP3    H249549   4.154   4.929  11.951 -0.4949  0.3094 -0.6273
 8452TIP3   OH249550   2.436   0.338  11.822 -0.1171 -0.2576  0.0262
 8452TIP3    H149551   2.405   0.428  11.829  0.4003 -0.1539  1.3356
 8452TIP3    H249552   2.405   0.295  11.901  0.2486 -1.0341 -0.2375
 8453TIP3   OH249553   5.079   3.553   9.985  0.0992  0.2282 -0.1131
 8453TIP3    H149554   5.135   3.475   9.985  1.4680  1.1506 -1.4275
 8453TIP3    H249555   5.011   3.533   9.921  0.2958  0.0186 -0.2592
 8454TIP3   OH249556   0.293   0.684  11.379 -0.1256 -0.0383 -0.3798
 8454TIP3    H149557   0.274   0.747  11.310 -0.1210 -0.0391 -0.3826
 8454TIP3    H249558   0.230   0.703  11.448 -2.0237 -1.8651 -1.5208
 8455TIP3   OH249559   0.417   1.163   9.580 -0.2324 -0.0930  0.5107
 8455TIP3    H149560   0.480   1.107   9.626 -0.2840 -0.6343 -0.0688
 8455TIP3    H249561   0.451   1.252   9.592  0.4263 -0.3449  0.5461
 8456TIP3   OH249562   3.095   0.634  10.622  0.3858 -0.4102  0.1555
 8456TIP3    H149563   3.069   0.704  10.561  1.3165  0.0468  0.2660
 8456TIP3    H249564   3.110   0.558  10.567  1.7006  0.1305 -0.2680
 8457TIP3   OH249565   0.768   6.597  10.807 -0.2147  0.1853 -0.6469
 8457TIP3    H149566   0.854   6.597  10.849 -0.8007 -0.2213  0.5900
 8457TIP3    H249567   0.734   6.508  10.820 -1.0338  0.4838 -0.6546
 8458TIP3   OH249568   5.051   4.829  11.800 -0.4680  0.1219  0.4800
 8458TIP3    H149569   5.069   4.914  11.838 -2.3993  1.1851 -0.8159
 8458TIP3    H249570   4.966   4.803  11.837 -0.6362 -0.4937 -0.2962
 8459TIP3   OH249571   2.463   3.583  10.979  0.4633  0.7578  0.5716
 8459TIP3    H149572   2.446   3.644  11.050 -1.8038  1.5173 -0.5064
 8459TIP3    H249573   2.453   3.636  10.899  2.2352 -0.2108 -0.3423
 8460TIP3   OH249574   2.959   3.582  12.003 -0.0583 -0.3168 -0.3942
 8460TIP3    H149575   2.993   3.545  12.084 -1.0437  1.1676  0.7448
 8460TIP3    H249576   2.999   3.669  11.998 -0.7633 -0.0168 -0.9849
 8461TIP3   OH249577   2.645   1.372  10.541 -0.6296 -0.3061 -0.6333
 8461TIP3    H149578   2.710   1.350  10.474  0.3709 -2.3047  0.8867
 8461TIP3    H249579   2.663   1.464  10.562  0.5235 -0.3074 -1.4900
 8462TIP3   OH249580   3.776   6.296  10.364  0.0200 -0.1930 -0.3347
 8462TIP3    H149581   3.731   6.242  10.429  0.0507 -0.7203 -0.7409
 8462TIP3    H249582   3.867   6.266  10.367 -0.1464 -0.8115 -1.2090
 8463TIP3   OH249583   4.501   6.472  10.904 -0.3495 -0.1029 -0.1007
 8463TIP3    H149584   4.509   6.376  10.905 -1.3687 -0.2073 -1.0335
 8463TIP3    H249585   4.452   6.492  10.825  0.6965  1.2779 -0.4397
 8464TIP3   OH249586   4.953   2.767   9.921 -0.1839  0.6056 -0.2532
 8464TIP3    H149587   4.963   2.701   9.989 -1.1948  0.1366 -0.5449
 8464TIP3    H249588   4.992   2.846   9.959 -1.1860  0.4942  1.0776
 8465TIP3   OH249589   0.124   5.098  11.085  0.2522  0.6388  0.2766
 8465TIP3    H149590   0.148   5.034  11.152 -0.4042 -0.1543 -0.2326
 8465TIP3    H249591   0.172   5.070  11.007 -1.5351 -0.4198 -0.4959
 8466TIP3   OH249592   0.911   5.273  13.404  0.2984 -0.1968  0.4655
 8466TIP3    H149593   0.981   5.319  13.449  0.7899  0.3222 -0.7720
 8466TIP3    H249594   0.843   5.339  13.391 -0.1634 -0.5369  1.0970
 8467TIP3   OH249595   1.833   0.038   9.712  0.1216 -0.4703 -0.4229
 8467TIP3    H149596   1.809  -0.000   9.628 -0.0299  0.4054 -0.7943
 8467TIP3    H249597   1.831   0.133   9.696 -1.6676 -0.2162  1.0231
 8468TIP3   OH249598   5.170   5.213   9.624  0.7192  0.2184  0.0301
 8468TIP3    H149599   5.198   5.283   9.683 -0.1510  0.3072  0.3441
 8468TIP3    H249600   5.250   5.161   9.610  1.2083  0.8760  0.3359
 8469TIP3   OH249601   0.318   4.048  11.175 -0.0167  0.0465  0.4852
 8469TIP3    H149602   0.260   4.106  11.126 -0.1195  0.9730  1.6656
 8469TIP3    H249603   0.273   3.964  11.176 -1.3747  0.7692  1.4370
 8470TIP3   OH249604   6.423   0.302  10.436  0.1621  0.5912 -0.0669
 8470TIP3    H149605   6.513   0.332  10.428 -0.4319  2.6278  0.2769
 8470TIP3    H249606   6.423   0.242  10.510  1.3177  0.1281 -0.4308
 8471TIP3   OH249607   0.284   4.489  10.103 -0.0751  0.4605 -0.1207
 8471TIP3    H149608   0.368   4.512  10.064 -1.1105  2.2270 -1.4834
 8471TIP3    H249609   0.288   4.395  10.118  1.6304  0.3015 -1.3987
 8472TIP3   OH249610   1.840   0.740  10.209 -0.3723  0.6069 -0.4687
 8472TIP3    H149611   1.823   0.670  10.273  1.7990  0.9899  0.6450
 8472TIP3    H249612   1.933   0.731  10.188 -0.5376  1.8687 -1.9295
 8473TIP3   OH249613   1.790   1.837  12.206 -0.3186 -0.3198  0.0027
 8473TIP3    H149614   1.758   1.763  12.154 -2.0398  0.2647  0.1486
 8473TIP3    H249615   1.720   1.903  12.199  0.2713  0.5126  1.4767
 8474TIP3   OH249616   2.773   3.150  12.184 -0.4466 -0.2985 -0.7496
 8474TIP3    H149617   2.795   3.134  12.092  0.4824 -0.0514 -0.5877
 8474TIP3    H249618   2.708   3.219  12.182 -1.7524 -1.4996 -1.2914
 8475TIP3   OH249619   1.823   3.350  12.842  0.0213  0.2001 -0.2902
 8475TIP3    H149620   1.857   3.423  12.792 -0.9896 -0.0401 -1.3574
 8475TIP3    H249621   1.901   3.300  12.867  0.7205  1.5898  0.4310
 8476TIP3   OH249622   4.473   3.536  10.710 -0.2738  0.5799 -0.2525
 8476TIP3    H149623   4.528   3.523  10.788 -0.3616 -1.2312 -0.4462
 8476TIP3    H249624   4.534   3.565  10.642  0.3179 -0.5539 -0.2312
 8477TIP3   OH249625   4.848   3.856  10.367  0.0752 -0.3784  0.6182
 8477TIP3    H149626   4.942   3.869  10.382  0.4539 -1.3934 -0.6149
 8477TIP3    H249627   4.844   3.779  10.311 -1.3821  0.6769 -0.8327
 8478TIP3   OH249628   1.156   5.888  11.047 -0.2142  0.7638 -0.3022
 8478TIP3    H149629   1.103   5.857  10.973  0.8208  0.6340 -1.0247
 8478TIP3    H249630   1.096   5.937  11.102 -0.9592  1.1179 -1.3963
 8479TIP3   OH249631   6.283   1.516  11.899 -0.4029 -0.5079 -0.1781
 8479TIP3    H149632   6.231   1.437  11.915 -2.4833  0.3189 -2.1500
 8479TIP3    H249633   6.225   1.588  11.924  0.1524  0.4447 -1.5233
 8480TIP3   OH249634   3.531   2.085  10.243 -0.4112 -0.2713  0.9455
 8480TIP3    H149635   3.579   2.147  10.188  1.8108 -2.9484 -0.3869
 8480TIP3    H249636   3.518   2.131  10.326 -0.3177  2.4850 -0.4288
 8481TIP3   OH249637   3.815   5.305  10.627  0.1814 -0.4196 -0.8271
 8481TIP3    H149638   3.907   5.307  10.599 -0.0132 -1.6428 -1.6447
 8481TIP3    H249639   3.813   5.357  10.707  1.3396  0.7104 -1.4856
 8482TIP3   OH249640   0.698   5.000  11.589 -0.1413 -0.7702 -0.4927
 8482TIP3    H149641   0.732   4.965  11.507 -0.8439 -2.4181 -0.1157
 8482TIP3    H249642   0.763   4.977  11.655  0.2032  0.1500 -0.4951
 8483TIP3   OH249643   4.458   2.945  10.508 -0.5032 -0.2296 -0.1127
 8483TIP3    H149644   4.480   2.982  10.594 -1.3808  0.5587 -0.2041
 8483TIP3    H249645   4.463   2.851  10.521 -2.9383 -0.2234  1.5018
 8484TIP3   OH249646   1.006   6.240   9.695  0.0961  0.3169  0.2893
 8484TIP3    H149647   1.077   6.242   9.759 -1.2614  0.8640  1.8458
 8484TIP3    H249648   1.026   6.313   9.636  0.8875  0.3994  0.6440
 8485TIP3   OH249649   4.833   0.791  11.886 -0.0554 -0.1186 -0.3673
 8485TIP3    H149650   4.805   0.764  11.799 -0.8204 -1.6364  0.3110
 8485TIP3    H249651   4.870   0.711  11.925  1.1964  0.7811  0.3429
 8486TIP3   OH249652   6.419   3.728  11.689 -0.0186 -0.2944  0.1400
 8486TIP3    H149653   6.463   3.757  11.770 -0.2572  0.4814 -0.0002
 8486TIP3    H249654   6.491   3.706  11.630  0.1591 -0.7757  0.5287
 8487TIP3   OH249655   2.919   5.818   9.682  0.1596 -0.2024 -0.0043
 8487TIP3    H149656   2.972   5.746   9.648  0.8687 -0.3808  1.3756
 8487TIP3    H249657   2.836   5.776   9.707 -0.4821 -0.0171 -1.6843
 8488TIP3   OH249658   0.802   2.402  10.466 -0.2100  0.0235 -0.7376
 8488TIP3    H149659   0.774   2.435  10.552  0.1920 -1.0780 -0.1675
 8488TIP3    H249660   0.897   2.408  10.467 -0.1570 -0.7378 -0.7905
 8489TIP3   OH249661   5.043   5.144  11.043  0.3237 -0.0731  0.5899
 8489TIP3    H149662   5.056   5.173  11.134  0.1651 -0.3810  0.7159
 8489TIP3    H249663   4.948   5.129  11.037  0.3321 -0.0263  0.3667
 8490TIP3   OH249664   5.281   5.412   9.832 -0.1485 -0.1744 -0.1490
 8490TIP3    H149665   5.338   5.482   9.799 -0.2919 -0.1717 -0.3901
 8490TIP3    H249666   5.338   5.336   9.839  0.4290  0.3638  1.6943
 8491TIP3   OH249667   1.284   2.881  11.381  0.0447  0.3347  0.3742
 8491TIP3    H149668   1.192   2.865  11.359 -0.3252  0.5521  1.6805
 8491TIP3    H249669   1.302   2.968  11.345 -0.0903  0.0804 -0.3349
 8492TIP3   OH249670   1.506   4.006   9.935  0.5562 -0.0232  0.5015
 8492TIP3    H149671   1.540   4.041   9.853 -0.7779  0.3287  0.0816
 8492TIP3    H249672   1.577   3.951   9.968  0.3703 -1.9132 -1.9405
 8493TIP3   OH249673   3.746   6.164  11.104 -0.8706 -0.4180  0.2904
 8493TIP3    H149674   3.653   6.149  11.091 -0.9888 -0.2673  0.9039
 8493TIP3    H249675   3.753   6.188  11.197 -0.1514 -1.0034  0.3956
 8494TIP3   OH249676   0.382   1.955  11.610 -0.0013 -0.2228  0.6402
 8494TIP3    H149677   0.421   1.954  11.522  0.2491 -0.0161  0.7479
 8494TIP3    H249678   0.294   1.918  11.598 -1.1458  2.5223 -0.2523
 8495TIP3   OH249679   1.454   1.309   9.794 -0.2332 -0.3515  0.1436
 8495TIP3    H149680   1.515   1.242   9.764  0.7859  0.3826  0.5240
 8495TIP3    H249681   1.459   1.306   9.890 -0.8754 -0.3567  0.1820
 8496TIP3   OH249682   0.492   6.561  12.366 -0.3174  0.0478  0.5226
 8496TIP3    H149683   0.508   6.628  12.300 -2.7868  1.1482  0.9194
 8496TIP3    H249684   0.415   6.514  12.334 -0.2113 -0.8603  1.5317
 8497TIP3   OH249685   0.780   5.522  13.331 -0.1672  0.0646  0.0985
 8497TIP3    H149686   0.690   5.551  13.346  0.0218  1.3101 -1.1117
 8497TIP3    H249687   0.834   5.596  13.357  0.4532 -0.1806 -0.4710
 8498TIP3   OH249688   2.192   1.057  11.055  0.6651 -0.6642 -0.1351
 8498TIP3    H149689   2.179   1.099  11.140  1.7369  0.4698 -0.5037
 8498TIP3    H249690   2.282   1.078  11.031  0.6310 -1.6292 -1.2058
 8499TIP3   OH249691   2.223   6.269  12.316 -0.1184  0.2111 -0.1754
 8499TIP3    H149692   2.265   6.337  12.369  1.7243 -1.2790  0.3756
 8499TIP3    H249693   2.259   6.187  12.349 -1.8218 -1.0290 -1.2212
 8500TIP3   OH249694   6.255   4.560  13.786 -0.2525 -0.0429  0.0084
 8500TIP3    H149695   6.346   4.585  13.801 -0.1508 -0.2767 -0.2252
 8500TIP3    H249696   6.259   4.488  13.723 -0.6101  0.0825 -0.1618
 8501TIP3   OH249697   0.939   6.516  11.594 -0.7072 -0.0290  0.6111
 8501TIP3    H149698   0.880   6.577  11.550  1.3433  2.9897  1.7063
 8501TIP3    H249699   0.882   6.447  11.628 -2.9378  0.1601 -2.3184
 8502TIP3   OH249700   1.718   1.129  11.106 -0.2547 -0.0723 -0.0897
 8502TIP3    H149701   1.679   1.063  11.163  0.2139 -0.9091 -0.7055
 8502TIP3    H249702   1.669   1.123  11.025  0.1852 -0.0983 -0.3592
 8503TIP3   OH249703   2.473   1.741   9.722  0.2251 -0.2545  0.2023
 8503TIP3    H149704   2.510   1.783   9.645 -0.3568  1.4814  0.8126
 8503TIP3    H249705   2.489   1.803   9.793  1.0438 -1.9598  1.5611
 8504TIP3   OH249706   4.064   2.400  10.761 -1.1136 -0.4273  0.0517
 8504TIP3    H149707   4.090   2.378  10.850 -2.4053  1.9686  1.1257
 8504TIP3    H249708   3.985   2.347  10.746 -1.3841 -0.2200  0.6866
 8505TIP3   OH249709   5.823   6.444  10.719  0.4900 -0.1742 -0.1646
 8505TIP3    H149710   5.822   6.509  10.790 -0.5767 -0.4608  0.0973
 8505TIP3    H249711   5.768   6.482  10.651  2.0471  0.4081 -1.1611
 8506TIP3   OH249712   1.150   0.499  10.645  0.0530 -0.8682  0.3151
 8506TIP3    H149713   1.206   0.572  10.618 -0.1677 -1.4477 -1.8837
 8506TIP3    H249714   1.185   0.473  10.730 -0.0097  1.8905  1.2845
 8507TIP3   OH249715   3.035   0.272  10.611  0.4641  0.1534 -0.2097
 8507TIP3    H149716   2.957   0.219  10.627  0.6830 -0.5756 -1.3759
 8507TIP3    H249717   3.072   0.287  10.698  0.1501 -1.2729  0.2100
 8508TIP3   OH249718   2.493   0.795  10.557 -0.2046  0.1051 -0.1763
 8508TIP3    H149719   2.446   0.799  10.640 -0.4568  1.9364 -0.3679
 8508TIP3    H249720   2.434   0.836  10.493  1.6073  2.5826 -0.4021
 8509TIP3   OH249721   2.515   4.207   9.927 -0.1492  0.4453 -0.1704
 8509TIP3    H149722   2.454   4.228   9.856 -0.8918 -0.7521  0.0686
 8509TIP3    H249723   2.586   4.159   9.884 -1.0389 -1.0800 -0.0402
 8510TIP3   OH249724   4.460   4.869  11.935  0.0599  0.0139  0.5195
 8510TIP3    H149725   4.521   4.912  11.995  1.0288 -0.5401 -0.0544
 8510TIP3    H249726   4.503   4.872  11.850 -1.6162  1.4569 -0.3525
 8511TIP3   OH249727   0.409   1.691  11.084  0.2278  0.0864  0.1650
 8511TIP3    H149728   0.400   1.602  11.050 -0.4660  0.0930  0.3240
 8511TIP3    H249729   0.434   1.743  11.008 -1.2100  0.0799 -0.3385
 8512TIP3   OH249730   4.556   5.269  12.180 -0.3372 -0.4126 -0.2197
 8512TIP3    H149731   4.574   5.350  12.134  0.4662  1.3137  2.8319
 8512TIP3    H249732   4.467   5.280  12.215  0.1503 -0.3032  1.0728
 8513TIP3   OH249733   0.519   1.544  10.875 -0.5843 -0.2864 -0.1005
 8513TIP3    H149734   0.549   1.541  10.785  0.8775  2.1983  0.2171
 8513TIP3    H249735   0.539   1.457  10.910  1.3705 -0.4290 -1.4295
 8514TIP3   OH249736   5.488   4.603  10.757 -0.0447 -0.0992  0.1420
 8514TIP3    H149737   5.579   4.591  10.732 -0.2808  0.5850 -1.1127
 8514TIP3    H249738   5.475   4.698  10.758 -0.9794 -0.2080 -0.6156
 8515TIP3   OH249739   2.984   3.353   9.732 -0.0526  0.6947 -0.0643
 8515TIP3    H149740   3.053   3.375   9.670  0.9327 -1.0076  0.3536
 8515TIP3    H249741   2.939   3.436   9.749  1.0906  1.6087 -1.2977
 8516TIP3   OH249742   1.008   0.643  11.438  0.2660 -0.3335 -0.1344
 8516TIP3    H149743   1.015   0.662  11.345  1.1565 -2.3812 -0.5404
 8516TIP3    H249744   0.920   0.606  11.448 -0.2864  0.9995  0.0854
 8517TIP3   OH249745   6.476   1.667  12.344 -0.4301 -0.6520 -0.0396
 8517TIP3    H149746   6.417   1.597  12.371  0.2920 -0.4113  2.4021
 8517TIP3    H249747   6.561   1.625  12.334 -0.4607 -0.5258 -0.8595
 8518TIP3   OH249748   5.467   5.365  10.276  0.2904  0.4054  0.0944
 8518TIP3    H149749   5.539   5.345  10.217  1.0876 -0.3102  1.2622
 8518TIP3    H249750   5.435   5.450  10.248  0.0602 -0.2828 -1.9021
 8519TIP3   OH249751   2.514   0.889  11.594 -0.4532 -0.4965  0.2624
 8519TIP3    H149752   2.591   0.881  11.651 -0.3617  0.4995  0.3077
 8519TIP3    H249753   2.440   0.896  11.654 -0.6443 -1.8537  0.2151
 8520TIP3   OH249754   2.619   0.935  10.827 -0.1635 -0.3278  0.5159
 8520TIP3    H149755   2.677   0.870  10.786  2.2755  2.0205 -0.0461
 8520TIP3    H249756   2.632   0.923  10.921 -0.0387 -0.9233  0.4258
 8521TIP3   OH249757   5.666   2.931   9.842  0.1228 -0.6827  0.7727
 8521TIP3    H149758   5.753   2.962   9.816 -0.0241 -2.1906 -1.8170
 8521TIP3    H249759   5.609   3.008   9.834  1.1567  0.3669  2.6602
 8522TIP3   OH249760   0.689   4.602  12.133 -0.0537  0.2403  0.5922
 8522TIP3    H149761   0.669   4.518  12.176 -0.8611  0.5969  0.9254
 8522TIP3    H249762   0.619   4.661  12.162 -0.6243  0.4939 -1.1929
 8523TIP3   OH249763   6.382   2.300  10.721 -0.7355 -0.5783  0.7873
 8523TIP3    H149764   6.304   2.346  10.753 -0.5720  0.2836 -0.0076
 8523TIP3    H249765   6.455   2.356  10.745 -0.3552 -1.3226  1.4116
 8524TIP3   OH249766   4.393   0.812  12.239  0.2128 -0.2696  0.1306
 8524TIP3    H149767   4.381   0.875  12.311  1.4449  0.1429 -0.0131
 8524TIP3    H249768   4.320   0.751  12.250  0.0286  0.1285  1.3692
 8525TIP3   OH249769   2.655   3.108  10.515 -0.6142  0.2121  0.0106
 8525TIP3    H149770   2.689   3.061  10.591 -1.5528 -1.5318 -0.5873
 8525TIP3    H249771   2.597   3.045  10.472 -1.5160  1.7614 -1.1524
 8526TIP3   OH249772   0.112   2.948  10.523  0.2329 -0.5702  0.2809
 8526TIP3    H149773   0.122   3.040  10.498  0.0832 -0.3304  1.0941
 8526TIP3    H249774   0.162   2.901  10.456  0.1840  0.0854 -0.2350
 8527TIP3   OH249775   1.683   5.440  11.429 -0.6277 -0.8198  0.3308
 8527TIP3    H149776   1.628   5.448  11.507  0.1422  0.7073  0.7784
 8527TIP3    H249777   1.770   5.421  11.463 -0.4597 -1.0413 -0.2147
 8528TIP3   OH249778   3.141   4.916  12.085 -0.5901  0.2969  0.8777
 8528TIP3    H149779   3.155   4.842  12.143  0.4786 -0.4953 -0.3429
 8528TIP3    H249780   3.119   4.877  12.001 -0.4407  1.3712  0.3210
 8529TIP3   OH249781   1.199   2.470  12.463  0.2113  0.5298  0.8203
 8529TIP3    H149782   1.287   2.492  12.492 -0.0081  1.7740  0.6212
 8529TIP3    H249783   1.190   2.376  12.479  1.6290  0.3539  0.6719
 8530TIP3   OH249784   2.977   0.469  10.392  0.0409  0.3414  0.5604
 8530TIP3    H149785   3.016   0.390  10.429 -0.1731  0.4333  0.9889
 8530TIP3    H249786   2.982   0.457  10.298 -1.0106 -0.6802  0.6210
 8531TIP3   OH249787   0.129   5.991  10.056 -0.3119 -0.4845  0.4041
 8531TIP3    H149788   0.217   5.957  10.042 -0.7633 -2.6415  2.2661
 8531TIP3    H249789   0.120   6.062   9.991  2.7303 -0.2115  0.1412
 8532TIP3   OH249790   2.040   4.351  10.059 -0.4517  0.5243  0.0454
 8532TIP3    H149791   1.946   4.338  10.046 -0.4671  1.0601 -0.4143
 8532TIP3    H249792   2.057   4.318  10.147 -1.0612  0.3925  0.1197
 8533TIP3   OH249793   5.755   4.560  12.081 -0.2244  0.0523 -0.3634
 8533TIP3    H149794   5.661   4.540  12.090 -0.2948  0.9342  1.2283
 8533TIP3    H249795   5.760   4.655  12.084  0.8270 -0.0074  1.2508
 8534TIP3   OH249796   6.426   6.544   9.372  0.0670 -0.6210 -0.4482
 8534TIP3    H149797   6.497   6.574   9.314 -0.7112  0.3875 -0.9110
 8534TIP3    H249798   6.456   6.568   9.460  0.6127 -0.8358 -0.5710
 8535TIP3   OH249799   4.830   3.100   9.608  0.1006  0.9043 -0.3240
 8535TIP3    H149800   4.746   3.097   9.561  0.6287  0.0653 -1.2389
 8535TIP3    H249801   4.880   3.027   9.573  0.6597  0.4597  1.3211
 8536TIP3   OH249802   2.945   4.140   9.390  0.2562  0.0791 -0.2548
 8536TIP3    H149803   2.940   4.221   9.340  0.9230  0.2226 -0.0996
 8536TIP3    H249804   2.993   4.163   9.469 -0.1749 -0.3096  0.1253
 8537TIP3   OH249805   1.394   3.185  12.214 -0.3941  0.4839 -0.4897
 8537TIP3    H149806   1.374   3.099  12.178  0.1596  0.5979 -1.0909
 8537TIP3    H249807   1.320   3.205  12.271 -0.9651 -0.0001 -1.0479
 8538TIP3   OH249808   2.431   5.672   9.982  0.3963 -0.2601  0.0958
 8538TIP3    H149809   2.362   5.608   9.999  1.2918 -0.9411  1.3783
 8538TIP3    H249810   2.413   5.744  10.042 -0.2158  0.3881 -0.8547
 8539TIP3   OH249811   3.275   3.856  10.875  0.3457  0.2246  0.1948
 8539TIP3    H149812   3.206   3.919  10.857 -0.1776 -0.7300 -1.3085
 8539TIP3    H249813   3.342   3.906  10.923 -0.7442  1.5010  0.4249
 8540TIP3   OH249814   1.280   2.514  11.371  0.0843 -0.3714 -0.3402
 8540TIP3    H149815   1.296   2.564  11.451  0.3120  1.1913 -1.3306
 8540TIP3    H249816   1.186   2.520  11.357  0.0196 -0.7960 -0.1056
 8541TIP3   OH249817   4.933   4.889  10.273 -0.2416 -0.3221 -0.3587
 8541TIP3    H149818   4.851   4.880  10.321 -0.3196 -0.0941 -0.4437
 8541TIP3    H249819   4.926   4.975  10.230  0.1221 -0.2118 -0.2074
 8542TIP3   OH249820   2.644   0.723  11.029 -0.2807  0.2182 -0.1769
 8542TIP3    H149821   2.724   0.670  11.035  1.2589  2.2177 -1.9024
 8542TIP3    H249822   2.601   0.692  10.949 -2.0807 -1.7914  1.4280
 8543TIP3   OH249823   4.602   3.718  12.048 -0.2106 -0.1363  0.1605
 8543TIP3    H149824   4.571   3.680  12.131 -1.2913 -0.7036 -0.4775
 8543TIP3    H249825   4.526   3.713  11.990  0.6930 -0.2506 -1.0428
 8544TIP3   OH249826   1.767   0.801   9.367 -0.7438  0.1511  0.1324
 8544TIP3    H149827   1.828   0.765   9.303 -2.2285 -2.6450  0.1084
 8544TIP3    H249828   1.724   0.874   9.322  0.6591  0.4386 -0.7816
 8545TIP3   OH249829   4.218   5.503  11.793  0.6139  0.5928  0.1406
 8545TIP3    H149830   4.258   5.416  11.800 -1.0971 -0.3293 -1.0120
 8545TIP3    H249831   4.245   5.534  11.707  0.3321  0.7264  0.1004
 8546TIP3   OH249832   1.607   4.608  10.407  0.5206  0.2564 -0.0604
 8546TIP3    H149833   1.529   4.556  10.386 -0.0135  0.5753  1.0747
 8546TIP3    H249834   1.629   4.583  10.497  2.3140 -0.5437 -0.6653
 8547TIP3   OH249835   3.237   3.017  12.405 -0.2915  0.0277  0.2003
 8547TIP3    H149836   3.291   2.962  12.461 -0.8786 -1.2548 -0.4484
 8547TIP3    H249837   3.229   3.100  12.452 -2.0144 -1.4783  2.7561
 8548TIP3   OH249838   2.581   0.117  11.778  0.0515  0.1224 -0.5342
 8548TIP3    H149839   2.641   0.123  11.852 -0.1770 -0.7652 -0.2612
 8548TIP3    H249840   2.544   0.204  11.769  2.6997  1.2418 -1.8486
 8549TIP3   OH249841   0.668   2.182   9.610  0.2359  0.8528 -0.7445
 8549TIP3    H149842   0.712   2.097   9.621 -0.1528  0.6280 -0.8921
 8549TIP3    H249843   0.576   2.163   9.627 -0.0775  0.9341 -2.2019
 8550TIP3   OH249844   5.405   5.869  19.443  0.3156  0.5163 -0.2387
 8550TIP3    H149845   5.423   5.796  19.502  0.4544  1.8129  1.3740
 8550TIP3    H249846   5.317   5.851  19.410  0.0612 -0.0194  0.6899
 8551TIP3   OH249847   5.847   4.277  13.072  0.1124 -0.2964  0.4232
 8551TIP3    H149848   5.782   4.208  13.057  1.4740 -1.6087  0.2448
 8551TIP3    H249849   5.831   4.306  13.162 -1.2054 -0.0390  0.1140
 8552TIP3   OH249850   4.591   6.283   9.753  0.3371 -0.3782  0.1658
 8552TIP3    H149851   4.529   6.268   9.681  0.0628  1.4617 -0.0188
 8552TIP3    H249852   4.583   6.204   9.808 -1.0449 -0.8486 -0.6590
 8553TIP3   OH249853   0.153   3.191  11.311  0.0603 -0.1707 -0.1138
 8553TIP3    H149854   0.132   3.130  11.382 -0.8446  0.3078  0.0517
 8553TIP3    H249855   0.137   3.277  11.348 -0.3272  0.0931 -0.8600
 8554TIP3   OH249856   3.210   5.756   9.765 -0.0365 -0.7123  0.0292
 8554TIP3    H149857   3.297   5.717   9.750 -0.0879 -1.6183  1.7859
 8554TIP3    H249858   3.151   5.703   9.711  0.6004  0.6679 -2.1290
 8555TIP3   OH249859   0.188   4.539  11.747 -0.4881  0.3833 -0.1250
 8555TIP3    H149860   0.172   4.561  11.655  1.1974  1.2673 -0.2399
 8555TIP3    H249861   0.230   4.453  11.743 -2.2355 -0.5340 -0.0049
 8556TIP3   OH249862   1.291   5.098  11.457 -0.3192  0.1724 -0.2033
 8556TIP3    H149863   1.275   5.093  11.363 -0.2075 -0.2894 -0.1972
 8556TIP3    H249864   1.334   5.016  11.479 -0.3959  0.2543  0.2639
 8557TIP3   OH249865   4.437   4.045   9.711 -0.1361 -0.2333 -0.0476
 8557TIP3    H149866   4.490   3.988   9.767  0.6723  0.8532  0.3314
 8557TIP3    H249867   4.494   4.119   9.691 -0.7356 -0.1407 -1.5576
 8558TIP3   OH249868   1.535   2.673   9.792 -0.1490 -0.1601  0.4610
 8558TIP3    H149869   1.580   2.649   9.711  0.0516  0.2296  0.4550
 8558TIP3    H249870   1.581   2.625   9.860  1.7386  1.8965  0.7486
 8559TIP3   OH249871   4.986   0.968  11.113  0.5247  0.5129  0.2939
 8559TIP3    H149872   5.046   1.011  11.052 -0.7434  2.5166  0.3628
 8559TIP3    H249873   4.905   0.957  11.063 -0.2585  1.3990  1.3307
 8560TIP3   OH249874   2.741   4.214  12.117 -0.1652 -0.6823 -0.3103
 8560TIP3    H149875   2.736   4.253  12.205 -0.9599 -3.0643  0.7978
 8560TIP3    H249876   2.824   4.244  12.082  0.2867  0.1448  1.3676
 8561TIP3   OH249877   0.398   4.718  10.367 -0.8763 -0.2805 -0.5636
 8561TIP3    H149878   0.333   4.696  10.300 -1.1165  1.8331 -1.1029
 8561TIP3    H249879   0.366   4.800  10.405  1.3053  0.6856 -0.6521
 8562TIP3   OH249880   0.759   2.959  19.106 -0.6986 -0.4780  0.2459
 8562TIP3    H149881   0.805   3.008  19.038  0.0063 -1.6153 -0.1283
 8562TIP3    H249882   0.692   2.909  19.059 -1.2469 -0.0724  0.5869
 8563TIP3   OH249883   2.690   1.529   9.178  0.4255 -0.4428 -0.0415
 8563TIP3    H149884   2.783   1.519   9.199  1.0032 -1.3793 -2.6621
 8563TIP3    H249885   2.655   1.441   9.185  0.4007 -0.5959 -1.6244
 8564TIP3   OH249886   3.292   3.394   9.674 -0.4337  0.2871 -0.2685
 8564TIP3    H149887   3.332   3.325   9.621 -0.8163  0.8686 -1.3529
 8564TIP3    H249888   3.319   3.375   9.763 -0.5909 -1.3060 -0.5326
 8565TIP3   OH249889   1.224   2.300  11.553  0.1344  0.1093  0.1017
 8565TIP3    H149890   1.255   2.216  11.589 -1.2988 -0.4424  0.1334
 8565TIP3    H249891   1.246   2.295  11.460  0.5588 -0.0638  0.2078
 8566TIP3   OH249892   1.625   5.465   9.922 -0.1147  0.5508  0.2851
 8566TIP3    H149893   1.714   5.453   9.888  0.6367  2.0761  1.5902
 8566TIP3    H249894   1.584   5.380   9.911  2.4668 -1.1244  2.3774
 8567TIP3   OH249895   1.788   3.974   9.598 -0.3625 -0.1096  0.5231
 8567TIP3    H149896   1.767   4.028   9.674  0.8209  0.6951  0.2971
 8567TIP3    H249897   1.856   3.914   9.628  0.0375  0.1404  0.1294
 8568TIP3   OH249898   2.169   6.555   9.730  0.2828 -0.1977 -0.0391
 8568TIP3    H149899   2.198   6.555   9.822 -0.4336 -0.0908  0.1909
 8568TIP3    H249900   2.074   6.557   9.735  0.2514  0.6335 -0.7987
 8569TIP3   OH249901   1.507   5.468  12.233  0.1908  0.4029  0.3717
 8569TIP3    H149902   1.441   5.401  12.249  1.6947 -1.0386  0.9576
 8569TIP3    H249903   1.516   5.513  12.317  0.8104 -0.2555  0.6737
 8570TIP3   OH249904   1.714   6.090  12.921 -0.0183 -0.2561  0.0947
 8570TIP3    H149905   1.747   6.022  12.980  0.2917  0.7388  1.1084
 8570TIP3    H249906   1.647   6.136  12.972 -1.5486 -0.9448 -1.2260
 8571TIP3   OH249907   4.516   2.957  11.975  0.3145 -0.2540  0.0978
 8571TIP3    H149908   4.584   2.890  11.977  0.5599  0.0161  0.8265
 8571TIP3    H249909   4.543   3.016  11.905 -0.1806 -1.1877 -0.9265
 8572TIP3   OH249910   0.164   0.733  12.246 -0.0922 -0.7660 -0.1071
 8572TIP3    H149911   0.259   0.745  12.246 -0.1355 -0.3513 -1.0166
 8572TIP3    H249912   0.150   0.647  12.206 -0.1605 -0.0786 -1.6299
 8573TIP3   OH249913   1.903   3.932  10.206  0.3102  0.2037 -0.3561
 8573TIP3    H149914   1.972   3.908  10.144 -0.1440 -0.7053 -0.5197
 8573TIP3    H249915   1.944   3.996  10.264  1.2803 -0.3060 -0.4659
 8574TIP3   OH249916   4.964   4.987  11.400 -0.5194  0.1221 -0.1040
 8574TIP3    H149917   5.021   5.029  11.464  0.8962  0.9991 -1.8300
 8574TIP3    H249918   4.969   4.894  11.421  2.2050  0.0655 -0.5865
 8575TIP3   OH249919   1.124   0.092  12.873  0.6951  0.3154 -0.0887
 8575TIP3    H149920   1.193   0.137  12.824 -0.4189 -0.0550 -2.1130
 8575TIP3    H249921   1.044   0.140  12.851 -0.1882 -1.2849 -0.5031
 8576TIP3   OH249922   4.835   1.742  11.046  0.5789 -0.3888 -0.4003
 8576TIP3    H149923   4.779   1.694  10.985  1.4942 -1.0093 -0.7732
 8576TIP3    H249924   4.908   1.683  11.063 -0.0844 -0.6027  2.0442
 8577TIP3   OH249925   3.200   5.918  11.136  0.8120  0.3930 -0.3692
 8577TIP3    H149926   3.128   5.924  11.073  0.2708 -1.8203 -0.0366
 8577TIP3    H249927   3.204   6.005  11.175 -2.9608  0.1787  0.9331
 8578TIP3   OH249928   2.843   2.215  11.479  0.4799 -0.3032 -0.1926
 8578TIP3    H149929   2.773   2.202  11.415 -0.3387 -1.9338  0.9411
 8578TIP3    H249930   2.808   2.278  11.541  1.0526  0.8436 -1.0047
 8579TIP3   OH249931   2.958   4.346  11.833  0.2728 -0.2424 -0.2831
 8579TIP3    H149932   2.919   4.333  11.747 -0.3969  1.4097 -0.2654
 8579TIP3    H249933   2.908   4.418  11.871  1.6900  0.2250  0.7815
 8580TIP3   OH249934   2.001   4.642  10.966  0.4265 -0.1676  0.0345
 8580TIP3    H149935   1.992   4.708  10.898  3.5828 -0.9845 -1.4054
 8580TIP3    H249936   2.078   4.591  10.939  0.7820 -1.6480  3.3275
 8581TIP3   OH249937   3.389   0.686   9.784  0.4009 -0.2008  0.4208
 8581TIP3    H149938   3.314   0.645   9.828  1.4281 -2.8501 -0.1168
 8581TIP3    H249939   3.362   0.692   9.692  0.7522 -1.0001  0.2568
 8582TIP3   OH249940   6.156   1.639  10.726  0.0023 -0.3701 -0.2363
 8582TIP3    H149941   6.080   1.605  10.680  1.4712 -2.0816 -1.5599
 8582TIP3    H249942   6.163   1.584  10.804  0.2523 -0.6541 -0.4571
 8583TIP3   OH249943   6.487   6.567  12.535  0.0152  0.3113 -0.2456
 8583TIP3    H149944   6.396   6.595  12.548 -0.3890 -0.9412 -0.3006
 8583TIP3    H249945   6.490   6.534  12.445  0.3525 -0.3269 -0.0016
 8584TIP3   OH249946   1.462   1.178  10.036  0.3304  0.7051 -0.6921
 8584TIP3    H149947   1.409   1.106  10.001  0.2208  1.1462 -1.4730
 8584TIP3    H249948   1.439   1.182  10.129  1.2887 -1.0818 -0.3224
 8585TIP3   OH249949   1.406   4.342  12.482  0.2509  0.5620 -0.2060
 8585TIP3    H149950   1.377   4.379  12.565 -0.5508 -0.1295 -0.1655
 8585TIP3    H249951   1.474   4.280  12.506  1.2757  1.6403 -0.2357
 8586TIP3   OH249952   3.080   4.800   9.936  0.1855 -0.0249 -0.0494
 8586TIP3    H149953   3.139   4.800   9.861  1.0527  1.8096  0.5430
 8586TIP3    H249954   3.083   4.891   9.968 -2.0453 -0.1720  0.7440
 8587TIP3   OH249955   5.162   5.298  11.775  0.3639  0.1525 -0.2337
 8587TIP3    H149956   5.159   5.390  11.800 -1.1153 -0.2652  1.3886
 8587TIP3    H249957   5.237   5.262  11.824 -0.5805  0.0213  1.1960
 8588TIP3   OH249958   0.942   3.046  11.986  0.0565 -0.6056  0.2716
 8588TIP3    H149959   0.985   3.070  11.904 -0.8364 -0.9756 -0.3229
 8588TIP3    H249960   0.906   2.959  11.969  1.4140 -1.4695  1.6714
 8589TIP3   OH249961   1.802   5.101  12.111  0.3555  0.1695 -0.0651
 8589TIP3    H149962   1.761   5.051  12.181  3.0303 -0.7507  0.9796
 8589TIP3    H249963   1.782   5.193  12.131 -1.8524 -0.2377 -0.1562
 8590TIP3   OH249964   1.366   2.043  10.143 -0.0635  0.8160 -0.1809
 8590TIP3    H149965   1.339   1.988  10.216  0.5145  0.7679  0.0044
 8590TIP3    H249966   1.445   2.001  10.109 -1.9334 -0.8907 -2.7987
 8591TIP3   OH249967   0.823   6.182  12.122 -0.2771  0.3967  0.1362
 8591TIP3    H149968   0.849   6.147  12.037 -0.1387  0.0549  0.3197
 8591TIP3    H249969   0.906   6.205  12.164 -0.1554 -1.6802  1.1578
 8592TIP3   OH249970   2.019   2.628  11.986 -0.0070 -0.2763 -0.1065
 8592TIP3    H149971   1.950   2.692  11.999  0.3644  0.1582 -0.2171
 8592TIP3    H249972   2.010   2.601  11.894 -0.2406 -0.4706 -0.0248
 8593TIP3   OH249973   1.575   2.545  10.088 -0.1868 -0.2225 -0.0523
 8593TIP3    H149974   1.635   2.614  10.118 -1.4494  0.7261  0.3953
 8593TIP3    H249975   1.621   2.463  10.107  1.5128  0.4860 -0.9543
 8594TIP3   OH249976   1.498   5.347  10.808  0.1669 -0.0607 -0.5811
 8594TIP3    H149977   1.531   5.411  10.871  1.0810 -0.0262 -1.0769
 8594TIP3    H249978   1.523   5.262  10.845 -2.5339 -0.2953  0.9459
 8595TIP3   OH249979   6.249   0.815  10.169  0.5838  0.1719 -0.1280
 8595TIP3    H149980   6.246   0.883  10.102  1.1075  0.7571  0.4260
 8595TIP3    H249981   6.267   0.734  10.121  0.0340  0.4353 -0.7823
 8596TIP3   OH249982   0.407   3.964  12.456 -0.7966  0.2618 -0.1653
 8596TIP3    H149983   0.361   3.888  12.492 -0.2739  0.0469  0.0652
 8596TIP3    H249984   0.448   4.005  12.532 -1.1534  0.8329 -0.2770
 8597TIP3   OH249985   1.187   0.985   9.284 -0.4210  0.0614  0.0587
 8597TIP3    H149986   1.146   1.043   9.349 -0.0679 -2.3955  2.6962
 8597TIP3    H249987   1.149   0.899   9.303  0.4045 -0.9340 -2.4636
 8598TIP3   OH249988   3.872   4.901  10.407  0.2741  0.5902  0.1207
 8598TIP3    H149989   3.825   4.937  10.332 -0.0005  0.4570  0.2262
 8598TIP3    H249990   3.950   4.957  10.416  0.7625  0.0764 -0.7943
 8599TIP3   OH249991   5.536   2.714  10.427 -0.0309  0.3350 -0.0654
 8599TIP3    H149992   5.503   2.797  10.462  1.1188  0.2573  1.2678
 8599TIP3    H249993   5.628   2.712  10.452  0.4870 -0.4179 -1.8854
 8600TIP3   OH249994   4.900   5.476  10.302  0.0484 -0.3576  0.0453
 8600TIP3    H149995   4.904   5.390  10.344  2.3266 -0.8497 -1.0259
 8600TIP3    H249996   4.948   5.465  10.220  0.7788  2.0428  0.0701
 8601TIP3   OH249997   5.889   1.588   9.676 -0.2891 -0.3924 -0.0415
 8601TIP3    H149998   5.882   1.671   9.631  0.5372 -0.3071 -0.0206
 8601TIP3    H249999   5.983   1.574   9.688 -0.4171 -1.3141 -0.0258
 8602TIP3   OH250000   2.222   6.261  11.349  0.6617  0.9456  0.0618
 8602TIP3    H150001   2.255   6.256  11.439  0.1917 -0.2746  0.1846
 8602TIP3    H250002   2.301   6.262  11.294  0.9474  1.5785  0.4840
 8603TIP3   OH250003   6.517   0.398  10.902  0.0846  0.1564  0.1215
 8603TIP3    H150004   6.479   0.476  10.941 -0.2125 -0.0264  0.2009
 8603TIP3    H250005   6.561   0.429  10.822  0.5003  0.4940  0.4767
 8604TIP3   OH250006   0.190   4.596  12.618 -0.4465  0.3080 -0.0255
 8604TIP3    H150007   0.197   4.683  12.656  1.7289  0.2719 -0.1801
 8604TIP3    H250008   0.213   4.608  12.526  0.8466 -0.5297  0.1629
 8605TIP3   OH250009   2.397   4.946   9.866 -0.0834 -0.2901 -0.1795
 8605TIP3    H150010   2.411   4.890   9.942 -1.3494 -1.6132 -0.8718
 8605TIP3    H250011   2.391   4.886   9.792  2.2008  1.0337 -1.5553
 8606TIP3   OH250012   5.710   5.414   9.881  0.1020  1.1155  0.3366
 8606TIP3    H150013   5.636   5.474   9.880  0.4840  1.5784 -0.9713
 8606TIP3    H250014   5.786   5.467   9.858  0.9200  0.6977  1.8685
 8607TIP3   OH250015   2.399   1.793  11.514  0.6206 -0.0058 -0.0615
 8607TIP3    H150016   2.320   1.837  11.546  0.2512  0.5305 -1.6249
 8607TIP3    H250017   2.467   1.818  11.576 -0.4672 -0.6715  1.4573
 8608TIP3   OH250018   1.616   1.035  10.859  0.3399  0.2956  0.0212
 8608TIP3    H150019   1.569   1.098  10.804  0.3205 -0.0911 -0.4134
 8608TIP3    H250020   1.587   0.949  10.827  0.0382  0.0643  0.8892
 8609TIP3   OH250021   3.529   5.198   9.869 -0.1045  0.0358 -0.3934
 8609TIP3    H150022   3.530   5.216   9.963  0.6712 -1.5077 -0.0755
 8609TIP3    H250023   3.573   5.114   9.860 -0.7532 -0.1618 -2.0889
 8610TIP3   OH250024   6.307   4.544  10.316  0.3286 -0.6323 -0.3451
 8610TIP3    H150025   6.252   4.559  10.240  0.6253 -0.8558 -0.6059
 8610TIP3    H250026   6.292   4.452  10.340  1.7552 -1.1620 -1.3691
 8611TIP3   OH250027   4.927   5.651  10.804 -0.5417  0.5543 -0.3125
 8611TIP3    H150028   4.909   5.558  10.819 -0.6612  0.6604  0.2166
 8611TIP3    H250029   4.924   5.661  10.709  1.8204 -0.4645 -0.5509
 8612TIP3   OH250030   5.413   5.514  12.386  0.6137 -0.3988  0.7364
 8612TIP3    H150031   5.440   5.500  12.295 -1.4572 -1.1719  0.1729
 8612TIP3    H250032   5.401   5.609  12.393 -1.6986 -0.4969 -0.6641
 8613TIP3   OH250033   4.489   2.999   9.904 -0.1305 -0.0001 -0.0816
 8613TIP3    H150034   4.417   3.013   9.966  1.0343  1.6799  1.0275
 8613TIP3    H250035   4.456   2.935   9.841 -2.4775  0.5333  0.5115
 8614TIP3   OH250036   5.642   3.890  10.559 -0.1684  0.1214  0.2696
 8614TIP3    H150037   5.682   3.810  10.593 -1.5117 -0.2104  1.1256
 8614TIP3    H250038   5.621   3.869  10.468  0.1988 -0.2145  0.2573
 8615TIP3   OH250039   5.425   3.123  12.551  0.2648 -0.0077 -0.2197
 8615TIP3    H150040   5.349   3.182  12.551 -1.0662 -1.5733  1.8723
 8615TIP3    H250041   5.488   3.166  12.609 -0.6268 -0.4538  1.1456
 8616TIP3   OH250042   2.066   0.418   9.956  0.0392  0.4813  0.5901
 8616TIP3    H150043   2.157   0.445   9.942  0.1446 -0.1249  0.0817
 8616TIP3    H250044   2.058   0.412  10.051  0.3396  1.1727  0.6678
 8617TIP3   OH250045   5.615   5.218  11.530  0.1259  0.2454  0.2643
 8617TIP3    H150046   5.705   5.250  11.535  0.1690  0.2016 -0.1646
 8617TIP3    H250047   5.599   5.207  11.436 -0.6391  1.1369  0.2758
 8618TIP3   OH250048   1.612   1.441  11.255  0.1914  0.3591  0.1246
 8618TIP3    H150049   1.551   1.400  11.317  1.4856 -2.7087 -0.4343
 8618TIP3    H250050   1.632   1.526  11.294 -0.3314 -0.7335  3.0512
 8619TIP3   OH250051   1.003   3.009   9.580  0.2470 -0.5474  0.1957
 8619TIP3    H150052   1.046   2.998   9.665  0.2029 -2.2045  0.0484
 8619TIP3    H250053   0.911   3.027   9.602  0.1599 -1.3262  0.5311
 8620TIP3   OH250054   2.513   6.329  13.084 -0.0561 -0.0406  0.1681
 8620TIP3    H150055   2.597   6.351  13.042 -0.2725 -0.9945 -0.7989
 8620TIP3    H250056   2.536   6.263  13.149 -0.0655 -0.3412 -0.1334
 8621TIP3   OH250057   1.734   1.309  11.498 -0.0816 -0.0512  0.4334
 8621TIP3    H150058   1.806   1.368  11.518  0.7050 -0.3758 -1.2606
 8621TIP3    H250059   1.735   1.301  11.402 -0.9544 -1.8281  0.5300
 8622TIP3   OH250060   6.472   4.680  11.751 -0.1860  0.0188  0.2330
 8622TIP3    H150061   6.533   4.717  11.687  0.0543 -0.8810 -0.0773
 8622TIP3    H250062   6.497   4.721  11.834 -0.0653  0.6934 -0.1291
 8623TIP3   OH250063   1.316   0.963   9.973  0.0886 -0.6939  0.1267
 8623TIP3    H150064   1.358   0.938   9.891 -0.7066 -0.7076 -0.2819
 8623TIP3    H250065   1.289   0.879  10.012  0.7726 -0.7101  0.5699
 8624TIP3   OH250066   5.022   3.736  11.898 -0.5756 -0.3255  0.7250
 8624TIP3    H150067   5.071   3.793  11.839 -0.4396 -0.0427  1.1105
 8624TIP3    H250068   5.081   3.719  11.971 -0.7839 -0.5873  0.8355
 8625TIP3   OH250069   0.853   0.417   9.599  0.0815 -0.6957  0.4459
 8625TIP3    H150070   0.846   0.492   9.540 -2.4886  0.2462  1.7954
 8625TIP3    H250071   0.946   0.415   9.623  0.2417  2.1541  0.4530
 8626TIP3   OH250072   4.196   1.180  10.127 -0.3392 -0.1460  0.0397
 8626TIP3    H150073   4.138   1.111  10.095 -1.0993 -0.3872  1.8268
 8626TIP3    H250074   4.278   1.135  10.147 -1.1737 -0.8344  2.2449
 8627TIP3   OH250075   2.008   2.629  10.631  0.3184  0.5500 -0.1195
 8627TIP3    H150076   2.084   2.598  10.581 -0.7456 -0.6565 -1.0830
 8627TIP3    H250077   2.045   2.667  10.710  1.9348  0.1705 -0.6477
 8628TIP3   OH250078   4.474   2.981  10.229  0.2473 -0.0538 -0.0086
 8628TIP3    H150079   4.475   2.988  10.325  0.1622  1.4305 -0.0922
 8628TIP3    H250080   4.566   2.977  10.204  0.2715 -0.3650  0.1228
 8629TIP3   OH250081   3.696   6.234  10.638  0.4481 -0.3941 -0.0363
 8629TIP3    H150082   3.651   6.157  10.672 -1.0701 -0.3917 -1.8771
 8629TIP3    H250083   3.729   6.279  10.715 -1.5219 -1.1365  1.3052
 8630TIP3   OH250084   4.420   1.668  11.719  0.1384  0.1485 -0.5334
 8630TIP3    H150085   4.368   1.743  11.748  1.1098  1.7991 -2.7493
 8630TIP3    H250086   4.492   1.664  11.781  0.6521  1.7810 -0.9725
 8631TIP3   OH250087   5.542   4.498  11.614 -0.0621  0.4973  0.0035
 8631TIP3    H150088   5.453   4.470  11.632 -0.4317  0.7243 -1.3585
 8631TIP3    H250089   5.536   4.593  11.606  0.3932  0.5582  0.3388
 8632TIP3   OH250090   5.056   1.751   9.707 -0.4472  0.2026 -0.9285
 8632TIP3    H150091   5.145   1.725   9.733 -0.6289 -0.9190 -1.3724
 8632TIP3    H250092   4.999   1.687   9.750 -1.0184  0.7329 -0.8922
 8633TIP3   OH250093   2.249   4.807  11.012  0.1768  0.0302 -0.0566
 8633TIP3    H150094   2.160   4.775  10.996 -0.1902  0.5725  0.8466
 8633TIP3    H250095   2.292   4.801  10.926 -0.2599 -1.6661 -0.2073
 8634TIP3   OH250096   3.766   6.144   9.880  0.4429 -0.3699 -0.0916
 8634TIP3    H150097   3.796   6.126   9.969 -2.4475 -1.0071  0.8559
 8634TIP3    H250098   3.736   6.235   9.883  2.3381  0.3459 -1.0900
 8635TIP3   OH250099   4.062   0.093  12.088 -0.2581  0.1118  0.3338
 8635TIP3    H150100   4.134   0.149  12.059  1.2390 -2.1246 -0.6264
 8635TIP3    H250101   3.984   0.133  12.051  0.6199  2.0274  0.4530
 8636TIP3   OH250102   4.678   1.636  10.617 -0.3317  0.3837  0.0989
 8636TIP3    H150103   4.734   1.663  10.690  0.8472  0.3224 -0.7580
 8636TIP3    H250104   4.625   1.565  10.653  0.7712 -0.1586  0.6956
 8637TIP3   OH250105   5.656   4.586  12.917  0.0135  0.4181  0.2372
 8637TIP3    H150106   5.692   4.543  12.994  1.0120  0.0088 -0.4486
 8637TIP3    H250107   5.565   4.557  12.914  0.1695 -0.1460  0.8386
 8638TIP3   OH250108   6.087   6.487   9.668 -0.0387  0.6552  0.9226
 8638TIP3    H150109   6.098   6.395   9.646 -2.4140  0.5208 -0.0410
 8638TIP3    H250110   6.141   6.500   9.746  1.4478 -1.1644  0.2825
 8639TIP3   OH250111   3.097   4.086  10.896  0.2017 -0.4295 -0.1984
 8639TIP3    H150112   3.086   4.157  10.833  2.0310 -0.7573 -0.9554
 8639TIP3    H250113   3.109   4.130  10.980  1.2565  0.1753 -0.6482
 8640TIP3   OH250114   6.091   0.532   9.627 -0.3546 -0.2089 -0.4820
 8640TIP3    H150115   6.149   0.573   9.563  2.8517 -1.1118  1.6148
 8640TIP3    H250116   6.093   0.439   9.606  0.4046 -0.4615  0.6537
 8641TIP3   OH250117   5.950   2.679  10.843  0.0646 -0.1561 -0.4930
 8641TIP3    H150118   5.968   2.692  10.936  0.6190 -0.3311 -0.5708
 8641TIP3    H250119   5.952   2.584  10.832 -3.0989 -0.3593 -0.0907
 8642TIP3   OH250120   5.107   6.101  12.066  0.1194  0.8051 -0.6081
 8642TIP3    H150121   5.195   6.134  12.086  0.1808  0.4428 -0.2685
 8642TIP3    H250122   5.053   6.130  12.140  0.3589 -0.5862  0.1501
 8643TIP3   OH250123   5.971   4.503  12.615 -0.5381 -0.1610  0.7018
 8643TIP3    H150124   6.012   4.440  12.674 -0.7529  0.8051  1.9297
 8643TIP3    H250125   5.927   4.565  12.673  0.3654  1.6081 -0.4053
 8644TIP3   OH250126   6.619   1.374  12.612 -0.3156 -0.8295 -0.2713
 8644TIP3    H150127   6.698   1.375  12.666  0.3432 -1.1253 -1.1852
 8644TIP3    H250128   6.566   1.447  12.644  0.9430  0.2254 -0.4986
 8645TIP3   OH250129   1.927   5.353  11.531  0.4495 -0.1278  0.7003
 8645TIP3    H150130   1.949   5.263  11.557  1.1178  0.0257  0.6822
 8645TIP3    H250131   1.952   5.407  11.607  2.2757  0.3047 -0.1576
 8646TIP3   OH250132   4.127   2.295  11.001 -0.5359 -0.6133 -0.3282
 8646TIP3    H150133   4.181   2.350  11.057 -0.0623 -2.4532  1.1084
 8646TIP3    H250134   4.055   2.267  11.057 -0.7701 -1.4403 -1.0211
 8647TIP3   OH250135   5.962   5.254  11.742  0.0754  0.1995  0.3043
 8647TIP3    H150136   5.897   5.198  11.702  0.7481 -0.7080  0.4549
 8647TIP3    H250137   6.037   5.251  11.682 -0.3303  2.0028 -0.3769
 8648TIP3   OH250138   1.756   0.253  12.088 -0.1239  0.0869 -0.4076
 8648TIP3    H150139   1.728   0.241  11.997 -1.6877  0.4421 -0.0009
 8648TIP3    H250140   1.819   0.183  12.104 -0.7391 -0.7106 -1.3986
 8649TIP3   OH250141   3.996   2.637  10.653  0.1014  0.0827 -0.0254
 8649TIP3    H150142   4.032   2.551  10.675  0.2443  0.2653  0.4449
 8649TIP3    H250143   4.055   2.671  10.585  0.2428 -0.0419  0.0353
 8650TIP3   OH250144   4.409   0.193  10.245  0.3885 -0.1419  0.7953
 8650TIP3    H150145   4.432   0.246  10.322 -1.3661  0.5353  0.8832
 8650TIP3    H250146   4.363   0.253  10.187 -2.5919 -1.7543  1.3330
 8651TIP3   OH250147   4.711   5.131  10.459  0.2714 -0.2994 -0.2253
 8651TIP3    H150148   4.798   5.166  10.439 -0.3866  2.3326  1.1419
 8651TIP3    H250149   4.658   5.208  10.480 -1.6310 -2.0403  1.8407
 8652TIP3   OH250150   2.524   2.776   9.541  0.1317  0.4176  0.0851
 8652TIP3    H150151   2.522   2.848   9.605 -0.0129  0.3640  0.1404
 8652TIP3    H250152   2.433   2.767   9.513  0.3048  0.9029 -0.6452
 8653TIP3   OH250153   5.940   5.363  10.187 -0.3774  0.4684 -0.1798
 8653TIP3    H150154   5.986   5.395  10.265 -1.4119  1.0034  0.2381
 8653TIP3    H250155   5.971   5.273  10.176 -1.1375 -0.0554  1.6134
 8654TIP3   OH250156   3.658   3.352   9.856 -0.3340 -0.1671  0.5803
 8654TIP3    H150157   3.670   3.257   9.858  1.0794 -0.0090  0.8120
 8654TIP3    H250158   3.676   3.376   9.765  0.0655 -0.0480  0.6870
 8655TIP3   OH250159   3.205   2.460  11.665 -0.0897  0.2575 -0.0730
 8655TIP3    H150160   3.215   2.381  11.611  0.2755 -0.1208  0.5401
 8655TIP3    H250161   3.254   2.441  11.744  0.2355  1.2227 -0.0362
 8656TIP3   OH250162   5.681   5.620  12.036 -0.0618  0.0074 -0.0531
 8656TIP3    H150163   5.743   5.669  11.982 -0.5800  0.9731  0.1937
 8656TIP3    H250164   5.726   5.611  12.121 -0.5985  1.5600  0.4386
 8657TIP3   OH250165   5.961   0.724  10.445  0.5974  0.5754  0.1826
 8657TIP3    H150166   6.028   0.683  10.500  0.6747  0.4547  0.0008
 8657TIP3    H250167   6.006   0.742  10.363  0.4059  0.4910  0.0582
 8658TIP3   OH250168   0.687   3.355  10.555 -0.3872 -0.1188 -0.6767
 8658TIP3    H150169   0.627   3.418  10.596 -1.0435 -0.4383 -1.1345
 8658TIP3    H250170   0.689   3.380  10.462 -1.0068 -1.0387 -0.9508
 8659TIP3   OH250171   5.038   3.121  11.074 -0.1152  0.2146  0.3492
 8659TIP3    H150172   5.041   3.025  11.063  1.1877  0.4685 -2.4323
 8659TIP3    H250173   5.130   3.147  11.082 -0.4873  1.2229  1.5273
 8660TIP3   OH250174   0.094   2.128  11.171  0.3971 -0.8381 -0.0119
 8660TIP3    H150175   0.108   2.087  11.257  0.3329 -0.6216  0.1018
 8660TIP3    H250176   0.110   2.057  11.108 -0.9307 -1.3681  0.2236
 8661TIP3   OH250177   0.830   3.546  12.553  0.4047  0.4174  0.8978
 8661TIP3    H150178   0.815   3.461  12.595  1.5360 -0.3786 -0.2644
 8661TIP3    H250179   0.783   3.608  12.609 -1.5904 -1.1158  1.0271
 8662TIP3   OH250180   5.171   0.731   9.920  0.5338 -0.1751 -0.0353
 8662TIP3    H150181   5.208   0.796   9.980 -0.8542  1.2482 -0.6678
 8662TIP3    H250182   5.140   0.781   9.845  1.0248 -1.7796 -1.3855
 8663TIP3   OH250183   2.268   4.883  12.499 -0.3690  0.1557 -0.3195
 8663TIP3    H150184   2.287   4.795  12.468  0.0968 -0.9026  2.6444
 8663TIP3    H250185   2.339   4.937  12.464  2.4519 -1.7270  2.0461
 8664TIP3   OH250186   4.761   3.791   9.461  0.0805  0.1478  0.2363
 8664TIP3    H150187   4.855   3.783   9.480  0.0981 -0.3655 -0.0446
 8664TIP3    H250188   4.753   3.874   9.414  0.6468 -0.5859 -1.2188
 8665TIP3   OH250189   0.087   1.713  13.437  0.1882  0.4471 -0.0305
 8665TIP3    H150190   0.174   1.688  13.469  0.6854  1.3342 -0.6336
 8665TIP3    H250191   0.039   1.631  13.429  1.3948 -0.1997 -0.9188
 8666TIP3   OH250192   5.504   5.506  11.601  0.2649 -0.8033  0.4049
 8666TIP3    H150193   5.593   5.470  11.604  0.2935 -0.7035  0.8759
 8666TIP3    H250194   5.481   5.519  11.693  0.0680 -0.0807  0.2587
 8667TIP3   OH250195   2.373   5.458  11.464  0.0876  0.2410  0.0840
 8667TIP3    H150196   2.374   5.365  11.486  0.7451  0.4141  0.8502
 8667TIP3    H250197   2.383   5.502  11.549  5.2039  0.9151 -0.5241
 8668TIP3   OH250198   6.151   4.268   9.868 -0.0147 -0.4425 -0.2704
 8668TIP3    H150199   6.166   4.357   9.835 -0.2997  1.0320  3.1737
 8668TIP3    H250200   6.063   4.246   9.837  0.5970 -0.1557 -2.3362
 8669TIP3   OH250201   6.373   4.742  10.777  0.1636  0.2287 -0.2932
 8669TIP3    H150202   6.367   4.729  10.682  0.1258  1.2857 -0.4428
 8669TIP3    H250203   6.442   4.681  10.805  0.9224  0.6625 -1.1566
 8670TIP3   OH250204   5.801   5.459  11.624 -0.5374 -0.1606 -0.2247
 8670TIP3    H150205   5.892   5.447  11.597 -0.2138  0.0462  0.7437
 8670TIP3    H250206   5.794   5.552  11.645 -1.1567 -0.0390 -0.9385
 8671TIP3   OH250207   0.926   3.567  10.059 -0.1737 -0.0373  0.4704
 8671TIP3    H150208   0.868   3.568  10.135 -0.9473  0.7156 -0.1132
 8671TIP3    H250209   0.873   3.529   9.989  0.6682 -1.1238  0.3909
 8672TIP3   OH250210   3.330   2.199  11.579 -0.0025 -0.1717  0.0811
 8672TIP3    H150211   3.386   2.174  11.653  0.0515 -1.7385 -0.4489
 8672TIP3    H250212   3.389   2.244  11.519  0.9999 -2.5556 -0.8676
 8673TIP3   OH250213   0.499   5.696  10.246 -0.4250  0.4746 -0.3759
 8673TIP3    H150214   0.536   5.608  10.258  0.3596  0.6263 -1.6029
 8673TIP3    H250215   0.465   5.719  10.333  1.3187 -0.1525  0.5114
 8674TIP3   OH250216   6.342   4.088  11.676  1.1694  0.3229  0.6792
 8674TIP3    H150217   6.366   4.039  11.755  1.8323  0.5872  0.6452
 8674TIP3    H250218   6.315   4.174  11.710  0.5966  0.1405  0.6891
 8675TIP3   OH250219   2.452   6.290  12.147 -0.0248 -0.2275  0.2779
 8675TIP3    H150220   2.537   6.247  12.156  1.4808  2.3162 -0.7110
 8675TIP3    H250221   2.406   6.269  12.228  1.6718 -1.3886  0.9997
 8676TIP3   OH250222   5.408   2.796  11.357 -0.2375 -0.1275  0.3077
 8676TIP3    H150223   5.336   2.855  11.333 -2.6665 -3.0890 -0.2539
 8676TIP3    H250224   5.391   2.772  11.448 -0.0046 -0.9208  0.1463
 8677TIP3   OH250225   4.911   3.468  11.860 -0.2938  0.0445 -0.1786
 8677TIP3    H150226   4.906   3.435  11.950  0.5758 -1.0914 -0.5246
 8677TIP3    H250227   4.944   3.557  11.869 -0.1456 -0.0824  0.6226
 8678TIP3   OH250228   4.116   4.525  11.548 -0.6400  0.9103 -0.6540
 8678TIP3    H150229   4.055   4.463  11.507 -0.1985  1.1175 -1.6559
 8678TIP3    H250230   4.082   4.537  11.637 -0.7707 -0.7303 -0.4498
 8679TIP3   OH250231   5.197   5.650  10.297 -0.1409 -0.2144  0.2394
 8679TIP3    H150232   5.127   5.662  10.232 -1.1191 -1.7825  0.9326
 8679TIP3    H250233   5.275   5.631  10.245 -0.7189 -0.6196 -0.5047
 8680TIP3   OH250234   6.620   5.729  12.594  0.2325  0.4081  0.5734
 8680TIP3    H150235   6.633   5.823  12.577  0.4374  0.4741  1.0887
 8680TIP3    H250236   6.700   5.701  12.638 -0.8480  0.5707  2.7692
 8681TIP3   OH250237   3.751   1.652  10.001  0.5320 -0.0840  0.1436
 8681TIP3    H150238   3.764   1.692  10.086 -1.6613  0.9308  0.0725
 8681TIP3    H250239   3.839   1.646   9.963  1.4863 -0.0510  2.2145
 8682TIP3   OH250240   0.112   5.064  12.715  0.0961  0.2445  0.0858
 8682TIP3    H150241   0.048   5.115  12.666 -1.0718 -0.4653  0.8210
 8682TIP3    H250242   0.091   5.082  12.807  1.0683  0.1265  0.3388
 8683TIP3   OH250243   5.042   0.237  11.459 -0.5168  0.7439 -0.2417
 8683TIP3    H150244   4.970   0.262  11.517  0.8083  1.6355  1.1015
 8683TIP3    H250245   5.111   0.207  11.519  0.5074  0.6612 -1.4328
 8684TIP3   OH250246   2.195   0.375  10.446 -0.1677 -0.3137 -0.5654
 8684TIP3    H150247   2.163   0.412  10.528 -0.4216  0.5285 -1.0306
 8684TIP3    H250248   2.213   0.283  10.466  0.0875 -0.0399  0.5136
 8685TIP3   OH250249   3.802   0.010   9.979 -0.0734 -0.2567 -0.1569
 8685TIP3    H150250   3.830   0.093   9.942  2.4264 -0.4697  1.0891
 8685TIP3    H250251   3.870  -0.013  10.042 -1.5384 -2.4418  0.7554
 8686TIP3   OH250252   1.561   1.398  10.434 -0.0411 -0.6174  0.0927
 8686TIP3    H150253   1.608   1.388  10.517  1.2464  0.7662 -0.4192
 8686TIP3    H250254   1.628   1.383  10.367 -1.4121 -3.3839 -0.7994
 8687TIP3   OH250255   2.366   0.804  10.292  0.3599  0.5092  0.0102
 8687TIP3    H150256   2.431   0.819  10.224 -0.2292 -0.4238 -0.7891
 8687TIP3    H250257   2.398   0.727  10.339 -0.0672  0.1662 -0.2602
 8688TIP3   OH250258   3.237   6.014  11.905 -0.3192  0.1258 -0.9230
 8688TIP3    H150259   3.180   6.017  11.829  0.2948  2.0167 -1.3802
 8688TIP3    H250260   3.304   6.080  11.887 -0.0285  0.4753  1.1438
 8689TIP3   OH250261   1.004   3.590  10.473  0.2712  0.3734  0.8961
 8689TIP3    H150262   0.949   3.604  10.551  0.1776 -1.4734  1.2039
 8689TIP3    H250263   1.089   3.563  10.508 -0.0241 -1.3173  0.3871
 8690TIP3   OH250264   0.004   0.842   9.957 -0.6836  0.0090 -0.4565
 8690TIP3    H150265   0.047   0.813  10.037 -1.3193  0.1882 -0.0421
 8690TIP3    H250266   0.071   0.833   9.889 -0.0337  0.1761  0.1486
 8691TIP3   OH250267   3.016   3.388  12.725 -0.5022 -0.3882  0.2164
 8691TIP3    H150268   3.033   3.416  12.635 -0.4462 -1.2510 -0.0497
 8691TIP3    H250269   2.983   3.467  12.769  0.5209  0.3267 -0.2600
 8692TIP3   OH250270   3.596   2.321  10.126  0.3454 -0.1198  0.1038
 8692TIP3    H150271   3.658   2.394  10.122  0.1846  0.0247  0.2284
 8692TIP3    H250272   3.527   2.351  10.185 -0.1899 -0.0060 -0.5672
 8693TIP3   OH250273   2.876   1.242   9.431 -0.0585  0.1396  0.3931
 8693TIP3    H150274   2.863   1.283   9.517  0.5030  0.1811  0.4597
 8693TIP3    H250275   2.895   1.315   9.372 -0.8059  0.1492  0.1538
 8694TIP3   OH250276   4.414   6.123  11.475 -0.0318  0.0846  0.4958
 8694TIP3    H150277   4.446   6.168  11.397 -2.1869 -1.8675 -1.6672
 8694TIP3    H250278   4.369   6.190  11.525  0.7821  1.2386 -0.2686
 8695TIP3   OH250279   1.591   4.391  12.731 -0.1226 -0.3100  0.0716
 8695TIP3    H150280   1.559   4.305  12.706 -1.3761 -0.2449  1.3658
 8695TIP3    H250281   1.541   4.414  12.809 -0.3211  1.8868 -0.6378
 8696TIP3   OH250282   0.960   0.347  12.854  0.2280 -0.9340  0.0130
 8696TIP3    H150283   0.869   0.316  12.861  0.5608 -1.6343  1.8372
 8696TIP3    H250284   0.961   0.399  12.774 -1.9358 -0.4278  0.2341
 8697TIP3   OH250285   6.429   3.375  12.797 -0.0796  0.1723 -0.1423
 8697TIP3    H150286   6.413   3.461  12.837  0.8897  1.2632 -1.9303
 8697TIP3    H250287   6.426   3.313  12.870 -1.8124  1.5703  1.0797
 8698TIP3   OH250288   3.025   2.668  11.714  0.0403  0.0478 -0.0516
 8698TIP3    H150289   3.074   2.587  11.727  0.9031  0.5548 -0.0585
 8698TIP3    H250290   2.962   2.647  11.644 -1.0868 -1.1714  1.2710
 8699TIP3   OH250291   1.232   5.440  10.740 -0.3435 -0.0093 -0.2335
 8699TIP3    H150292   1.235   5.534  10.722 -0.8580 -0.0389 -0.4850
 8699TIP3    H250293   1.322   5.410  10.729 -0.7047 -0.1700 -3.4453
 8700TIP3   OH250294   4.539   1.899  12.286 -0.3035  0.1827  0.1172
 8700TIP3    H150295   4.474   1.838  12.252 -0.3492 -1.5723  3.0111
 8700TIP3    H250296   4.620   1.877  12.240 -0.9475 -0.0646 -0.9342
 8701TIP3   OH250297   1.116   3.924  12.088  0.1691  0.6108 -0.1842
 8701TIP3    H150298   1.026   3.928  12.056 -0.1532 -1.6102  0.2918
 8701TIP3    H250299   1.167   3.895  12.013  0.2349  0.3200 -0.0270
 8702TIP3   OH250300   1.260   6.128   9.546 -0.3263 -0.3540 -0.1412
 8702TIP3    H150301   1.301   6.043   9.526 -2.7689 -0.8767 -3.7811
 8702TIP3    H250302   1.169   6.107   9.564 -0.7957  1.4538 -0.2813
 8703TIP3   OH250303   3.775   3.506  10.046 -0.1962  0.4652  0.4056
 8703TIP3    H150304   3.871   3.512  10.055 -0.0904 -0.9179  0.4082
 8703TIP3    H250305   3.761   3.444   9.974 -1.1080  1.6319 -0.4545
 8704TIP3   OH250306   6.203   6.577  11.666  0.8800 -0.4662  0.3614
 8704TIP3    H150307   6.202   6.536  11.579  0.6402 -1.2537  0.7188
 8704TIP3    H250308   6.110   6.584  11.689  0.9668 -1.2156  0.9762
 8705TIP3   OH250309   1.744   5.107  11.805  0.4408 -0.4118 -0.4251
 8705TIP3    H150310   1.772   5.190  11.843  0.3448 -0.6759  0.2394
 8705TIP3    H250311   1.679   5.131  11.739 -1.9001 -0.0841  1.8119
 8706TIP3   OH250312   2.950   5.953  10.970 -0.0720  0.2551  0.3590
 8706TIP3    H150313   2.962   6.016  10.899  1.4696  0.1384  0.4838
 8706TIP3    H250314   2.881   5.894  10.939 -1.5540  1.9836  0.2483
 8707TIP3   OH250315   2.466   1.437  11.743 -0.0952 -0.0729  0.1979
 8707TIP3    H150316   2.462   1.343  11.727 -2.3546  0.4087 -3.1463
 8707TIP3    H250317   2.556   1.462  11.721  0.4278 -1.3380  0.8015
 8708TIP3   OH250318   1.043   1.045  11.035  0.1426  0.2610 -0.5529
 8708TIP3    H150319   1.067   1.113  10.973 -0.1982 -0.1054 -1.0915
 8708TIP3    H250320   1.074   0.964  10.995  1.0198  0.1391  0.3238
 8709TIP3   OH250321   3.843   1.983   9.340 -0.3417  0.1106  0.5098
 8709TIP3    H150322   3.797   1.902   9.316 -1.1332  0.6916  0.0112
 8709TIP3    H250323   3.775   2.037   9.380  0.4277  0.1070  1.8926
 8710TIP3   OH250324   1.631   1.937  11.499  0.3366 -0.5059  0.1804
 8710TIP3    H150325   1.563   1.943  11.432 -0.6507 -1.8440  1.0205
 8710TIP3    H250326   1.591   1.976  11.577  0.5696 -1.1865  0.6463
 8711TIP3   OH250327   3.016   1.907   9.661  0.0316  0.0024 -0.2077
 8711TIP3    H150328   3.072   1.984   9.672 -0.0044  0.3615 -2.1852
 8711TIP3    H250329   2.954   1.933   9.592  0.5895 -2.0900 -1.5945
 8712TIP3   OH250330   1.634   0.018  10.512 -0.3224  0.3587 -0.0168
 8712TIP3    H150331   1.649   0.001  10.419  0.1887  0.3297  0.0689
 8712TIP3    H250332   1.644  -0.067  10.554 -0.4903  0.3835  0.0727
 8713TIP3   OH250333   4.659   1.118  10.387 -0.0354 -0.3834  0.4645
 8713TIP3    H150334   4.663   1.032  10.345 -1.4522  0.3504 -1.3332
 8713TIP3    H250335   4.741   1.161  10.364 -0.8312  0.0510 -1.8232
 8714TIP3   OH250336   6.389   5.363  12.110  0.3724  0.4540  0.5091
 8714TIP3    H150337   6.482   5.366  12.090  0.3257 -1.2334 -0.1033
 8714TIP3    H250338   6.351   5.310  12.040 -1.0702  1.1588  0.7159
 8715TIP3   OH250339   4.500   0.284  12.381  0.1528 -0.4871  0.7557
 8715TIP3    H150340   4.511   0.287  12.476 -3.0064  1.3574  1.1647
 8715TIP3    H250341   4.408   0.261  12.368  0.2081  0.4934 -1.8376
 8716TIP3   OH250342   4.355   3.985   9.453 -0.4435  0.2338  0.2147
 8716TIP3    H150343   4.427   3.930   9.424  0.8607  1.6563  0.6273
 8716TIP3    H250344   4.376   4.006   9.544 -2.0198 -0.3149  0.7383
 8717TIP3   OH250345   2.716   5.333  11.681 -0.1936  0.3172  0.1687
 8717TIP3    H150346   2.677   5.254  11.645  0.8322 -1.0778  1.9445
 8717TIP3    H250347   2.796   5.303  11.724  0.0368  2.2659  1.2234
 8718TIP3   OH250348   5.631   1.542  10.428 -0.1273  0.4787 -0.3241
 8718TIP3    H150349   5.598   1.531  10.517 -0.0635  0.8466 -0.2553
 8718TIP3    H250350   5.613   1.458  10.385  0.6164 -0.0083  0.2807
 8719TIP3   OH250351   0.477   5.059  13.234  0.4050  0.7370  0.3082
 8719TIP3    H150352   0.546   5.028  13.175  0.1246 -0.0189  0.3677
 8719TIP3    H250353   0.412   4.988  13.234  0.2361  0.8873  1.2537
 8720TIP3   OH250354   4.274   0.491  10.286  0.1567  0.3224  0.0332
 8720TIP3    H150355   4.193   0.447  10.312 -0.0150  0.7720  0.2724
 8720TIP3    H250356   4.299   0.448  10.204  1.3342 -1.8858  1.4799
 8721TIP3   OH250357   3.324   3.385  11.655 -0.3453  0.3141 -0.6106
 8721TIP3    H150358   3.332   3.290  11.649 -0.4119  0.2640 -0.0156
 8721TIP3    H250359   3.396   3.412  11.711 -0.5896  0.5633 -0.4113
 8722TIP3   OH250360   0.648   4.486  10.855  0.1862  0.0296  0.2351
 8722TIP3    H150361   0.628   4.481  10.762  0.4374 -0.1086  0.1857
 8722TIP3    H250362   0.656   4.395  10.884  0.7585  0.0790  0.2432
 8723TIP3   OH250363   3.091   5.210  12.132  0.4752 -0.6351  0.1353
 8723TIP3    H150364   3.062   5.121  12.112 -0.7385 -0.7033  1.9213
 8723TIP3    H250365   3.013   5.264  12.121  1.0758  0.1370 -0.4448
 8724TIP3   OH250366   3.712   2.332   9.335  0.5270 -0.1753  0.3765
 8724TIP3    H150367   3.628   2.377   9.334  0.3407 -0.5247  0.2427
 8724TIP3    H250368   3.690   2.241   9.356  0.9910 -0.0149  1.6523
 8725TIP3   OH250369   0.646   6.199  10.487  0.6245  0.1864  0.6602
 8725TIP3    H150370   0.615   6.284  10.454  0.4239 -0.8944 -2.3186
 8725TIP3    H250371   0.741   6.203  10.479  0.6958  0.4746  1.5482
 8726TIP3   OH250372   5.985   3.725  10.655  0.2324  0.5528  0.5827
 8726TIP3    H150373   5.931   3.802  10.672  0.7860  0.9335  0.6740
 8726TIP3    H250374   5.929   3.650  10.677 -0.3710  0.9217  0.3150
 8727TIP3   OH250375   2.924   5.130  10.069 -0.0581 -0.2519  0.0880
 8727TIP3    H150376   3.007   5.148  10.113 -0.2316  0.2602  0.2172
 8727TIP3    H250377   2.886   5.057  10.118 -0.2760  0.3493  0.8408
 8728TIP3   OH250378   4.736   1.175  10.106  0.0440  0.0996  0.1808
 8728TIP3    H150379   4.709   1.150  10.017  2.9064  0.7126 -0.9741
 8728TIP3    H250380   4.713   1.268  10.112  0.6488  0.2916 -0.3027
 8729TIP3   OH250381   3.247   0.825  12.859 -0.2424  0.4242 -0.3590
 8729TIP3    H150382   3.318   0.767  12.885  0.6647  0.0021 -3.3866
 8729TIP3    H250383   3.172   0.768  12.846  0.2272  0.1202 -1.8406
 8730TIP3   OH250384   0.581   3.899  11.880 -0.4521 -0.2875 -0.0711
 8730TIP3    H150385   0.549   3.863  11.798  1.6668  0.0286 -1.0991
 8730TIP3    H250386   0.503   3.906  11.936 -2.2490  0.9707 -2.5549
 8731TIP3   OH250387   3.514   1.469  11.192  0.3195  0.3613  0.6123
 8731TIP3    H150388   3.546   1.535  11.131 -1.3627 -0.2909 -1.0729
 8731TIP3    H250389   3.519   1.511  11.278 -1.2625  2.9220 -0.4539
 8732TIP3   OH250390   5.886   4.088  10.584  0.1575  0.6529 -0.7150
 8732TIP3    H150391   5.797   4.056  10.602 -0.8881  2.8198 -1.6463
 8732TIP3    H250392   5.912   4.043  10.503  1.5359 -2.8158  1.4243
 8733TIP3   OH250393   3.626   2.480  12.308 -0.2031  0.5019  0.2629
 8733TIP3    H150394   3.711   2.513  12.336  1.0962 -0.6395 -1.9971
 8733TIP3    H250395   3.593   2.431  12.384  1.4146  0.5105  1.0180
 8734TIP3   OH250396   4.976   2.277  10.442 -0.4032 -0.6189  0.3318
 8734TIP3    H150397   4.925   2.328  10.378 -0.4304 -0.1687  0.7067
 8734TIP3    H250398   5.042   2.232  10.389  0.1222  0.4221  0.0662
 8735TIP3   OH250399   0.461   1.620  12.026  0.1523 -0.1613  0.3148
 8735TIP3    H150400   0.537   1.622  11.968  0.9017  1.7259  1.3016
 8735TIP3    H250401   0.487   1.671  12.102 -1.8908 -0.0057  0.9649
 8736TIP3   OH250402   3.287   0.769  11.513 -0.1885 -0.4086 -0.3492
 8736TIP3    H150403   3.332   0.711  11.575  1.2376  0.3942 -0.5919
 8736TIP3    H250404   3.323   0.745  11.427 -1.9545 -1.3290 -0.8818
 8737TIP3   OH250405   0.605   4.408  10.072  0.8557  0.3880  0.3713
 8737TIP3    H150406   0.638   4.472  10.008  0.9464 -0.1669 -0.1418
 8737TIP3    H250407   0.559   4.343  10.019  0.2642  0.3271  0.9405
 8738TIP3   OH250408   0.289   0.161  11.477  0.9098 -0.0259  0.1379
 8738TIP3    H150409   0.334   0.233  11.434 -1.1688  1.6815  0.6088
 8738TIP3    H250410   0.301   0.086  11.419  0.5408  1.4883 -2.0073
 8739TIP3   OH250411   0.605   5.778  11.739  0.1223  0.2886 -0.4153
 8739TIP3    H150412   0.597   5.843  11.669  0.9313  0.1031 -0.6923
 8739TIP3    H250413   0.699   5.767  11.750 -0.0026 -0.6872 -0.2313
 8740TIP3   OH250414   1.446   2.843  11.125 -0.3385 -0.2669 -0.0120
 8740TIP3    H150415   1.456   2.860  11.218  0.2010  0.3883 -0.1760
 8740TIP3    H250416   1.483   2.921  11.083  0.1133 -0.8889 -0.7830
 8741TIP3   OH250417   6.345   5.326  11.336 -0.5946  0.1145 -0.7746
 8741TIP3    H150418   6.408   5.278  11.282 -0.9524 -1.0402 -0.2238
 8741TIP3    H250419   6.306   5.390  11.278  1.0489  0.8190 -1.1403
 8742TIP3   OH250420   5.740   5.736  13.377 -0.7416 -1.1102 -0.1233
 8742TIP3    H150421   5.670   5.782  13.330 -0.0895 -0.7776 -0.7909
 8742TIP3    H250422   5.810   5.728  13.313  0.6616  0.4646  1.1310
 8743TIP3   OH250423   5.347   4.583   9.391 -0.0682 -0.1071  0.1010
 8743TIP3    H150424   5.388   4.532   9.320  1.9662  0.5304  0.7330
 8743TIP3    H250425   5.366   4.534   9.470  0.9981  1.0495  0.5971
 8744TIP3   OH250426   0.812   3.363  12.034 -0.0240  0.2797 -0.2662
 8744TIP3    H150427   0.882   3.370  11.969 -0.0602  0.1457 -0.3192
 8744TIP3    H250428   0.802   3.452  12.069 -1.8592  0.9924 -2.3746
 8745TIP3   OH250429   0.017   4.787  13.055 -0.2551  0.0572  0.0180
 8745TIP3    H150430   0.035   4.858  13.117  0.4744  1.2946 -1.5632
 8745TIP3    H250431   0.027   4.708  13.108 -0.5380  1.0788  1.7040
 8746TIP3   OH250432   1.204   5.527  12.642  0.4206 -0.1184 -0.2313
 8746TIP3    H150433   1.150   5.500  12.568  0.1388  0.4168 -0.2212
 8746TIP3    H250434   1.202   5.623  12.641  2.9080  0.0014 -1.3781
 8747TIP3   OH250435   1.451   5.660  11.476  0.0918 -0.1248 -0.0813
 8747TIP3    H150436   1.477   5.623  11.560 -0.1812 -1.3416 -0.5138
 8747TIP3    H250437   1.500   5.610  11.411 -1.5287 -0.8930 -0.7725
 8748TIP3   OH250438   3.517   2.406  10.948  0.2917 -0.0054 -0.2650
 8748TIP3    H150439   3.442   2.446  10.993  0.2697 -0.6438  0.2851
 8748TIP3    H250440   3.566   2.364  11.019  1.0524  0.2171 -0.6516
 8749TIP3   OH250441   1.051   1.635  12.889  0.7679  0.2109  0.5965
 8749TIP3    H150442   1.034   1.639  12.983  0.9800  0.5950  0.6206
 8749TIP3    H250443   0.964   1.633  12.849  0.6771  0.2213  0.7926
 8750TIP3   OH250444   0.993   4.383  11.602  0.0272  0.4547  0.1417
 8750TIP3    H150445   1.059   4.449  11.623 -0.0038  0.5637 -0.0995
 8750TIP3    H250446   1.001   4.318  11.672 -0.3956  1.0418  0.7571
 8751TIP3   OH250447   0.152   2.356  10.574 -0.1230  0.1251 -0.1546
 8751TIP3    H150448   0.244   2.381  10.590 -0.1864 -0.0423  0.5062
 8751TIP3    H250449   0.153   2.261  10.571  0.7951 -0.0883 -6.6321
 8752TIP3   OH250450   1.292   2.619  11.113  0.2502 -0.1118  0.1707
 8752TIP3    H150451   1.280   2.592  11.205 -1.0675 -0.5933 -0.1181
 8752TIP3    H250452   1.345   2.698  11.118 -1.3174  0.9185  1.4982
 8753TIP3   OH250453   5.709   6.024  12.958 -0.0992  0.1000 -0.3593
 8753TIP3    H150454   5.741   6.027  12.868 -1.8562  0.1230 -1.0311
 8753TIP3    H250455   5.671   6.111  12.973 -1.1595 -0.3761 -0.1567
 8754TIP3   OH250456   5.389   1.324   9.470 -0.4038 -0.0718 -0.7337
 8754TIP3    H150457   5.439   1.272   9.533  0.8045  3.1528  1.2181
 8754TIP3    H250458   5.451   1.388   9.436 -1.9326  0.5962 -2.4618
 8755TIP3   OH250459   6.250   1.804  11.847  0.0873 -0.0967 -0.1926
 8755TIP3    H150460   6.288   1.800  11.935 -1.2691  0.9904  0.4662
 8755TIP3    H250461   6.167   1.850  11.858 -0.3705 -0.4214 -1.9643
 8756TIP3   OH250462   2.208   4.002  11.522  0.0660  0.0790  0.1750
 8756TIP3    H150463   2.210   3.947  11.443 -1.3235 -0.3400  0.3941
 8756TIP3    H250464   2.208   4.092  11.489 -1.3972 -0.0947 -0.3732
 8757TIP3   OH250465   2.417   1.367  11.331 -0.3988 -0.0126  0.4124
 8757TIP3    H150466   2.442   1.288  11.378  0.4573  0.7808  1.3446
 8757TIP3    H250467   2.408   1.338  11.240  1.0089 -0.9801  0.5303
 8758TIP3   OH250468   4.152   3.978  10.434 -0.3374 -1.1132  0.0698
 8758TIP3    H150469   4.231   3.932  10.405  0.3191 -0.4495  0.7771
 8758TIP3    H250470   4.168   3.997  10.526  0.2078  2.0737 -0.5713
 8759TIP3   OH250471   0.590   5.593  10.738  0.1210 -0.0825 -0.3688
 8759TIP3    H150472   0.565   5.509  10.698  0.4188 -1.0524  1.3783
 8759TIP3    H250473   0.507   5.632  10.764  0.0138 -0.1258 -0.6438
 8760TIP3   OH250474   3.896   1.199  10.753  0.7373 -0.1953 -0.3603
 8760TIP3    H150475   3.967   1.229  10.697  0.3679  1.6390  0.1035
 8760TIP3    H250476   3.849   1.134  10.700  0.5911  1.2269 -2.0499
 8761TIP3   OH250477   6.146   1.263   9.597  0.2299 -0.2448 -0.4228
 8761TIP3    H150478   6.112   1.273   9.508 -1.5743 -0.3468  0.2115
 8761TIP3    H250479   6.111   1.179   9.627 -0.4627  0.4745  0.8949
 8762TIP3   OH250480   5.781   2.909  11.114  1.1499  0.2570 -0.0108
 8762TIP3    H150481   5.792   2.975  11.182 -0.8485 -0.9213  1.5953
 8762TIP3    H250482   5.731   2.839  11.157  1.0756 -1.2094 -2.3069
 8763TIP3   OH250483   0.653   0.310  11.423 -1.1059  0.1879 -0.0743
 8763TIP3    H150484   0.719   0.280  11.485 -0.5121 -1.3570 -1.3786
 8763TIP3    H250485   0.703   0.355  11.355 -1.3547 -1.1357 -1.1568
 8764TIP3   OH250486   2.686   2.856  20.011 -0.7549  0.7033  0.1062
 8764TIP3    H150487   2.629   2.780  20.021 -0.2381  0.0690 -1.4668
 8764TIP3    H250488   2.631   2.931  20.037 -1.3168 -0.1536  1.5216
 8765TIP3   OH250489   2.132   0.343  12.231 -0.4790 -0.1889 -0.1304
 8765TIP3    H150490   2.084   0.260  12.228 -1.4433  0.0655  3.4907
 8765TIP3    H250491   2.065   0.410  12.241  0.4113  0.7173 -0.0005
 8766TIP3   OH250492   0.050   3.256  11.978 -0.1944 -0.3543 -0.2527
 8766TIP3    H150493   0.084   3.172  11.948  0.0334 -0.6003  0.6828
 8766TIP3    H250494  -0.045   3.251  11.962 -0.3103 -1.1510  0.6494
 8767TIP3   OH250495   2.185   4.710   9.700 -0.4751 -0.1830 -0.2751
 8767TIP3    H150496   2.262   4.713   9.643 -1.2715  0.0716 -1.3730
 8767TIP3    H250497   2.169   4.617   9.715 -0.8242 -0.3003 -1.2916
 8768TIP3   OH250498   0.989   5.294  13.132 -0.3238  0.1337  1.2565
 8768TIP3    H150499   1.070   5.345  13.139 -0.3320  0.2488  0.5574
 8768TIP3    H250500   0.973   5.264  13.221  0.0983  0.7112  1.5387
 8769TIP3   OH250501   0.004   6.239  11.934 -0.0772  0.0280  0.3253
 8769TIP3    H150502  -0.033   6.270  11.851  1.6724  0.6507 -0.2676
 8769TIP3    H250503   0.047   6.317  11.971  2.5103 -1.1079 -0.1050
 8770TIP3   OH250504   6.100   6.131  12.226 -0.0197  0.3014 -0.7725
 8770TIP3    H150505   6.021   6.186  12.218 -0.1943  0.1779  0.0038
 8770TIP3    H250506   6.173   6.192  12.213 -0.2186  0.7095 -0.0611
 8771TIP3   OH250507   4.408   1.962  10.503 -0.4709 -0.2342  0.0010
 8771TIP3    H150508   4.496   1.934  10.477 -0.0881 -0.5957  1.5973
 8771TIP3    H250509   4.407   1.953  10.598 -2.7563 -1.7341 -0.0872
 8772TIP3   OH250510   6.260   1.103  11.442 -0.2294 -0.0435  0.4324
 8772TIP3    H150511   6.351   1.103  11.471 -0.2355  1.0099  0.4811
 8772TIP3    H250512   6.218   1.036  11.496  0.4907 -0.4948  0.4554
 8773TIP3   OH250513   4.200   0.773   9.713 -0.2873 -0.1447  0.1805
 8773TIP3    H150514   4.231   0.855   9.674  1.4804 -1.2272 -0.7803
 8773TIP3    H250515   4.241   0.770   9.800 -0.8282  0.2332  0.4612
 8774TIP3   OH250516   0.020   3.972  11.272  0.0667  0.7778  0.2112
 8774TIP3    H150517   0.089   3.906  11.272 -0.2847  0.4075 -0.4405
 8774TIP3    H250518  -0.003   3.982  11.364 -0.8177 -1.0070  0.2207
 8775TIP3   OH250519   2.313   4.587  11.923 -0.1078  0.0796  0.0394
 8775TIP3    H150520   2.305   4.586  12.018  0.5848 -0.7549  0.1069
 8775TIP3    H250521   2.302   4.495  11.897  2.4526 -0.1785 -0.4087
 8776TIP3   OH250522   0.036   3.283  17.885 -0.4762  0.7187 -0.2550
 8776TIP3    H150523   0.073   3.351  17.942 -1.7300  0.7837  0.5122
 8776TIP3    H250524   0.076   3.299  17.800  1.4596  0.6044  0.5924
 8777TIP3   OH250525   1.976   1.251  11.751  0.1289 -0.3982 -0.4817
 8777TIP3    H150526   1.945   1.228  11.663 -2.3345 -2.0761  0.6922
 8777TIP3    H250527   2.044   1.186  11.770 -0.2500 -0.8576 -0.6730
 8778TIP3   OH250528   5.316   4.002  10.990  0.3212  0.7847  0.2346
 8778TIP3    H150529   5.389   4.007  11.051  0.0811  1.0061  0.5080
 8778TIP3    H250530   5.353   4.027  10.905  0.6860  0.3381  0.2603
 8779TIP3   OH250531   2.245   2.290   9.768 -0.6306  0.3570  0.0683
 8779TIP3    H150532   2.172   2.229   9.778  0.7477 -1.6362 -1.2270
 8779TIP3    H250533   2.241   2.317   9.676 -0.4487  1.2026  0.3036
 8780TIP3   OH250534   2.015   1.809  10.500  0.0504  0.0584  0.2922
 8780TIP3    H150535   1.998   1.727  10.455  1.7016 -0.0357 -0.2253
 8780TIP3    H250536   2.110   1.814  10.506  0.0118  2.1115 -0.0378
 8781TIP3   OH250537   2.159   3.420  11.564 -0.2616  0.7316 -0.1842
 8781TIP3    H150538   2.208   3.500  11.546 -0.7442  1.3812  1.2867
 8781TIP3    H250539   2.070   3.440  11.537 -0.7996  1.4040  1.9209
 8782TIP3   OH250540   0.276   1.869  12.713 -0.4816  0.6842  0.3735
 8782TIP3    H150541   0.306   1.804  12.777  0.2828  0.1656 -0.4853
 8782TIP3    H250542   0.188   1.841  12.689  0.0410 -0.3550 -0.3824
 8783TIP3   OH250543   1.682   2.515   9.554 -0.2953 -0.1569 -0.1791
 8783TIP3    H150544   1.712   2.600   9.523 -2.1304  0.2604 -0.9955
 8783TIP3    H250545   1.606   2.495   9.498 -3.0044 -0.0056  3.1296
 8784TIP3   OH250546   4.674   6.467  11.976 -0.2644  0.1086  0.3427
 8784TIP3    H150547   4.738   6.451  11.907 -0.5807 -1.2179  0.3424
 8784TIP3    H250548   4.650   6.381  12.009  0.5844  0.7218  2.8052
 8785TIP3   OH250549   2.429   4.775  11.247 -0.4213  0.5177 -0.5462
 8785TIP3    H150550   2.388   4.688  11.245 -0.7664  0.6726 -0.2044
 8785TIP3    H250551   2.401   4.816  11.165 -0.3890  0.3701 -0.6338
 8786TIP3   OH250552   0.505   0.183  10.450 -0.3588 -0.0726  0.6264
 8786TIP3    H150553   0.535   0.192  10.540  1.4557 -0.9800  0.1796
 8786TIP3    H250554   0.561   0.243  10.401 -0.5297 -0.4448 -0.0352
 8787TIP3   OH250555   1.885   3.556  11.645 -0.5111  0.6922 -0.1250
 8787TIP3    H150556   1.898   3.586  11.735 -0.1766  1.1601 -0.3221
 8787TIP3    H250557   1.800   3.512  11.646 -0.7928  1.2371  0.2808
 8788TIP3   OH250558   6.569   5.731  10.935 -0.3193 -0.0949 -0.1632
 8788TIP3    H150559   6.566   5.826  10.926  1.4011 -0.0214 -0.2959
 8788TIP3    H250560   6.521   5.698  10.858 -1.6102  0.6388  0.2985
 8789TIP3   OH250561   0.525   0.604  11.002  0.2531  0.0361 -0.3663
 8789TIP3    H150562   0.447   0.567  11.044  0.0042  0.6780 -0.2582
 8789TIP3    H250563   0.557   0.669  11.065 -1.3636  2.6234 -2.0222
 8790TIP3   OH250564   5.240   2.196  10.648  0.3982  0.6832 -0.0906
 8790TIP3    H150565   5.311   2.260  10.659  0.7253  0.3346 -0.1488
 8790TIP3    H250566   5.196   2.221  10.567  1.5694 -0.1520 -1.0185
 8791TIP3   OH250567   5.817   6.164  12.718 -1.0299 -0.3493 -0.4352
 8791TIP3    H150568   5.816   6.244  12.772  2.0455 -0.1115 -0.5949
 8791TIP3    H250569   5.828   6.196  12.629  1.6530 -0.9110 -0.3703
 8792TIP3   OH250570   6.512   1.281  11.809  0.3584  0.0797 -0.3848
 8792TIP3    H150571   6.487   1.359  11.760 -0.6321  0.2928  0.4349
 8792TIP3    H250572   6.476   1.295  11.896  3.0391  0.2466  0.8055
 8793TIP3   OH250573   3.374   1.457   9.805  0.5322  0.1760 -0.8128
 8793TIP3    H150574   3.400   1.537   9.851 -0.1772 -0.4767  0.7765
 8793TIP3    H250575   3.415   1.466   9.719  1.9845  1.4031 -0.0643
 8794TIP3   OH250576   4.746   2.315   9.698 -0.2255 -0.3960 -0.3505
 8794TIP3    H150577   4.752   2.287   9.606 -0.9769 -0.3631 -0.4149
 8794TIP3    H250578   4.653   2.325   9.714 -0.1777 -1.4070  0.7210
 8795TIP3   OH250579   3.105   2.552  12.414 -0.1028  0.2308  0.0559
 8795TIP3    H150580   3.132   2.504  12.493  0.1095 -0.4483 -0.4207
 8795TIP3    H250581   3.046   2.620  12.446  1.3377  1.0850  1.0177
 8796TIP3   OH250582   0.082   2.091  12.525  0.1692 -0.3718 -0.2150
 8796TIP3    H150583   0.136   2.169  12.511 -1.5542  1.1132  0.9022
 8796TIP3    H250584   0.079   2.049  12.439  1.3901  0.6366 -0.7822
 8797TIP3   OH250585   6.263   1.680   9.888 -0.0454 -0.3837  0.1652
 8797TIP3    H150586   6.335   1.736   9.861 -0.2613 -0.2711 -0.1749
 8797TIP3    H250587   6.233   1.638   9.807 -1.7740  1.2036 -0.0801
 8798TIP3   OH250588   1.802   5.443  10.800 -0.0949 -0.2766  0.0006
 8798TIP3    H150589   1.760   5.367  10.840  0.1161 -0.2673  0.2450
 8798TIP3    H250590   1.817   5.504  10.872  1.3034 -0.7235  0.1246
 8799TIP3   OH250591   2.386   0.196  10.849 -0.1920 -0.6829 -0.7647
 8799TIP3    H150592   2.313   0.254  10.872 -0.2370 -1.0955  0.1980
 8799TIP3    H250593   2.350   0.108  10.859  0.3929 -0.8859 -0.4070
 8800TIP3   OH250594   2.948   2.831  11.994  0.4693 -0.0411  0.0988
 8800TIP3    H150595   2.876   2.799  11.939  0.7229  0.7535 -0.7360
 8800TIP3    H250596   2.932   2.926  12.001  1.6388  0.2205 -0.4520
 8801TIP3   OH250597   6.175   1.935   9.624  0.4104  0.4295  0.0388
 8801TIP3    H150598   6.256   1.950   9.674 -0.2918  0.4394  1.2061
 8801TIP3    H250599   6.157   2.018   9.580  0.9068  0.4934 -0.0491
 8802TIP3   OH250600   5.109   0.326   9.722 -0.1330 -0.0006 -0.1855
 8802TIP3    H150601   5.201   0.349   9.710 -0.4742  0.9417 -1.1734
 8802TIP3    H250602   5.061   0.389   9.668 -1.3766 -0.3140  0.5035
 8803TIP3   OH250603   0.801   0.794  11.705 -0.6702 -0.6327 -0.2821
 8803TIP3    H150604   0.774   0.751  11.625  0.8796  0.6924 -1.5904
 8803TIP3    H250605   0.869   0.737  11.742  0.8406  0.2409 -1.6097
 8804TIP3   OH250606   3.930   0.543  10.963  0.7175  0.3275  0.1049
 8804TIP3    H150607   3.984   0.536  10.884  0.9271 -0.7894  0.3369
 8804TIP3    H250608   3.972   0.613  11.014  1.3421  0.1705 -0.1835
 8805TIP3   OH250609   4.650   5.726   9.998 -0.5857 -0.8884 -0.2219
 8805TIP3    H150610   4.695   5.645   9.973 -0.0868 -0.5363 -0.4672
 8805TIP3    H250611   4.698   5.795   9.954 -0.1078 -0.3052  1.1629
 8806TIP3   OH250612   0.083   5.537   9.716  0.0855 -0.1223 -0.5066
 8806TIP3    H150613   0.169   5.497   9.724 -0.1843 -0.8958 -1.3885
 8806TIP3    H250614   0.078   5.597   9.791  1.2866 -0.2366 -0.3159
 8807TIP3   OH250615   4.706   2.784  11.970  0.6124  0.2420  0.1267
 8807TIP3    H150616   4.761   2.804  12.046 -0.1130 -0.8522  0.9695
 8807TIP3    H250617   4.768   2.780  11.897  1.5526 -0.1461  0.9064
 8808TIP3   OH250618   6.047   6.446  11.461  0.0459 -0.2620  0.4590
 8808TIP3    H150619   6.062   6.493  11.379  0.9712 -2.6917 -0.8693
 8808TIP3    H250620   5.962   6.404  11.449  0.9339 -2.0158 -0.0501
 8809TIP3   OH250621   2.353   1.124   9.987 -0.2213 -0.0065  0.7034
 8809TIP3    H150622   2.333   1.111  10.080  0.5777 -0.4524  0.8157
 8809TIP3    H250623   2.378   1.216   9.981 -1.2325  0.2902  0.7432
 8810TIP3   OH250624   2.807   4.855  12.166 -0.2412  0.2040 -0.5167
 8810TIP3    H150625   2.808   4.932  12.222  1.4723 -1.6339  2.2425
 8810TIP3    H250626   2.879   4.869  12.104  1.2501  0.1000  1.1388
 8811TIP3   OH250627   6.184   3.893  10.213  0.3140 -0.2557 -0.6085
 8811TIP3    H150628   6.160   3.956  10.145  0.7276 -0.6581 -1.1367
 8811TIP3    H250629   6.267   3.925  10.247 -0.2051  0.3053  0.1761
 8812TIP3   OH250630   1.263   3.421  11.720  0.2207  0.6186 -0.0383
 8812TIP3    H150631   1.349   3.420  11.762 -0.0736 -0.4081  0.5630
 8812TIP3    H250632   1.261   3.504  11.672  1.7782  0.3877 -0.5669
 8813TIP3   OH250633   1.154   3.439  11.353 -0.6283 -0.1604  0.1511
 8813TIP3    H150634   1.116   3.514  11.399 -0.9037 -0.5874  0.6327
 8813TIP3    H250635   1.142   3.458  11.261  2.0888  1.8827  0.1062
 8814TIP3   OH250636   4.469   1.317  10.447 -0.1548  0.2898  0.2387
 8814TIP3    H150637   4.506   1.252  10.388 -2.0322  0.2742 -0.9706
 8814TIP3    H250638   4.533   1.322  10.519  2.1853  0.2603 -1.6870
 8815TIP3   OH250639   1.101   3.175  11.467 -0.3706  0.7279  0.0159
 8815TIP3    H150640   1.178   3.119  11.457 -0.1145  0.9056  0.9110
 8815TIP3    H250641   1.124   3.256  11.422 -0.0628  0.7581  0.2273
 8816TIP3   OH250642   0.272   0.481  13.002  0.0995 -0.3224 -0.3455
 8816TIP3    H150643   0.181   0.473  12.975  0.5020 -0.5810 -1.7072
 8816TIP3    H250644   0.299   0.567  12.970  0.0972  0.1375  0.8404
 8817TIP3   OH250645   4.156   5.741   9.904  0.3060  0.0548 -0.2214
 8817TIP3    H150646   4.116   5.828   9.895  0.7417  0.1817 -1.0217
 8817TIP3    H250647   4.227   5.754   9.967 -1.1772 -0.2788  1.5971
 8818TIP3   OH250648   2.317   2.160  10.894 -0.0889 -0.2296 -0.4322
 8818TIP3    H150649   2.391   2.118  10.939 -0.2774 -0.5605 -0.4309
 8818TIP3    H250650   2.240   2.116  10.929 -0.2812  0.0289 -0.5290
 8819TIP3   OH250651   3.565   5.761  10.079 -0.0580 -0.5248  0.6690
 8819TIP3    H150652   3.492   5.796  10.130  0.5313  0.6216  0.7518
 8819TIP3    H250653   3.644   5.793  10.124  0.4798 -0.5667 -0.2241
 8820TIP3   OH250654   0.918   0.941  10.190  0.3223 -0.0302  0.0002
 8820TIP3    H150655   0.843   0.882  10.190  0.3596 -0.1018  0.8636
 8820TIP3    H250656   0.994   0.884  10.180  0.3422 -0.1105  0.5715
 8821TIP3   OH250657   3.474   0.619  11.666  0.6236 -0.2822  0.0716
 8821TIP3    H150658   3.425   0.595  11.745 -0.5207  0.3430 -0.4344
 8821TIP3    H250659   3.487   0.536  11.620  0.5293 -0.5254  0.4770
 8822TIP3   OH250660   5.087   2.371  11.123 -0.0117 -0.1147  0.3218
 8822TIP3    H150661   5.181   2.366  11.138  0.0510 -1.0982 -0.3135
 8822TIP3    H250662   5.079   2.406  11.034 -0.1830 -1.7601 -0.3444
 8823TIP3   OH250663   6.178   0.584  12.034  0.5044  0.1899  0.1074
 8823TIP3    H150664   6.106   0.644  12.048 -0.2101 -0.5077 -0.4849
 8823TIP3    H250665   6.149   0.528  11.961  1.6506 -0.0710 -0.1726
 8824TIP3   OH250666   5.649   2.031  11.046 -0.6477 -0.1632 -0.1854
 8824TIP3    H150667   5.670   2.037  10.953 -2.0434  1.6994 -0.4260
 8824TIP3    H250668   5.571   2.085  11.058  0.6650  1.4049  2.4145
 8825TIP3   OH250669   3.327   4.006  11.429 -0.0047 -0.3642  0.2180
 8825TIP3    H150670   3.309   4.040  11.517  0.7709  0.6947 -0.0129
 8825TIP3    H250671   3.241   3.988  11.392 -0.3884  0.2559  0.7826
 8826TIP3   OH250672   3.752   1.025  10.619  0.3037  0.4300  0.3365
 8826TIP3    H150673   3.763   0.930  10.617 -0.9433  0.2783 -0.7032
 8826TIP3    H250674   3.733   1.048  10.528  1.8269  1.8481  0.3422
 8827TIP3   OH250675   3.708   1.297  11.499  0.3865  0.0954 -0.0680
 8827TIP3    H150676   3.711   1.289  11.403  1.9116  0.1329 -0.0410
 8827TIP3    H250677   3.617   1.278  11.521 -0.0234  0.2077 -1.5382
 8828TIP3   OH250678   2.695   3.023  11.156 -0.0029  0.2555 -0.2443
 8828TIP3    H150679   2.610   3.032  11.198 -0.4054 -1.2137 -0.7057
 8828TIP3    H250680   2.752   2.987  11.225  0.1536  0.8661 -0.0500
 8829TIP3   OH250681   3.713   4.040  11.069  0.4706 -0.2553  0.1827
 8829TIP3    H150682   3.754   4.064  11.152 -1.7634  0.8843  1.0275
 8829TIP3    H250683   3.631   4.089  11.067  0.1390 -0.7453 -2.4187
 8830TIP3   OH250684   5.526   4.290  13.385  0.0492  0.3817  0.5636
 8830TIP3    H150685   5.476   4.315  13.307  1.5355 -1.1197 -0.9659
 8830TIP3    H250686   5.616   4.318  13.365  0.3410  0.5609  2.0464
 8831TIP3   OH250687   6.056   1.874  10.214 -0.2040  0.2408 -0.5733
 8831TIP3    H150688   6.069   1.780  10.220  0.9966  0.3934 -0.5326
 8831TIP3    H250689   5.961   1.886  10.216 -0.3566 -0.9477 -0.3855
 8832TIP3   OH250690   4.614   3.654  10.123  0.7208 -0.2412  0.2018
 8832TIP3    H150691   4.705   3.667  10.152 -0.1359  0.9716  2.6424
 8832TIP3    H250692   4.575   3.741  10.130 -0.6740 -0.7785 -0.6766
 8833TIP3   OH250693   0.598   0.016   9.872  0.3584 -0.4288 -0.3006
 8833TIP3    H150694   0.674   0.035   9.818 -0.8065  0.8179 -1.5827
 8833TIP3    H250695   0.567   0.102   9.902  0.4597 -1.0282  1.6992
 8834TIP3   OH250696   6.419   5.813  11.622 -0.0944  0.0476  0.2937
 8834TIP3    H150697   6.326   5.804  11.644  0.0844 -2.3293  0.2799
 8834TIP3    H250698   6.464   5.755  11.683  1.3719  0.7804 -0.0432
 8835TIP3   OH250699   6.163   5.432  10.392  0.3500 -0.1257  1.0084
 8835TIP3    H150700   6.134   5.492  10.461 -1.4758 -1.4952  1.4842
 8835TIP3    H250701   6.154   5.345  10.430  0.5288 -0.8450 -0.5260
 8836TIP3   OH250702   2.974   5.403  10.634 -0.1735 -0.2416 -0.1160
 8836TIP3    H150703   2.914   5.475  10.653  0.4435  0.5314 -0.9885
 8836TIP3    H250704   2.934   5.357  10.561 -0.8875 -1.1903  0.8538
 8837TIP3   OH250705   4.440   1.304  11.029  0.4749 -0.2740 -0.1724
 8837TIP3    H150706   4.410   1.248  10.956  0.1786  0.2619 -0.4680
 8837TIP3    H250707   4.499   1.247  11.079  0.6967 -0.6555 -0.8351
 8838TIP3   OH250708   1.503   3.903  11.832  0.2003  0.8061 -0.4508
 8838TIP3    H150709   1.577   3.902  11.770 -0.6507  1.4180 -1.5015
 8838TIP3    H250710   1.495   3.995  11.857  0.0607  0.6724 -0.0027
 8839TIP3   OH250711   5.195   1.547  10.677  0.6707 -0.1368 -0.1827
 8839TIP3    H150712   5.243   1.509  10.750 -1.1388 -1.5601  0.3322
 8839TIP3    H250713   5.125   1.484  10.658  1.2013  0.0640 -3.3016
 8840TIP3   OH250714   5.990   3.125  11.242 -0.3734 -0.2673  0.1751
 8840TIP3    H150715   6.073   3.136  11.195 -0.6253  0.7642 -0.0543
 8840TIP3    H250716   6.008   3.058  11.308  0.3148 -0.9034 -0.6248
 8841TIP3   OH250717   1.329   1.676  11.321 -0.1423 -0.5765 -0.0930
 8841TIP3    H150718   1.292   1.608  11.378  1.8302 -1.8846 -0.2471
 8841TIP3    H250719   1.396   1.718  11.375  0.1184 -0.2102 -0.6900
 8842TIP3   OH250720   4.170   5.727  10.410 -0.3276  0.3916  0.6518
 8842TIP3    H150721   4.082   5.736  10.448  0.4009  2.9662  1.9482
 8842TIP3    H250722   4.214   5.663  10.465 -1.4960 -1.3616 -0.3522
 8843TIP3   OH250723   0.756   1.144  12.840 -0.0348 -0.2587 -0.4638
 8843TIP3    H150724   0.674   1.170  12.882  0.8657 -0.8003  1.8002
 8843TIP3    H250725   0.818   1.212  12.864  0.3076 -0.0537 -1.8345
 8844TIP3   OH250726   3.941   6.299  12.203  0.2451  0.8011 -0.6638
 8844TIP3    H150727   4.014   6.246  12.235 -0.3217  0.4336  0.0413
 8844TIP3    H250728   3.901   6.336  12.282  1.2303  3.1360 -1.1689
 8845TIP3   OH250729   3.760   4.478  11.617  0.0014  0.7015 -0.3075
 8845TIP3    H150730   3.746   4.556  11.671  0.8984  1.7337 -1.5085
 8845TIP3    H250731   3.770   4.512  11.528 -2.6836 -1.0190 -1.4098
 8846TIP3   OH250732   5.519   5.803  11.816  0.3781 -0.1412 -0.1207
 8846TIP3    H150733   5.610   5.822  11.794  0.1883  0.3886 -0.4393
 8846TIP3    H250734   5.514   5.707  11.812  0.6154 -0.1154 -1.3218
 8847TIP3   OH250735   2.053   1.437  12.476 -0.2087 -0.7611 -0.0316
 8847TIP3    H150736   2.107   1.514  12.493  1.3480 -1.5469 -1.2405
 8847TIP3    H250737   1.983   1.443  12.541  0.2333  1.3098  0.3330
 8848TIP3   OH250738   3.952   3.015  11.664  0.2384  0.6594  0.5636
 8848TIP3    H150739   4.006   2.959  11.719  1.8416  1.2650 -0.3230
 8848TIP3    H250740   4.006   3.093  11.648 -0.4176  0.7777 -1.3174
 8849TIP3   OH250741   3.716   1.014   9.935  0.7208  0.4940 -0.2160
 8849TIP3    H150742   3.706   0.992   9.842 -0.9659 -0.8714  0.2288
 8849TIP3    H250743   3.712   1.109   9.938 -0.9585  0.5021 -1.4116
 8850TIP3   OH250744   6.541   3.350  12.357  0.1824 -0.1470  0.1535
 8850TIP3    H150745   6.548   3.394  12.442  0.0199 -2.5298  1.4858
 8850TIP3    H250746   6.631   3.350  12.323  1.2890 -3.0969  2.5420
 8851TIP3   OH250747   1.772   6.455  12.347  0.4014  0.3377 -0.2050
 8851TIP3    H150748   1.857   6.415  12.327 -0.2833 -0.8910 -0.7927
 8851TIP3    H250749   1.719   6.383  12.379 -0.4730  1.0637  0.0007
 8852TIP3   OH250750   5.804   5.941  10.444 -0.2847 -0.2717  0.1276
 8852TIP3    H150751   5.844   5.940  10.531  1.2280 -0.8285 -0.5422
 8852TIP3    H250752   5.858   6.003  10.394 -0.9456 -0.2041 -0.5145
 8853TIP3   OH250753   0.607   4.145  10.254  0.1281 -0.5943 -0.0152
 8853TIP3    H150754   0.519   4.162  10.288 -0.0438 -1.5754  0.0717
 8853TIP3    H250755   0.640   4.231  10.228  0.5035  0.3437  3.1567
 8854TIP3   OH250756   1.680   5.172  10.950 -0.8591 -0.5089  0.4385
 8854TIP3    H150757   1.629   5.091  10.959  0.8998 -1.9468 -1.6176
 8854TIP3    H250758   1.755   5.159  11.008 -1.3007  0.3536  1.2402
 8855TIP3   OH250759   2.370   6.005  11.533  0.2379 -0.0130  0.0996
 8855TIP3    H150760   2.414   5.990  11.449  3.3993  1.7476  1.2797
 8855TIP3    H250761   2.406   5.938  11.591 -2.3688 -1.6055  0.0441
 8856TIP3   OH250762   0.174   1.208  12.000 -0.3057 -0.2382 -0.2553
 8856TIP3    H150763   0.135   1.230  12.085  1.0608  1.8613 -0.0760
 8856TIP3    H250764   0.258   1.169  12.022 -0.4864 -0.8487 -0.6442
 8857TIP3   OH250765   0.526   3.213  12.680 -0.3907  0.2440  0.2946
 8857TIP3    H150766   0.452   3.212  12.740 -1.0670 -2.0569 -0.4567
 8857TIP3    H250767   0.514   3.291  12.626 -1.4458  0.6882  1.1654
 8858TIP3   OH250768   4.697   3.176  10.569 -0.2741 -0.1395  0.1448
 8858TIP3    H150769   4.603   3.186  10.584 -0.3777  1.2332 -1.1562
 8858TIP3    H250770   4.702   3.124  10.488  0.1089 -0.7958  0.5830
 8859TIP3   OH250771   2.402   0.123  11.551 -0.0682 -0.0416  0.1368
 8859TIP3    H150772   2.407   0.218  11.549  2.7581 -0.1379 -1.4649
 8859TIP3    H250773   2.445   0.098  11.633 -1.1316  0.0325  0.7346
 8860TIP3   OH250774   0.468   0.679  13.468  0.2110 -0.3014  0.4511
 8860TIP3    H150775   0.407   0.752  13.482 -0.0231 -0.4113  0.0073
 8860TIP3    H250776   0.468   0.666  13.373 -2.0089 -2.7936  0.6988
 8861TIP3   OH250777   3.708   5.591  11.449 -0.5618  1.3099 -0.1845
 8861TIP3    H150778   3.766   5.523  11.484 -1.4922  1.2226  1.2581
 8861TIP3    H250779   3.646   5.544  11.393  0.0650  1.2589 -0.8445
 8862TIP3   OH250780   1.715   2.498   9.185  0.3925  0.0246 -0.1556
 8862TIP3    H150781   1.760   2.582   9.194  2.2133 -0.9702  0.4819
 8862TIP3    H250782   1.675   2.502   9.098  1.2700  1.1753 -0.5401
 8863TIP3   OH250783   1.613   4.651  12.550 -0.0413 -0.5537 -0.4487
 8863TIP3    H150784   1.522   4.630  12.572 -0.6743  0.2884 -2.1008
 8863TIP3    H250785   1.665   4.581  12.590 -1.4796 -1.4406 -0.0828
 8864TIP3   OH250786   6.108   0.873  12.384  0.0890  0.0246 -0.1550
 8864TIP3    H150787   6.149   0.887  12.469  0.4323 -0.0820 -0.2989
 8864TIP3    H250788   6.043   0.804  12.400 -0.1986  0.3576  0.1226
 8865TIP3   OH250789   2.931   1.268  11.755  0.2603  0.3409 -0.7481
 8865TIP3    H150790   2.915   1.237  11.665  0.4140 -0.2343 -0.5808
 8865TIP3    H250791   2.930   1.189  11.808 -1.6356  0.8345  0.0331
 8866TIP3   OH250792   5.525   0.408  10.000 -0.1638  0.2942 -0.1649
 8866TIP3    H150793   5.467   0.440  10.070 -0.3734 -2.3385  0.9700
 8866TIP3    H250794   5.482   0.329   9.968  2.8434 -1.9816  0.9333
 8867TIP3   OH250795   3.912   1.918  10.769  0.0719 -0.2727  0.4054
 8867TIP3    H150796   3.985   1.980  10.773 -0.0034 -0.2620  2.2284
 8867TIP3    H250797   3.954   1.834  10.748  0.5955 -0.2134  1.1769
 8868TIP3   OH250798   4.130   2.018  10.266 -0.8687  0.4607  0.0313
 8868TIP3    H150799   4.088   1.932  10.264  2.2073 -1.2388  1.4695
 8868TIP3    H250800   4.136   2.043  10.174 -1.7105 -0.9178 -0.4410
 8869TIP3   OH250801   2.399   0.794  11.095  0.2337 -0.1731  0.1539
 8869TIP3    H150802   2.486   0.756  11.080 -1.0460 -2.9090 -1.2897
 8869TIP3    H250803   2.361   0.740  11.165 -0.4050  0.7845  0.5621
 8870TIP3   OH250804   3.516   6.074   9.797 -0.3369 -0.4082  0.0419
 8870TIP3    H150805   3.593   6.076   9.854 -0.4581 -0.4426  0.2089
 8870TIP3    H250806   3.542   6.123   9.719 -0.5240  0.5942  0.5915
 8871TIP3   OH250807   5.818   1.151  11.216  0.0225  0.2651 -0.8807
 8871TIP3    H150808   5.847   1.141  11.307 -0.6272  2.2500 -0.4062
 8871TIP3    H250809   5.774   1.068  11.196 -1.5508  0.4882  1.3011
 8872TIP3   OH250810   2.611   4.849  11.942 -0.5631  0.6409 -0.2789
 8872TIP3    H150811   2.586   4.941  11.954  1.0326  0.9939  0.6313
 8872TIP3    H250812   2.664   4.829  12.019 -1.4573 -1.2740 -0.1222
 8873TIP3   OH250813   1.982   2.831  10.264  0.2053  0.4932 -0.0952
 8873TIP3    H150814   1.994   2.914  10.309  1.5177  0.5166 -0.4385
 8873TIP3    H250815   2.066   2.814  10.222 -0.0612 -0.9609 -0.1134
 8874TIP3   OH250816   3.156   4.360  11.473  0.1888  0.2541  0.5595
 8874TIP3    H150817   3.130   4.270  11.488 -1.6109  0.4542 -0.9945
 8874TIP3    H250818   3.251   4.356  11.461  0.0391 -1.5740 -0.3614
 8875TIP3   OH250819   5.063   4.517  12.098  0.4304  0.1939 -0.0861
 8875TIP3    H150820   4.983   4.487  12.140  1.6840 -1.9062  0.9823
 8875TIP3    H250821   5.098   4.583  12.157 -0.3461  0.8967 -0.4043
 8876TIP3   OH250822   4.869   2.429  10.674  0.1522  0.2961  0.1011
 8876TIP3    H150823   4.930   2.399  10.606 -0.5056 -0.3429 -0.2302
 8876TIP3    H250824   4.866   2.357  10.737  1.2144  1.1308  1.1460
 8877TIP3   OH250825   1.213   1.412  12.725 -0.0765 -0.0465 -0.0582
 8877TIP3    H150826   1.301   1.399  12.760  0.6052  0.1284 -1.6285
 8877TIP3    H250827   1.179   1.488  12.773  0.2271 -0.7019  1.2413
 8878TIP3   OH250828   5.593   2.660   9.842 -0.1865  0.4185  0.0979
 8878TIP3    H150829   5.584   2.755   9.841 -2.1841  0.3040  1.2118
 8878TIP3    H250830   5.622   2.640   9.931 -0.4670 -0.0423  0.0897
 8879TIP3   OH250831   6.224   5.472   9.712 -0.4820  0.1839 -1.0261
 8879TIP3    H150832   6.239   5.561   9.682  0.2167 -0.4129 -2.5550
 8879TIP3    H250833   6.311   5.434   9.720 -0.6775  0.0029  0.9479
 8880TIP3   OH250834   1.923   6.533   9.933 -0.0631  0.1482 -0.1250
 8880TIP3    H150835   1.894   6.572   9.850 -1.7615 -0.3230  0.2010
 8880TIP3    H250836   1.916   6.605   9.996 -1.8221 -0.2434  0.1917
 8881TIP3   OH250837   4.189   2.094  11.867 -0.0527 -0.3828  0.3146
 8881TIP3    H150838   4.146   2.109  11.783 -0.5494 -1.0459  0.4410
 8881TIP3    H250839   4.167   2.170  11.920  2.1831  1.2290 -0.8731
 8882TIP3   OH250840   5.065   0.071  11.702 -0.2906  0.5502  0.1735
 8882TIP3    H150841   5.028   0.016  11.632 -2.5006  0.9194  0.9718
 8882TIP3    H250842   5.143   0.110  11.663  1.0120 -2.5418 -0.6829
 8883TIP3   OH250843   4.574   3.552   9.411  0.6310  0.5476 -0.0265
 8883TIP3    H150844   4.568   3.520   9.501 -1.4438  2.5076  0.6391
 8883TIP3    H250845   4.639   3.622   9.414  4.0206 -2.2645 -1.1574
 8884TIP3   OH250846   0.075   4.307  11.495 -0.6429 -0.5766 -0.1471
 8884TIP3    H150847   0.024   4.226  11.497  0.9196 -1.6160 -1.0139
 8884TIP3    H250848   0.166   4.279  11.505 -0.2180  1.2667  1.6657
 8885TIP3   OH250849   6.068   3.756  11.982 -0.2361  0.3479 -0.0058
 8885TIP3    H150850   6.033   3.675  12.019  0.5296 -0.5008 -1.0674
 8885TIP3    H250851   5.996   3.819  11.989 -1.3686 -0.8461 -0.5382
 8886TIP3   OH250852   1.428   6.301  12.956 -0.1582  0.6841 -0.2907
 8886TIP3    H150853   1.385   6.377  12.996  0.0052  0.2231  0.8110
 8886TIP3    H250854   1.487   6.269  13.024 -0.0432 -0.2777 -0.8294
 8887TIP3   OH250855   0.475   6.061  12.642 -0.3222 -0.0985  0.0520
 8887TIP3    H150856   0.510   6.141  12.682  0.6281 -0.6182  0.2984
 8887TIP3    H250857   0.536   5.992  12.671 -1.1994 -0.9261 -0.0483
 8888TIP3   OH250858   1.980   6.277  13.169 -0.1355 -0.1884  0.1404
 8888TIP3    H150859   2.008   6.207  13.110  0.6041 -0.2272  0.5186
 8888TIP3    H250860   1.919   6.330  13.118 -0.0485 -0.6296 -0.4216
 8889TIP3   OH250861   5.911   4.150   9.818  0.6529  0.4306 -0.3289
 8889TIP3    H150862   5.945   4.061   9.816  0.7835  0.4756 -0.1663
 8889TIP3    H250863   5.818   4.141   9.840  0.3673  0.2563 -1.5154
 8890TIP3   OH250864   2.371   0.521  10.930 -0.2411 -0.1779  0.0372
 8890TIP3    H150865   2.284   0.488  10.906 -0.3237 -0.2355  0.4020
 8890TIP3    H250866   2.379   0.500  11.023  0.3850 -0.6434 -0.1217
 8891TIP3   OH250867   0.005   3.651  11.496 -0.0425 -0.5859  0.3893
 8891TIP3    H150868   0.100   3.653  11.492 -0.0675 -1.0434 -1.1994
 8891TIP3    H250869  -0.020   3.570  11.451 -1.2386  1.1969 -2.4464
 8892TIP3   OH250870   4.766   1.011  10.929  0.0959  0.3780 -0.5466
 8892TIP3    H150871   4.716   0.952  10.872 -0.8707  0.9712 -0.3474
 8892TIP3    H250872   4.788   1.086  10.873  1.8490 -0.4091 -0.9673
 8893TIP3   OH250873   1.306   5.851   9.496 -0.3458  0.5376 -0.4764
 8893TIP3    H150874   1.285   5.814   9.411 -1.0486  0.4334 -0.2674
 8893TIP3    H250875   1.223   5.848   9.545  0.0935  0.3909  0.2823
 8894TIP3   OH250876   5.727   3.215  11.969  0.4161 -0.5466  0.3334
 8894TIP3    H150877   5.717   3.181  11.880 -2.0802 -1.6968  0.9651
 8894TIP3    H250878   5.703   3.142  12.026 -1.3904  1.0994  1.8302
 8895TIP3   OH250879   5.883   0.956  10.579  0.3986  0.0896  0.0343
 8895TIP3    H150880   5.902   0.877  10.528  1.9262  0.8842 -0.6786
 8895TIP3    H250881   5.968   0.997  10.594 -0.0977  0.4141  2.4274
 8896TIP3   OH250882   3.076   4.122  12.895  0.1724  0.6402 -0.4161
 8896TIP3    H150883   3.049   4.184  12.827  0.3821 -0.2162 -1.3131
 8896TIP3    H250884   3.017   4.139  12.968 -0.6900  0.9645 -1.1603
 8897TIP3   OH250885   1.023   0.560  12.211  0.1162  0.3335 -0.5274
 8897TIP3    H150886   1.010   0.646  12.170 -4.8151  0.6598  1.0225
 8897TIP3    H250887   0.979   0.500  12.151  1.0628 -0.7054 -0.1990
 8898TIP3   OH250888   3.328   5.467  11.707 -0.1773  0.2285 -0.4001
 8898TIP3    H150889   3.239   5.487  11.737  1.1560  1.4386  3.1487
 8898TIP3    H250890   3.362   5.406  11.771  1.6321 -0.1786 -1.6701
 8899TIP3   OH250891   4.229   5.191  12.718  0.2708  0.1664  0.2694
 8899TIP3    H150892   4.209   5.099  12.732 -0.7717  0.3623  0.1720
 8899TIP3    H250893   4.286   5.192  12.641  0.7643 -0.4304  0.6179
 8900TIP3   OH250894   5.261   2.137  10.033  0.3000  0.3339 -0.7713
 8900TIP3    H150895   5.227   2.059   9.988  0.6821 -0.3296  0.0635
 8900TIP3    H250896   5.353   2.118  10.048 -0.0981 -0.1385  1.5739
 8901TIP3   OH250897   3.626   6.068  11.656  0.3906  0.0307 -0.2963
 8901TIP3    H150898   3.706   6.121  11.654  0.7963 -0.5329  0.5242
 8901TIP3    H250899   3.654   5.983  11.690 -0.2978 -0.6445 -1.3291
 8902TIP3   OH250900   5.929   3.644  11.556 -0.5731 -0.1007  1.2088
 8902TIP3    H150901   5.861   3.628  11.622  0.4579 -1.2067  2.0341
 8902TIP3    H250902   6.005   3.674  11.606 -0.1031  0.0667  0.4102
 8903TIP3   OH250903   4.586   5.305  10.196  0.5824  0.4016  0.1274
 8903TIP3    H150904   4.503   5.295  10.242  0.9258 -2.0520  0.3802
 8903TIP3    H250905   4.641   5.356  10.255 -0.7506  2.2456 -0.1419
 8904TIP3   OH250906   1.987   1.587  11.930  0.1660  0.1728  0.2524
 8904TIP3    H150907   2.003   1.679  11.950 -0.0009  0.0027  1.1963
 8904TIP3    H250908   2.073   1.553  11.905  0.3343  0.4538  0.4457
 8905TIP3   OH250909   3.166   6.107  10.730  0.2411 -0.2746  0.4243
 8905TIP3    H150910   3.074   6.129  10.712  0.5738  0.8111 -0.0484
 8905TIP3    H250911   3.215   6.147  10.658  1.1907  0.2417  1.3193
 8906TIP3   OH250912   2.389   1.739  10.017 -0.1421  0.2377  0.0177
 8906TIP3    H150913   2.361   1.826  10.043 -0.2645  0.3398 -0.4416
 8906TIP3    H250914   2.458   1.716  10.079  1.8305  1.7970 -1.4758
 8907TIP3   OH250915   3.862   1.988   9.874  0.5111 -0.3000 -0.1629
 8907TIP3    H150916   3.783   2.039   9.859 -0.2133 -1.8240 -1.9193
 8907TIP3    H250917   3.855   1.958   9.965 -1.4638 -1.2510 -0.5828
 8908TIP3   OH250918   4.767   1.449  10.980  0.6734 -0.6983  0.3594
 8908TIP3    H150919   4.761   1.419  11.071  0.8253  1.9416  1.3370
 8908TIP3    H250920   4.827   1.388  10.939 -0.1426 -2.5345  1.7602
 8909TIP3   OH250921   3.766   0.755  10.728  0.5162  0.3212  0.1764
 8909TIP3    H150922   3.712   0.797  10.795  2.2549  0.8683  1.3249
 8909TIP3    H250923   3.724   0.671  10.713 -1.4940  1.3259 -0.1384
 8910TIP3   OH250924   3.164   3.043  11.339  0.3909  0.2931  0.0825
 8910TIP3    H150925   3.252   3.076  11.358  0.7316 -0.4055 -0.2283
 8910TIP3    H250926   3.139   2.995  11.418  2.0213 -3.0625 -1.2195
 8911TIP3   OH250927   1.862   0.507  10.382 -0.2248  0.0406 -0.3547
 8911TIP3    H150928   1.847   0.543  10.470 -0.6041 -0.3429 -0.2607
 8911TIP3    H250929   1.800   0.435  10.374 -0.1884  0.0674 -0.9396
 8912TIP3   OH250930   0.748   4.149  10.652  0.7265  0.3108  0.0535
 8912TIP3    H150931   0.818   4.192  10.602  0.9841 -0.2250 -0.0629
 8912TIP3    H250932   0.775   4.155  10.743  0.3959  1.0422  0.1069
 8913TIP3   OH250933   3.549   2.200  11.177 -0.6591 -0.7330 -0.3833
 8913TIP3    H150934   3.630   2.172  11.221  0.3765  0.8663 -1.1657
 8913TIP3    H250935   3.496   2.237  11.247  0.5489  0.8770 -0.2580
 8914TIP3   OH250936   6.320   5.314  13.372  0.2168  0.4660  0.4160
 8914TIP3    H150937   6.312   5.220  13.388  0.8333  0.3890  0.2935
 8914TIP3    H250938   6.289   5.354  13.453 -1.7944  0.2231 -0.1777
 8915TIP3   OH250939   1.445   1.929  12.040  0.7138 -0.7368  0.0416
 8915TIP3    H150940   1.456   1.886  12.124 -0.6980 -1.4636 -0.1291
 8915TIP3    H250941   1.528   1.977  12.027  0.6954 -0.0249  2.1401
 8916TIP3   OH250942   5.383   4.099   9.794 -0.3563  0.0571  1.0247
 8916TIP3    H150943   5.427   4.066   9.716 -0.3967 -2.7062  2.0352
 8916TIP3    H250944   5.310   4.151   9.762 -0.5357 -1.2400 -0.7857
 8917TIP3   OH250945   6.077   5.276   9.885  0.5769  0.4242 -0.0239
 8917TIP3    H150946   6.144   5.341   9.866 -1.5535  2.5718 -0.7875
 8917TIP3    H250947   6.071   5.274   9.980  1.4114  0.5057  0.0399
 8918TIP3   OH250948   1.466   1.842  12.323  0.6071 -0.1387 -0.0660
 8918TIP3    H150949   1.546   1.820  12.370  0.4205 -0.9557 -0.1137
 8918TIP3    H250950   1.406   1.769  12.343 -0.1239  0.4576 -0.0251
 8919TIP3   OH250951   1.333   5.343  11.847  0.0851 -0.1888  0.0437
 8919TIP3    H150952   1.389   5.421  11.842 -0.1745 -0.0229 -0.3361
 8919TIP3    H250953   1.299   5.332  11.758  0.8664 -1.2948 -0.1362
 8920TIP3   OH250954   2.442   5.190  10.458 -0.3860  0.1843 -0.2266
 8920TIP3    H150955   2.481   5.277  10.468  1.3094 -0.6107  0.7119
 8920TIP3    H250956   2.348   5.205  10.459 -0.1329  2.0554 -0.6804
 8921TIP3   OH250957   6.445   1.823  11.188 -0.4802 -0.0988 -0.8064
 8921TIP3    H150958   6.350   1.808  11.194 -0.5174  0.5649  0.6791
 8921TIP3    H250959   6.470   1.784  11.104 -2.1341  0.0796 -1.4207
 8922TIP3   OH250960   5.298   6.104   9.954 -0.3229  0.3624 -0.4896
 8922TIP3    H150961   5.343   6.152   9.885  1.5060  0.7555  0.8866
 8922TIP3    H250962   5.288   6.167  10.025  0.5871 -0.7843  0.7178
 8923TIP3   OH250963   5.498   6.301  10.458 -0.5118 -0.4409  0.2126
 8923TIP3    H150964   5.423   6.318  10.514  1.4525 -1.3867  3.3366
 8923TIP3    H250965   5.474   6.223  10.408 -1.3974 -1.1144  1.6398
 8924TIP3   OH250966   6.569   4.558  10.845 -0.0063  0.1520 -0.0481
 8924TIP3    H150967   6.554   4.465  10.829 -1.4995  0.0876  1.3424
 8924TIP3    H250968   6.651   4.578  10.801  0.0521 -1.6822 -0.8610
 8925TIP3   OH250969   1.009   6.602  12.445 -0.0416  0.0244 -0.0674
 8925TIP3    H150970   1.008   6.665  12.373 -0.1401 -0.5875 -0.6123
 8925TIP3    H250971   0.945   6.635  12.507  0.9772  1.2668  0.3642
 8926TIP3   OH250972   6.307   2.951  10.470  0.0957  0.1446  0.0565
 8926TIP3    H150973   6.298   3.040  10.504 -1.7454 -0.5198  1.4819
 8926TIP3    H250974   6.328   2.898  10.547  2.4260 -0.5577 -0.9515
 8927TIP3   OH250975   4.345   4.897  11.304 -0.4934  0.1755 -0.4510
 8927TIP3    H150976   4.258   4.863  11.323 -0.0199 -0.8207 -0.0186
 8927TIP3    H250977   4.401   4.820  11.300  0.0643  0.6232 -2.5313
 8928TIP3   OH250978   1.003   5.013  11.012 -0.2513 -0.4109 -0.3141
 8928TIP3    H150979   0.956   5.040  11.091 -0.0259 -0.7241 -0.0695
 8928TIP3    H250980   1.006   5.091  10.958  0.3598  0.0513  0.3656
 8929TIP3   OH250981   4.316   3.764  10.735 -0.4747  0.1929  0.4912
 8929TIP3    H150982   4.363   3.723  10.808  0.0142 -0.7813 -0.3420
 8929TIP3    H250983   4.347   3.717  10.658 -3.0051 -0.6685 -0.0737
 8930TIP3   OH250984   5.858   0.066  12.538  0.2636 -0.1785  0.2681
 8930TIP3    H150985   5.789   0.083  12.603 -0.6510  0.5717 -0.8562
 8930TIP3    H250986   5.822   0.100  12.456  1.1562 -1.6225 -0.7516
 8931TIP3   OH250987   3.186   2.457  10.695  0.1685  0.0292  0.2766
 8931TIP3    H150988   3.218   2.529  10.750  0.8306  0.0986 -0.1914
 8931TIP3    H250989   3.099   2.486  10.668  0.1533  0.3477  0.6441
 8932TIP3   OH250990   1.454   1.946  11.291  0.9018  0.3337  0.2838
 8932TIP3    H150991   1.373   1.980  11.253  0.8714  0.7039  0.6746
 8932TIP3    H250992   1.462   1.858  11.254 -1.2551 -0.9220  2.4934
 8933TIP3   OH250993   1.355   3.209  10.924 -0.0783 -0.0519  0.3106
 8933TIP3    H150994   1.424   3.233  10.862 -0.6340  0.9571  0.0541
 8933TIP3    H250995   1.307   3.139  10.881 -0.1008  0.2470 -0.1584
 8934TIP3   OH250996   3.749   0.677  12.120 -0.1014  0.2522 -0.0871
 8934TIP3    H150997   3.709   0.623  12.053  0.2717 -0.1983  0.0521
 8934TIP3    H250998   3.677   0.730  12.155 -0.4424 -0.0830 -0.2879
 8935TIP3   OH250999   0.428   0.469  10.113  0.3112 -0.6265 -0.3768
 8935TIP3    H151000   0.520   0.466  10.089  0.5764 -0.8501  0.6385
 8935TIP3    H251001   0.422   0.535  10.182 -0.2104 -0.9414 -0.1088
 8936TIP3   OH251002   1.113   1.835  10.286  0.0701  0.0431  0.7167
 8936TIP3    H151003   1.070   1.855  10.203  0.6292 -1.6619 -0.0184
 8936TIP3    H251004   1.207   1.835  10.266  0.2000 -0.6377  1.2618
 8937TIP3   OH251005   1.442   0.981  12.610  0.3484  0.4115  0.2175
 8937TIP3    H151006   1.462   0.957  12.520  0.3933 -1.3512  0.6637
 8937TIP3    H251007   1.525   1.012  12.646  0.6286 -0.1261  0.0322
 8938TIP3   OH251008   0.801   1.186  10.271 -0.6445  0.0883  0.3074
 8938TIP3    H151009   0.854   1.114  10.236 -0.2262  0.5458 -0.0248
 8938TIP3    H251010   0.711   1.165  10.245 -0.5048 -0.2404  0.0866
 8939TIP3   OH251011   2.332   3.075  11.516 -0.4327  0.4011  0.8275
 8939TIP3    H151012   2.337   3.155  11.568  0.5578  0.4953  0.6172
 8939TIP3    H251013   2.364   3.006  11.574 -0.6013  0.2776  0.7741
 8940TIP3   OH251014   3.522   4.874  11.600  0.0375 -0.5146 -0.3119
 8940TIP3    H151015   3.528   4.779  11.600 -0.4569 -0.6097  2.1827
 8940TIP3    H251016   3.452   4.894  11.539 -0.2338 -1.7899 -0.4422
 8941TIP3   OH251017   5.559   2.193   9.182  0.0307  0.2464  0.5570
 8941TIP3    H151018   5.588   2.223   9.096 -0.8666  0.3956  0.2939
 8941TIP3    H251019   5.505   2.264   9.215 -0.6684 -0.3368  0.6897
 8942TIP3   OH251020   0.697   2.184  12.340  0.1414 -0.1439 -0.4308
 8942TIP3    H151021   0.757   2.109  12.349  0.1187 -0.2149 -0.8353
 8942TIP3    H251022   0.633   2.155  12.275 -0.3553 -0.0778  0.0252
 8943TIP3   OH251023   6.255   6.294  12.551  0.2649 -0.1105 -0.5844
 8943TIP3    H151024   6.160   6.282  12.545  0.4154 -1.8906 -0.0888
 8943TIP3    H251025   6.273   6.369  12.495 -1.2993 -0.4410 -1.6032
 8944TIP3   OH251026   1.862   5.711  12.701  0.5090 -0.1257 -0.1807
 8944TIP3    H151027   1.782   5.662  12.678  0.5397 -0.5307  0.5501
 8944TIP3    H251028   1.839   5.803  12.686  0.1591 -0.2918 -0.7155
 8945TIP3   OH251029   5.688   1.058  10.392 -0.5354  0.5640  0.1564
 8945TIP3    H151030   5.637   0.995  10.442  1.3301  0.3672  1.9294
 8945TIP3    H251031   5.773   1.061  10.436  0.5452  1.8781 -1.8557
 8946TIP3   OH251032   0.156   1.327  11.759  0.5507  0.1069  0.2762
 8946TIP3    H151033   0.065   1.330  11.786  0.6795 -0.5315  0.8111
 8946TIP3    H251034   0.198   1.267  11.821  1.6628  1.5629  1.0125
 8947TIP3   OH251035   2.635   4.334  11.288  0.1184 -0.3364 -0.3055
 8947TIP3    H151036   2.584   4.349  11.367 -2.3910  1.5534 -2.1211
 8947TIP3    H251037   2.712   4.391  11.297 -0.1089 -0.1970  0.7758
 8948TIP3   OH251038   2.278   1.403   9.976  0.1032  0.5745 -0.9138
 8948TIP3    H151039   2.359   1.436  10.014  1.0216 -1.1306 -1.2796
 8948TIP3    H251040   2.285   1.424   9.882  0.5636 -0.3667 -1.1006
 8949TIP3   OH251041   1.782   2.027   9.856  0.4829  0.0662 -0.5021
 8949TIP3    H151042   1.745   1.949   9.816 -0.2988 -0.5129  1.2665
 8949TIP3    H251043   1.871   2.032   9.821 -0.4597  0.2425 -3.1173
 8950TIP3   OH251044   6.223   4.761  11.012  0.4527  0.0222  0.2544
 8950TIP3    H151045   6.270   4.829  11.061  1.1281 -0.0154 -0.3315
 8950TIP3    H251046   6.251   4.773  10.921 -2.7097  1.7973 -0.6549
 8951TIP3   OH251047   0.107   0.931  10.778 -0.5069 -0.5440  0.4044
 8951TIP3    H151048   0.199   0.912  10.758 -0.8361  0.9256 -3.2808
 8951TIP3    H251049   0.105   1.025  10.796 -1.2173 -0.7019  1.2086
 8952TIP3   OH251050   6.128   1.109  12.191 -0.0463  0.4202  0.5972
 8952TIP3    H151051   6.076   1.102  12.111  1.1071 -0.8199 -0.0998
 8952TIP3    H251052   6.109   1.029  12.239  0.1311  0.6281  1.0160
 8953TIP3   OH251053   3.438   5.504  10.821  0.3393 -0.0900 -0.1313
 8953TIP3    H151054   3.367   5.567  10.835  0.7297  0.2284  0.4337
 8953TIP3    H251055   3.397   5.434  10.770 -0.4418 -0.0089  0.3593
 8954TIP3   OH251056   2.148   2.802  11.538  0.1344  0.0315 -0.3621
 8954TIP3    H151057   2.104   2.759  11.465 -0.4314  0.8692 -0.5288
 8954TIP3    H251058   2.084   2.864  11.572  0.4376 -0.2410  0.7655
 8955TIP3   OH251059   1.231   1.544  10.751 -0.0157 -0.6121 -0.2363
 8955TIP3    H151060   1.145   1.577  10.775  0.3503  0.5919 -0.4967
 8955TIP3    H251061   1.218   1.450  10.738 -1.6003 -0.2595 -1.5970
 8956TIP3   OH251062   1.063   0.913  11.550  0.1150 -0.1915 -0.0131
 8956TIP3    H151063   1.019   0.828  11.541  0.4947 -0.3943  0.0537
 8956TIP3    H251064   1.129   0.914  11.481  0.5672 -0.2316  0.4153
 8957TIP3   OH251065   4.262   2.489  11.185  0.1882 -0.1072  0.7801
 8957TIP3    H151066   4.334   2.436  11.153  0.7162 -0.1852  2.0185
 8957TIP3    H251067   4.286   2.579  11.162 -1.0498 -0.3898 -1.9589
 8958TIP3   OH251068   2.806   1.662   9.766  0.8284 -0.2977  0.3866
 8958TIP3    H151069   2.745   1.736   9.764  1.4829  0.2438 -1.0024
 8958TIP3    H251070   2.853   1.672   9.849 -2.0475 -1.6920  2.3551
 8959TIP3   OH251071   3.355   4.610  11.058 -0.1757  0.3147  0.0964
 8959TIP3    H151072   3.369   4.686  11.001  0.4816 -0.9128 -1.4693
 8959TIP3    H251073   3.441   4.566  11.062 -0.7213 -0.7854  0.2673
 8960TIP3   OH251074   3.588   1.518  10.324 -0.4294  0.3063  0.3167
 8960TIP3    H151075   3.550   1.430  10.318 -2.6767  1.0962  1.6956
 8960TIP3    H251076   3.676   1.509  10.288 -0.9206 -2.2948 -0.4225
 8961TIP3   OH251077   4.230   2.296  12.145 -0.0426  0.0504  0.3351
 8961TIP3    H151078   4.266   2.380  12.174  1.2756 -0.0564 -0.8680
 8961TIP3    H251079   4.301   2.233  12.160 -0.5203 -0.5903 -0.0374
 8962TIP3   OH251080   6.463   6.181  10.480  0.6157 -0.0890 -0.6760
 8962TIP3    H151081   6.525   6.233  10.430 -0.9326  2.9818  0.3769
 8962TIP3    H251082   6.468   6.215  10.569 -1.6448 -0.6240 -0.2817
 8963TIP3   OH251083   0.661   6.094  11.090 -0.2462  0.1012 -0.3176
 8963TIP3    H151084   0.704   6.020  11.047 -0.9502 -1.0575  0.8902
 8963TIP3    H251085   0.602   6.054  11.154 -2.2390  1.6674 -1.0670
 8964TIP3   OH251086   4.667   0.269  11.284  0.1416  0.1078  0.0041
 8964TIP3    H151087   4.637   0.327  11.214 -1.6265 -2.0627 -1.1720
 8964TIP3    H251088   4.646   0.181  11.253  1.2028 -1.0930  2.4063
 8965TIP3   OH251089   0.088   1.235  12.292 -0.2079 -0.0582  0.1616
 8965TIP3    H151090   0.080   1.145  12.324 -1.4862 -0.5175 -1.3876
 8965TIP3    H251091   0.004   1.276  12.312 -0.5303  0.0495 -1.3142
 8966TIP3   OH251092   3.512   2.610  11.509  0.0477  0.0422  0.3002
 8966TIP3    H151093   3.539   2.588  11.597  2.3186 -1.7988 -0.7588
 8966TIP3    H251094   3.547   2.698  11.494  2.7290 -0.9418  0.1696
 8967TIP3   OH251095   1.764   1.594  11.717 -0.2543  0.5649  0.0413
 8967TIP3    H151096   1.843   1.552  11.750  0.5132  1.3422 -0.7312
 8967TIP3    H251097   1.772   1.685  11.746 -0.3192  0.9000 -0.9493
 8968TIP3   OH251098   6.182   2.248  12.250  0.2996  0.6331 -0.5137
 8968TIP3    H151099   6.218   2.316  12.307 -1.4413  0.0693  1.3651
 8968TIP3    H251100   6.153   2.179  12.309 -2.0859  0.2347 -2.0026
 8969TIP3   OH251101   0.129   1.712  10.349  0.1317 -0.0552  0.5682
 8969TIP3    H151102   0.212   1.676  10.379  0.2407 -1.6611 -1.4537
 8969TIP3    H251103   0.151   1.762  10.270 -0.4567  2.0278  1.6577
 8970TIP3   OH251104   0.271   1.077  13.230  0.4175 -0.1665  0.1830
 8970TIP3    H151105   0.224   1.036  13.303 -1.5227 -0.4753 -1.1517
 8970TIP3    H251106   0.205   1.130  13.186  1.4695 -0.1440 -1.4553
 8971TIP3   OH251107   5.753   2.954  10.399  0.1454  0.7395  0.7454
 8971TIP3    H151108   5.840   2.988  10.383  0.3600  0.5382  1.4273
 8971TIP3    H251109   5.703   2.977  10.321  1.6047 -1.9790 -1.1665
 8972TIP3   OH251110   2.911   0.920  12.683 -0.0945 -0.2849  0.4479
 8972TIP3    H151111   3.000   0.944  12.708  0.0991  1.5747 -1.6666
 8972TIP3    H251112   2.857   0.949  12.756  0.7785  1.3911  0.4946
 8973TIP3   OH251113   2.825   2.151  11.854 -0.4477 -0.2511 -0.4558
 8973TIP3    H151114   2.848   2.076  11.800 -0.2262 -0.7821  0.3599
 8973TIP3    H251115   2.824   2.225  11.793  1.8683 -0.4574 -0.8280
 8974TIP3   OH251116   2.031   4.747   9.922 -0.3981  0.0362  0.2427
 8974TIP3    H151117   2.102   4.732   9.860  0.5448  0.1993  1.2370
 8974TIP3    H251118   2.074   4.744  10.008 -1.9956 -2.5757  1.0731
 8975TIP3   OH251119   4.252   6.229  10.538 -0.0377  0.3938 -0.2770
 8975TIP3    H151120   4.203   6.203  10.616  1.0136  1.4835  0.7923
 8975TIP3    H251121   4.254   6.151  10.484  0.0075 -0.6964  1.2261
 8976TIP3   OH251122   6.181   5.106  12.478 -0.3439  0.1137 -0.8932
 8976TIP3    H151123   6.205   5.181  12.425  0.3904  0.1294 -0.5619
 8976TIP3    H251124   6.227   5.120  12.561 -2.3531  0.6578  0.1902
 8977TIP3   OH251125   3.582   0.202  10.662  0.1577  0.5458  0.0502
 8977TIP3    H151126   3.600   0.199  10.568  1.1920  1.9749  0.1764
 8977TIP3    H251127   3.513   0.137  10.675  1.1071 -0.8306 -1.4344
 8978TIP3   OH251128   5.612   0.346  11.786 -0.1695  0.2153 -0.4658
 8978TIP3    H151129   5.639   0.262  11.824  1.8992  1.4100  0.9097
 8978TIP3    H251130   5.635   0.338  11.693  1.5032 -0.2156 -0.0489
 8979TIP3   OH251131   4.847   2.429  12.101  0.0200 -0.2329  0.5191
 8979TIP3    H151132   4.900   2.509  12.110 -1.2123  0.6380  0.3138
 8979TIP3    H251133   4.911   2.360  12.086  1.0433  1.0524 -1.5833
 8980TIP3   OH251134   0.952   4.225  11.102  0.8208  0.2867  0.0501
 8980TIP3    H151135   0.869   4.237  11.056  0.5216  0.2451  0.5772
 8980TIP3    H251136   0.934   4.252  11.192  0.6909 -2.0501  0.7951
 8981TIP3   OH251137   4.873   5.552  11.759 -0.4119 -0.2601  0.7726
 8981TIP3    H151138   4.778   5.554  11.770 -0.5871 -1.1500 -0.3639
 8981TIP3    H251139   4.901   5.472  11.803 -0.1639  0.0649  1.2154
 8982TIP3   OH251140   5.909   4.890   9.608 -0.0442  0.3090 -0.1176
 8982TIP3    H151141   5.898   4.884   9.703  0.6630  0.4727 -0.0145
 8982TIP3    H251142   6.000   4.919   9.597 -0.0207 -0.0286 -0.8538
 8983TIP3   OH251143   0.439   6.548  10.438 -0.2784  0.2730  0.0825
 8983TIP3    H151144   0.455   6.643  10.438 -0.3779  0.2950 -0.6345
 8983TIP3    H251145   0.526   6.510  10.426 -0.3346  0.3007 -0.4423
 8984TIP3   OH251146   3.877   1.976  10.141 -1.3170 -0.2877 -0.2433
 8984TIP3    H151147   3.845   2.051  10.190  0.9207 -0.9620  2.5221
 8984TIP3    H251148   3.843   1.900  10.188  0.2947 -0.9650 -0.1005
 8985TIP3   OH251149   6.493   6.015   9.827  0.1514  0.5124 -0.5133
 8985TIP3    H151150   6.411   6.050   9.861 -0.3029  0.9221 -1.9501
 8985TIP3    H251151   6.477   5.922   9.815 -0.2973  0.6809 -1.2884
 8986TIP3   OH251152   3.638   2.162   9.904 -0.0365 -0.0233 -0.1184
 8986TIP3    H151153   3.599   2.204   9.980  1.4938 -2.5444  2.2317
 8986TIP3    H251154   3.575   2.093   9.880 -0.2409  0.3951 -0.8249
 8987TIP3   OH251155   0.778   0.366  10.352  0.3072  0.2571 -0.1180
 8987TIP3    H151156   0.767   0.343  10.444 -0.0936  0.3259 -0.1471
 8987TIP3    H251157   0.873   0.364  10.338  0.3477 -0.1206  0.1990
 8988TIP3   OH251158   4.441   4.436  11.193 -0.4279 -0.1775  0.3513
 8988TIP3    H151159   4.453   4.389  11.110 -1.4861 -0.0063  0.0973
 8988TIP3    H251160   4.434   4.366  11.258 -2.6504 -0.4616 -0.1071
 8989TIP3   OH251161   4.540   5.928  11.793 -0.0616 -0.0926 -0.2371
 8989TIP3    H151162   4.535   5.835  11.813  0.0755 -0.2869 -1.0549
 8989TIP3    H251163   4.461   5.965  11.831 -0.5708 -0.7033 -0.6787
 8990TIP3   OH251164   5.508   0.181  11.163 -0.3394 -0.0217  0.4035
 8990TIP3    H151165   5.567   0.108  11.142 -1.3087 -0.4214 -1.1556
 8990TIP3    H251166   5.474   0.160  11.250  0.2094 -0.8733  0.4254
 8991TIP3   OH251167   5.094   1.415  12.108  0.0815  0.3969 -0.3767
 8991TIP3    H151168   5.030   1.486  12.105  0.7919  1.0507 -0.3121
 8991TIP3    H251169   5.132   1.421  12.196  1.1389  0.8483 -0.8394
 8992TIP3   OH251170   6.575   3.806  10.226 -0.3464  0.2730  0.5140
 8992TIP3    H151171   6.508   3.854  10.274  0.0419 -0.6749  2.0755
 8992TIP3    H251172   6.635   3.774  10.293  0.8519 -0.1656 -0.7123
 8993TIP3   OH251173   0.791   4.396  10.362 -0.2483  0.2412 -0.3025
 8993TIP3    H151174   0.697   4.405  10.348 -0.5527  1.5524  2.1720
 8993TIP3    H251175   0.828   4.478  10.328 -0.0402  0.0032 -0.6687
 8994TIP3   OH251176   6.372   0.702  12.798 -0.1894 -0.5146  0.3639
 8994TIP3    H151177   6.403   0.612  12.806 -1.5602 -1.3562 -2.5816
 8994TIP3    H251178   6.283   0.694  12.763 -1.4468  1.9573  2.6247
 8995TIP3   OH251179   6.273   4.373  12.479  0.3416 -0.1414 -0.5947
 8995TIP3    H151180   6.245   4.370  12.388 -0.4394  2.0976 -0.4867
 8995TIP3    H251181   6.228   4.449  12.516 -0.8806 -2.0123  2.1980
 8996TIP3   OH251182   0.211   2.514  11.852 -0.4506  0.1056  0.3142
 8996TIP3    H151183   0.280   2.448  11.842  0.5315  1.2156 -0.6401
 8996TIP3    H251184   0.255   2.588  11.894 -0.5413  1.5161 -1.9186
 8997TIP3   OH251185   3.245   5.707  12.789 -0.2781  0.0658 -0.1550
 8997TIP3    H151186   3.171   5.746  12.744  0.5668  1.2469 -0.5772
 8997TIP3    H251187   3.215   5.697  12.880 -0.8720  0.7460 -0.2657
 8998TIP3   OH251188   0.155   3.663  10.362  0.3484  0.1982 -0.3022
 8998TIP3    H151189   0.232   3.611  10.340  0.6519  0.1893  0.7761
 8998TIP3    H251190   0.173   3.699  10.448 -1.2277 -0.5171  0.3628
 8999TIP3   OH251191   3.316   3.363  10.656 -0.3425 -0.3055 -0.0790
 8999TIP3    H151192   3.224   3.390  10.656 -0.5290 -0.9070 -1.0443
 8999TIP3    H251193   3.338   3.354  10.563  0.0632 -2.2583  0.1703
 9000TIP3   OH251194   0.865   5.527  10.747 -0.4910 -0.0002 -0.1863
 9000TIP3    H151195   0.774   5.550  10.728  0.0221  0.0119 -3.0032
 9000TIP3    H251196   0.866   5.431  10.745 -0.8660 -0.1533  2.5328
 9001TIP3   OH251197   6.041   5.706  10.030  0.1148  0.8231  0.0636
 9001TIP3    H151198   6.037   5.790  10.076  0.2295  0.0635  1.5106
 9001TIP3    H251199   6.134   5.685  10.027  0.1256  0.9417 -0.7020
 9002TIP3   OH251200   3.270   1.396  11.072 -0.1062  0.2672  0.4259
 9002TIP3    H151201   3.351   1.423  11.115 -0.1633  1.0601  0.0507
 9002TIP3    H251202   3.282   1.420  10.980 -0.3953 -0.4765  0.1832
 9003TIP3   OH251203   2.816   1.959  11.609  0.2698 -0.1514 -0.4658
 9003TIP3    H151204   2.849   1.892  11.549 -1.0978 -0.8525 -0.4908
 9003TIP3    H251205   2.834   2.042  11.566  0.9701 -0.5617 -0.9751
 9004TIP3   OH251206   1.380   1.247  12.165  0.7067  0.5706 -0.2918
 9004TIP3    H151207   1.401   1.282  12.078  1.2434  0.2899 -0.2751
 9004TIP3    H251208   1.367   1.153  12.151  0.1220  0.6293 -0.1823
 9005TIP3   OH251209   2.798   4.419  10.579 -0.1764 -0.3943  0.6603
 9005TIP3    H151210   2.721   4.416  10.522 -0.1111 -0.3589  0.5714
 9005TIP3    H251211   2.868   4.381  10.527 -0.4965 -1.9421  1.3049
 9006TIP3   OH251212   6.304   5.479  10.780 -0.6279  0.1196  0.6742
 9006TIP3    H151213   6.337   5.422  10.710  0.7222  0.5266  0.9405
 9006TIP3    H251214   6.348   5.563  10.765  1.4965 -0.3771  3.2382
 9007TIP3   OH251215   4.739   1.980  11.949  0.1168  0.3059 -0.1407
 9007TIP3    H151216   4.817   2.010  11.903  0.8283 -1.6583 -0.2675
 9007TIP3    H251217   4.771   1.936  12.027 -0.7877 -1.2690 -0.6113
 9008TIP3   OH251218   4.772   4.253  11.374  0.2527 -0.0054 -0.1330
 9008TIP3    H151219   4.812   4.239  11.288 -0.3226 -1.4275 -0.2107
 9008TIP3    H251220   4.761   4.348  11.381 -0.8921  0.0784 -2.2162
 9009TIP3   OH251221   4.362   5.198  10.481 -0.4529  0.4415  0.5796
 9009TIP3    H151222   4.331   5.231  10.397  0.4668  0.3695  0.1983
 9009TIP3    H251223   4.443   5.247  10.498  0.5962 -1.1277  0.3040
 9010TIP3   OH251224   4.532   6.254  11.769  0.1138  0.6827 -0.0683
 9010TIP3    H151225   4.447   6.210  11.771 -1.2361  3.0527 -0.8501
 9010TIP3    H251226   4.562   6.253  11.860 -0.7956 -0.1015  0.2424
 9011TIP3   OH251227   3.384   2.953  12.093  0.5789 -0.3162 -0.0676
 9011TIP3    H151228   3.457   2.967  12.153 -0.1842  0.9572  0.6420
 9011TIP3    H251229   3.316   2.912  12.147  0.6405 -1.1614 -0.6229
 9012TIP3   OH251230   2.419   1.165  11.744  0.3071 -0.0904  0.4596
 9012TIP3    H151231   2.491   1.103  11.755 -1.6597 -2.6722 -0.1425
 9012TIP3    H251232   2.357   1.143  11.813 -0.0299  1.9643  0.8773
 9013TIP3   OH251233   1.406   4.709   9.900 -0.1418  0.1115 -0.2322
 9013TIP3    H151234   1.323   4.730   9.857  0.2524  1.3256 -0.4375
 9013TIP3    H251235   1.454   4.656   9.836 -1.4671 -2.2479  0.5857
 9014TIP3   OH251236   5.089   4.457  11.580  0.4661  0.4207  0.2601
 9014TIP3    H151237   5.171   4.410  11.594 -1.3739 -2.4989  2.6296
 9014TIP3    H251238   5.060   4.481  11.668 -1.2738  1.2205 -0.4828
 9015TIP3   OH251239   0.623   5.418  12.818 -0.3211 -0.1310 -0.0669
 9015TIP3    H151240   0.538   5.376  12.832 -1.7252  2.2292 -0.8443
 9015TIP3    H251241   0.656   5.436  12.906  0.4706 -2.9424  0.3028
 9016TIP3   OH251242   3.627   3.429  10.280 -0.1535  0.0163 -0.5457
 9016TIP3    H151243   3.647   3.515  10.319 -2.1095  0.8899 -1.3190
 9016TIP3    H251244   3.652   3.439  10.188  1.6938 -1.0444 -0.2052
 9017TIP3   OH251245   6.095   4.657  12.324 -0.4226  0.4154 -0.3429
 9017TIP3    H151246   6.104   4.692  12.412 -2.1004  2.0204 -0.7327
 9017TIP3    H251247   6.031   4.587  12.331  2.5127 -2.4519  0.3355
 9018TIP3   OH251248   0.541   3.497  12.944  0.0302 -0.4178  0.5329
 9018TIP3    H151249   0.635   3.508  12.935  0.0498 -1.0832 -0.1238
 9018TIP3    H251250   0.504   3.552  12.874  0.0124 -1.6223 -0.4467
 9019TIP3   OH251251   6.008   3.511  12.096  0.6419 -0.6852  0.4866
 9019TIP3    H151252   6.039   3.458  12.023 -1.1724 -0.2711 -0.6669
 9019TIP3    H251253   5.920   3.477  12.114 -0.6157  1.9169 -0.3480
 9020TIP3   OH251254   2.999   6.391   9.951 -0.9456 -0.2594  0.0715
 9020TIP3    H151255   3.011   6.485   9.965  0.2648 -0.3095 -0.4826
 9020TIP3    H251256   2.956   6.385   9.866  0.4651 -0.2239 -0.6806
 9021TIP3   OH251257   2.208   0.567  11.836  0.3308  0.1972 -0.2673
 9021TIP3    H151258   2.133   0.512  11.813  0.6002 -0.1942 -0.2308
 9021TIP3    H251259   2.176   0.622  11.907 -0.0613  0.3641 -0.5709
 9022TIP3   OH251260   5.195   5.701  10.035  0.5590  0.4828  0.4782
 9022TIP3    H151261   5.126   5.747  10.084 -1.2806 -1.1901 -0.3623
 9022TIP3    H251262   5.233   5.767   9.978 -0.7156  1.3675  0.6098
 9023TIP3   OH251263   5.519   3.749  11.819 -0.1649 -0.1390  0.4271
 9023TIP3    H151264   5.443   3.738  11.875  0.2695 -0.8469  0.8984
 9023TIP3    H251265   5.572   3.671  11.835  1.2898  0.9342  1.1185
 9024TIP3   OH251266   3.229   2.232  10.343 -0.2074 -0.1885  0.2083
 9024TIP3    H151267   3.230   2.324  10.319  0.4799 -0.3855 -0.5612
 9024TIP3    H251268   3.307   2.220  10.398 -0.4148 -0.2654  0.4884
 9025TIP3   OH251269   0.267   2.657  10.574  0.3883 -0.2894 -0.0511
 9025TIP3    H151270   0.323   2.585  10.605  0.2468 -0.2122  0.3878
 9025TIP3    H251271   0.237   2.628  10.487 -0.1930 -1.0580  0.3981
 9026TIP3   OH251272   0.982   0.801  12.041 -0.2452  0.6093 -0.4235
 9026TIP3    H151273   0.929   0.737  11.992  2.1942 -1.8691 -0.0509
 9026TIP3    H251274   1.051   0.826  11.980  0.1274  1.1146  0.2000
 9027TIP3   OH251275   1.380   3.790  12.358 -0.2172  0.1944 -0.2130
 9027TIP3    H151276   1.333   3.725  12.306 -0.9426 -0.6655  1.4668
 9027TIP3    H251277   1.323   3.867  12.357 -0.9386 -0.3180  0.5060
 9028TIP3   OH251278   1.380   1.832   9.444  0.3836  0.1001  0.9299
 9028TIP3    H151279   1.331   1.754   9.420 -0.3685  0.5527  0.9440
 9028TIP3    H251280   1.347   1.855   9.532  1.6254 -0.3755  1.5338
 9029TIP3   OH251281   0.303   3.038  10.945  0.1515  0.1879 -0.4590
 9029TIP3    H151282   0.396   3.049  10.967  0.1558  2.0155 -1.1959
 9029TIP3    H251283   0.303   2.984  10.866  0.6068  0.3084 -0.5434
 9030TIP3   OH251284   5.201   1.956  12.361  0.0592 -0.1454 -0.6627
 9030TIP3    H151285   5.151   2.027  12.401 -0.9776 -0.1838 -1.7919
 9030TIP3    H251286   5.137   1.885  12.351  0.6369 -0.6167 -1.1166
 9031TIP3   OH251287   1.434   6.576  12.817  0.7701 -0.1399  0.0797
 9031TIP3    H151288   1.360   6.608  12.768  0.2384 -0.1367  0.8646
 9031TIP3    H251289   1.430   6.622  12.901  1.2564 -0.6362  0.3874
 9032TIP3   OH251290   2.171   1.336   9.523 -0.3066  0.4138  1.0331
 9032TIP3    H151291   2.115   1.297   9.591 -1.5136  0.5774  0.1737
 9032TIP3    H251292   2.109   1.377   9.463  0.8140  1.7249  0.7170
 9033TIP3   OH251293   2.322   4.779  11.739 -0.2016 -0.3524  0.3038
 9033TIP3    H151294   2.328   4.865  11.781 -0.5952 -0.9769  1.6967
 9033TIP3    H251295   2.336   4.717  11.810  0.5498 -1.4583 -0.7653
 9034TIP3   OH251296   1.638   3.749   9.481 -0.3667  0.0300 -0.2822
 9034TIP3    H151297   1.691   3.825   9.502  1.0832 -0.9538 -0.2621
 9034TIP3    H251298   1.552   3.785   9.458 -0.6567  1.4728  2.6468
 9035TIP3   OH251299   2.348   3.531  12.366  0.3687 -0.1167 -0.0846
 9035TIP3    H151300   2.443   3.522  12.358  0.2263 -1.7654 -0.1201
 9035TIP3    H251301   2.321   3.576  12.286  1.2555  1.6861  0.5713
 9036TIP3   OH251302   1.659   3.214  11.328 -0.2498 -0.3073 -0.2830
 9036TIP3    H151303   1.704   3.247  11.250 -1.6033  0.0880 -0.9278
 9036TIP3    H251304   1.601   3.286  11.353  2.7501  1.1728  3.3679
 9037TIP3   OH251305   0.356   3.933  12.038  0.1479  0.2392  0.1241
 9037TIP3    H151306   0.286   3.997  12.024 -0.4845 -0.8172 -1.9203
 9037TIP3    H251307   0.310   3.850  12.054  0.8697 -0.5440 -1.6145
 9038TIP3   OH251308   1.474   1.307  11.443 -0.4482 -0.5085  0.2885
 9038TIP3    H151309   1.446   1.215  11.441 -0.0982 -0.6097 -1.3217
 9038TIP3    H251310   1.554   1.307  11.494 -1.5721 -0.7328  2.1442
 9039TIP3   OH251311   0.000   2.161   9.877  0.3889 -1.1938  0.2146
 9039TIP3    H151312  -0.079   2.137   9.925  0.3745 -1.6749 -0.0452
 9039TIP3    H251313   0.033   2.238   9.923 -1.2719  0.1888 -0.7972
 9040TIP3   OH251314   1.662   2.920  10.690  0.2927 -0.1645  0.5661
 9040TIP3    H151315   1.612   3.001  10.706  2.0410  0.9942  0.4390
 9040TIP3    H251316   1.619   2.880  10.614 -0.5421  0.7095  0.5549
 9041TIP3   OH251317   0.665   1.412  11.639 -0.2452  0.8597  0.1441
 9041TIP3    H151318   0.630   1.475  11.576  1.4755  0.3454 -1.4119
 9041TIP3    H251319   0.697   1.340  11.585 -0.1574 -0.3543  1.7415
 9042TIP3   OH251320   0.771   0.022  13.159 -0.0846 -0.1126 -0.4705
 9042TIP3    H151321   0.826  -0.016  13.227 -0.7435  0.0398  0.1459
 9042TIP3    H251322   0.770  -0.045  13.090  0.7755 -0.1668 -0.4484
 9043TIP3   OH251323   1.090   1.296  10.423  0.1025  0.2796  0.5700
 9043TIP3    H151324   1.085   1.389  10.405  1.0421  0.3714  0.7629
 9043TIP3    H251325   1.009   1.260  10.386  0.4699  0.9327 -0.9323
 9044TIP3   OH251326   4.224   5.855  10.766  0.1971  0.2142 -0.0637
 9044TIP3    H151327   4.187   5.840  10.852 -0.4795  0.0520 -0.3737
 9044TIP3    H251328   4.298   5.794  10.760 -2.2178 -2.8230 -1.1350
 9045TIP3   OH251329   4.413   4.759   9.609 -0.1235  0.2500  0.1543
 9045TIP3    H151330   4.339   4.807   9.571 -0.1277  0.2912  0.2149
 9045TIP3    H251331   4.391   4.667   9.596 -0.0851  0.2641 -0.0207
 9046TIP3   OH251332   1.509   3.579  12.621 -0.4626  0.0497  0.0162
 9046TIP3    H151333   1.536   3.540  12.538 -0.6675 -1.3270  0.5766
 9046TIP3    H251334   1.585   3.632  12.647 -0.3357  0.3745 -0.9592
 9047TIP3   OH251335   1.982   2.452  13.456  0.0621  0.1378 -0.1691
 9047TIP3    H151336   1.906   2.455  13.398 -0.9190  0.6744  1.1019
 9047TIP3    H251337   1.971   2.526  13.516  0.6140 -0.8410  1.2189
 9048TIP3   OH251338   5.195   5.531  11.959  0.1027  0.9609  0.1213
 9048TIP3    H151339   5.204   5.535  12.054 -0.8621 -0.8267  0.3251
 9048TIP3    H251340   5.146   5.610  11.936 -2.0916  0.0806  1.4821
 9049TIP3   OH251341   2.329   4.593  12.460 -0.0208 -0.6869 -0.2621
 9049TIP3    H151342   2.271   4.602  12.536 -0.8019 -0.3274 -0.8905
 9049TIP3    H251343   2.414   4.568  12.498 -0.6333 -1.4615  0.6499
 9050TIP3   OH251344   3.096   0.807  10.278 -0.0187 -0.2973 -0.2897
 9050TIP3    H151345   3.186   0.807  10.245  0.6153  0.5818  1.2706
 9050TIP3    H251346   3.060   0.723  10.251  1.0558 -0.4059 -1.4922
 9051TIP3   OH251347   3.668   6.024   9.456  0.3616  0.2500 -0.3601
 9051TIP3    H151348   3.757   6.047   9.433  0.1979  0.5215 -0.7311
 9051TIP3    H251349   3.636   6.099   9.507  1.1026 -0.8255  1.8063
 9052TIP3   OH251350   2.972   3.876   9.744  0.0669  0.2406  0.2510
 9052TIP3    H151351   3.016   3.798   9.712  1.9319  0.4318  2.1477
 9052TIP3    H251352   2.879   3.855   9.738  0.5098 -2.0263  0.4357
 9053TIP3   OH251353   4.576   3.308  10.258 -0.7544  0.2715 -0.1419
 9053TIP3    H151354   4.505   3.296  10.196 -1.5652  0.5208  0.7096
 9053TIP3    H251355   4.614   3.220  10.268 -2.0679 -0.2304  0.6919
 9054TIP3   OH251356   2.739   1.458  11.744  0.0029 -0.1649  0.0209
 9054TIP3    H151357   2.767   1.513  11.670 -1.7617 -0.9606 -1.3310
 9054TIP3    H251358   2.815   1.404  11.763  0.8111  0.7156 -0.5748
 9055TIP3   OH251359   6.451   4.985  12.424  0.3941  0.1628 -0.3678
 9055TIP3    H151360   6.430   4.911  12.481 -1.5127 -2.3676 -3.9212
 9055TIP3    H251361   6.543   4.971  12.399  0.4928 -0.1432  0.1582
 9056TIP3   OH251362   0.491   2.653   9.938 -0.3530 -0.8715 -0.1683
 9056TIP3    H151363   0.508   2.606   9.857  2.7188 -0.6701  0.2071
 9056TIP3    H251364   0.577   2.689   9.962 -1.6414  1.0028  1.9650
 9057TIP3   OH251365   5.551   2.362  10.501  0.0039 -0.2368 -0.2893
 9057TIP3    H151366   5.462   2.367  10.465 -0.1727 -0.7851  0.0619
 9057TIP3    H251367   5.588   2.283  10.462  0.6531  0.4658 -1.1185
 9058TIP3   OH251368   3.985   0.652  10.458  0.0584 -0.2919 -0.3358
 9058TIP3    H151369   3.929   0.661  10.535  0.3056  0.2476 -0.2188
 9058TIP3    H251370   4.074   0.663  10.491  0.0621  2.6373 -1.0643
 9059TIP3   OH251371   2.703   4.358  10.332  0.5940 -0.3739  0.9119
 9059TIP3    H151372   2.733   4.321  10.249  0.1846 -0.8301  0.9590
 9059TIP3    H251373   2.681   4.449  10.312  0.2046 -0.5645  0.4475
 9060TIP3   OH251374   3.302   4.690  11.700  0.4220  0.0907  0.2412
 9060TIP3    H151375   3.280   4.783  11.706 -0.5286 -0.1299  0.3612
 9060TIP3    H251376   3.218   4.647  11.686  1.0805 -0.5674 -2.1866
 9061TIP3   OH251377   0.925   5.270  11.484  0.1251 -0.1544  0.3143
 9061TIP3    H151378   0.834   5.273  11.515 -0.3607  0.6983 -1.1146
 9061TIP3    H251379   0.961   5.355  11.509 -0.2677  0.5360 -1.3747
 9062TIP3   OH251380   1.387   6.135  11.819  0.0452  0.0535 -0.1134
 9062TIP3    H151381   1.462   6.074  11.819 -0.8627 -1.0985  0.6630
 9062TIP3    H251382   1.384   6.168  11.909 -0.5022 -0.0639 -0.0900
 9063TIP3   OH251383   5.865   4.223  12.569  0.5401 -0.3305  0.1754
 9063TIP3    H151384   5.907   4.137  12.574  0.3343 -0.6620 -2.2908
 9063TIP3    H251385   5.891   4.257  12.483 -2.4633  0.3678 -0.5653
 9064TIP3   OH251386   4.566   6.004  10.357  0.4899 -0.0989 -0.4765
 9064TIP3    H151387   4.499   5.970  10.416  1.6056 -1.1378  0.2391
 9064TIP3    H251388   4.521   6.015  10.273 -0.6888 -0.2977  0.1185
 9065TIP3   OH251389   4.690   5.450   9.530 -0.0901  0.8419 -0.0719
 9065TIP3    H151390   4.778   5.420   9.552  0.5344  1.6731 -1.3164
 9065TIP3    H251391   4.637   5.427   9.606  0.3076 -3.3157 -0.7861
 9066TIP3   OH251392   3.515   3.083   9.881 -0.6434 -0.0463 -0.4301
 9066TIP3    H151393   3.438   3.058   9.932 -1.6457  1.8059 -0.9528
 9066TIP3    H251394   3.553   3.000   9.852 -1.9239 -1.0237  0.5715
 9067TIP3   OH251395   1.482   1.246  12.483  0.3551 -0.5948 -0.5752
 9067TIP3    H151396   1.572   1.219  12.465  0.4671 -0.9312  0.4282
 9067TIP3    H251397   1.462   1.309  12.414  1.4640 -0.2808 -0.6355
 9068TIP3   OH251398   1.459   3.225  10.520  0.2288  0.6287 -0.1540
 9068TIP3    H151399   1.524   3.272  10.571 -0.1804 -0.6042  1.5782
 9068TIP3    H251400   1.406   3.294  10.480  1.9332  1.6345 -0.7922
 9069TIP3   OH251401   3.211   2.799  10.696 -0.3421 -0.2765 -0.1184
 9069TIP3    H151402   3.278   2.731  10.689  0.1193  0.1698 -0.1795
 9069TIP3    H251403   3.204   2.835  10.607 -0.9944 -0.6247 -0.2111
 9070TIP3   OH251404   0.599   5.495  12.474 -0.0801 -0.2849 -0.6123
 9070TIP3    H151405   0.548   5.565  12.434  0.0261  0.4962  0.5758
 9070TIP3    H251406   0.596   5.514  12.568  1.5756 -0.7912 -0.4349
 9071TIP3   OH251407   5.731   0.737  11.539  0.0596 -0.0854  0.4280
 9071TIP3    H151408   5.799   0.801  11.519  0.4888 -0.5116  0.4991
 9071TIP3    H251409   5.726   0.737  11.634  2.4624 -2.5514  0.6830
 9072TIP3   OH251410   4.221   0.283  10.795  0.3991  0.9078  0.0423
 9072TIP3    H151411   4.263   0.365  10.770  0.5006  0.8830  0.1308
 9072TIP3    H251412   4.282   0.215  10.767  0.9854  0.9116  1.2432
 9073TIP3   OH251413   1.426   4.121  10.226  0.0043 -0.0187  0.0068
 9073TIP3    H151414   1.472   4.154  10.149  0.6653 -0.5209  0.1855
 9073TIP3    H251415   1.338   4.160  10.219 -0.0219 -0.2262 -1.1153
 9074TIP3   OH251416   0.239   5.863   9.695  0.2761 -0.1121  0.2325
 9074TIP3    H151417   0.252   5.951   9.730  0.2515  0.2192 -0.5654
 9074TIP3    H251418   0.189   5.877   9.614  1.2309 -0.7565 -0.4860
 9075TIP3   OH251419   5.787   6.109  12.423  0.3274  0.3612 -0.1700
 9075TIP3    H151420   5.705   6.086  12.468  0.5483 -0.6180 -0.2385
 9075TIP3    H251421   5.766   6.102  12.330  1.5639 -4.4867 -0.3346
 9076TIP3   OH251422   3.665   3.103  11.435  0.3150 -0.1168 -0.2978
 9076TIP3    H151423   3.753   3.105  11.398  1.6790 -1.4564  2.5874
 9076TIP3    H251424   3.640   3.195  11.442  0.8364  0.2462 -2.4161
 9077TIP3   OH251425   2.403   5.059  11.179 -0.2906  0.1298 -0.1962
 9077TIP3    H151426   2.471   5.010  11.131  0.1403 -0.4051  0.9064
 9077TIP3    H251427   2.391   5.009  11.260 -0.7336  1.1970  0.4156
 9078TIP3   OH251428   6.346   4.048  10.696  0.2998  0.1331 -0.1695
 9078TIP3    H151429   6.261   4.093  10.699 -0.3213 -1.0424  1.4970
 9078TIP3    H251430   6.324   3.957  10.677  1.4138  0.1988 -1.9680
 9079TIP3   OH251431   0.947   0.989  13.765 -0.7049  0.1080  0.3356
 9079TIP3    H151432   1.006   1.004  13.839  0.1397  2.4144 -0.6848
 9079TIP3    H251433   0.936   0.894  13.761  2.0900 -0.3644  1.2615
 9080TIP3   OH251434   0.546   2.934  13.433 -0.1970 -0.3550  0.1788
 9080TIP3    H151435   0.455   2.902  13.433 -0.4125  0.1199  2.4532
 9080TIP3    H251436   0.599   2.855  13.431 -0.7093 -0.7980  2.1977
 9081TIP3   OH251437   2.666   4.608  10.325 -0.2150  0.2601  0.0724
 9081TIP3    H151438   2.663   4.653  10.410 -1.0256  2.6246 -1.1037
 9081TIP3    H251439   2.629   4.672  10.263 -1.5780 -2.1196 -1.7568
 9082TIP3   OH251440   4.267   6.243  12.389 -0.2264 -0.3279  0.3230
 9082TIP3    H151441   4.340   6.212  12.443  0.0887 -0.5667 -0.2241
 9082TIP3    H251442   4.210   6.167  12.379 -1.2828  0.2126  1.8854
 9083TIP3   OH251443   2.883   5.700  12.472  0.3573 -0.2980  0.0117
 9083TIP3    H151444   2.807   5.756  12.485  0.8824  0.4474 -0.0743
 9083TIP3    H251445   2.847   5.618  12.437 -0.3571  0.2093 -0.4593
 9084TIP3   OH251446   2.676   3.248  13.006 -0.3298 -0.7007  0.4213
 9084TIP3    H151447   2.747   3.185  13.019 -0.9765 -1.0474  2.6275
 9084TIP3    H251448   2.624   3.210  12.935  2.9076  0.8076 -3.1618
 9085TIP3   OH251449   3.780   1.234  12.027  0.1901  0.5447  0.4445
 9085TIP3    H151450   3.762   1.205  12.117 -0.9566  1.6019  0.5851
 9085TIP3    H251451   3.811   1.155  11.982 -0.1729 -0.2316  1.5089
 9086TIP3   OH251452   3.977   5.781  11.176  0.3458 -0.2903 -0.1918
 9086TIP3    H151453   3.884   5.788  11.198  0.5030  0.7148  0.2272
 9086TIP3    H251454   4.013   5.724  11.243 -0.5143 -3.4348 -2.1845
 9087TIP3   OH251455   0.027   2.798   9.622 -0.2563  0.3390 -0.0201
 9087TIP3    H151456   0.085   2.865   9.584  0.1056  0.8481  1.3486
 9087TIP3    H251457   0.053   2.795   9.714  0.6679 -2.6958 -0.2897
 9088TIP3   OH251458   4.751   0.743  11.617 -0.8632  0.2804  0.6169
 9088TIP3    H151459   4.705   0.697  11.547  1.6718  0.7441 -1.5252
 9088TIP3    H251460   4.723   0.834  11.610  1.1073  0.8184 -1.5186
 9089TIP3   OH251461   0.507   2.994  12.017  0.4512  0.5716 -0.1967
 9089TIP3    H151462   0.519   2.976  11.924  2.6976  0.4130  0.0625
 9089TIP3    H251463   0.581   2.951  12.059 -0.9604 -0.0503  1.7738
 9090TIP3   OH251464   2.428   1.552   9.317 -0.6746 -0.1369 -0.0465
 9090TIP3    H151465   2.493   1.573   9.249 -1.0118 -0.2763 -0.4192
 9090TIP3    H251466   2.477   1.506   9.384 -0.4808 -0.7351 -0.5815
 9091TIP3   OH251467   2.215   3.324   9.443 -0.1549 -0.2885  0.8204
 9091TIP3    H151468   2.293   3.329   9.388 -1.3991  1.0561 -0.9300
 9091TIP3    H251469   2.161   3.257   9.402 -0.8091  0.2475  0.7901
 9092TIP3   OH251470   6.412   0.934  10.531  0.1129 -0.5070 -0.5599
 9092TIP3    H151471   6.438   1.023  10.508  0.1337 -0.2365  0.4587
 9092TIP3    H251472   6.337   0.945  10.589  0.3126 -1.1477 -0.1715
 9093TIP3   OH251473   2.985   2.453  11.932 -0.0822  0.1668 -0.4821
 9093TIP3    H151474   2.933   2.467  12.012 -2.0038  1.5963 -1.8685
 9093TIP3    H251475   3.045   2.382  11.955 -1.4090 -0.3389  1.8300
 9094TIP3   OH251476   2.836   0.763  10.760  0.0778  0.1565  0.4835
 9094TIP3    H151477   2.922   0.733  10.731 -0.2457  0.3043 -0.6889
 9094TIP3    H251478   2.774   0.711  10.709 -0.6071 -1.5462  2.8938
 9095TIP3   OH251479   5.057   6.411  10.204 -0.0423 -0.6364  0.3149
 9095TIP3    H151480   5.023   6.416  10.115 -0.7989 -4.3816  0.2344
 9095TIP3    H251481   4.987   6.448  10.258  0.1276  1.0034 -0.5060
 9096TIP3   OH251482   0.289   0.717   9.887 -0.0019 -0.5792 -0.1874
 9096TIP3    H151483   0.264   0.725   9.979  1.6091 -1.5726  0.3785
 9096TIP3    H251484   0.271   0.803   9.850 -1.4041 -0.3837  0.8512
 9097TIP3   OH251485   0.315   2.796  11.926 -0.1503  0.0055 -0.0918
 9097TIP3    H151486   0.397   2.811  11.879  0.2341  0.5736  0.7457
 9097TIP3    H251487   0.339   2.799  12.019 -1.3250  1.5059  0.2081
 9098TIP3   OH251488   4.735   0.297  12.258  0.1547 -0.3903 -0.9850
 9098TIP3    H151489   4.648   0.300  12.299 -0.3678  0.8625 -2.1126
 9098TIP3    H251490   4.795   0.324  12.327 -0.6579  1.2413 -0.8667
 9099TIP3   OH251491   2.740   0.071  12.011 -0.1521 -0.4742 -0.3657
 9099TIP3    H151492   2.757   0.134  12.082  0.9899  0.0747 -1.1069
 9099TIP3    H251493   2.678   0.009  12.049 -0.6546  0.6142  0.6666
 9100TIP3   OH251494   2.955   0.567   9.614 -0.1010  0.1215  0.2142
 9100TIP3    H151495   2.976   0.653   9.578  0.8294 -0.4579 -0.6919
 9100TIP3    H251496   2.869   0.578   9.654 -0.0314  1.4470  0.0411
 9101TIP3   OH251497   4.564   2.518  10.814 -0.1745  0.7976 -0.0814
 9101TIP3    H151498   4.472   2.517  10.787  0.0975 -0.6486 -1.0163
 9101TIP3    H251499   4.575   2.437  10.864  0.4862  1.2143  0.4691
 9102TIP3   OH251500   4.305   5.840  11.599  0.3231  0.0135  0.1761
 9102TIP3    H151501   4.222   5.885  11.608 -0.2507 -0.5821 -1.8101
 9102TIP3    H251502   4.283   5.747  11.599  1.1511 -0.2098  0.9004
 9103TIP3   OH251503   4.690   3.531  10.928 -0.2657  0.0165  0.0254
 9103TIP3    H151504   4.667   3.439  10.918  0.9063 -0.6980  3.0066
 9103TIP3    H251505   4.783   3.530  10.950 -0.2809  1.9015  0.3032
 9104TIP3   OH251506   3.687   3.691  10.408 -0.8412  0.1710  0.2366
 9104TIP3    H151507   3.762   3.735  10.368 -0.1472 -1.3599 -0.2189
 9104TIP3    H251508   3.617   3.756  10.404  0.4795  1.7057  0.8538
 9105TIP3   OH251509   0.014   0.984  11.070 -0.2690  0.3489  0.2952
 9105TIP3    H151510   0.030   0.947  10.983  0.8762  0.6510  0.3634
 9105TIP3    H251511  -0.037   1.063  11.054  0.0371  0.4643 -0.1115
 9106TIP3   OH251512   6.053   3.936  10.995 -0.0842 -0.0211 -0.0527
 9106TIP3    H151513   6.148   3.949  10.997 -0.0490  0.0607 -1.3216
 9106TIP3    H251514   6.034   3.887  11.075  0.7927  1.3798  1.0719
 9107TIP3   OH251515   6.542   6.351  12.320  0.4169 -0.3945 -0.9170
 9107TIP3    H151516   6.579   6.316  12.401  0.4287 -0.6429 -1.0288
 9107TIP3    H251517   6.617   6.388  12.274  0.1228  1.6319  0.1198
 9108TIP3   OH251518   3.826   0.698  10.216 -0.3088  0.3643  0.2656
 9108TIP3    H151519   3.882   0.676  10.291 -3.0468 -2.6265  1.6876
 9108TIP3    H251520   3.751   0.743  10.255  0.8950  4.5477 -1.6124
 9109TIP3   OH251521   6.126   3.682  11.717 -0.1088 -0.1724  0.2273
 9109TIP3    H151522   6.214   3.665  11.751  1.0750  1.4073 -1.7891
 9109TIP3    H251523   6.070   3.683  11.795  1.5344 -1.7271  1.5116
 9110TIP3   OH251524   0.634   2.699  12.573  0.0371 -0.3716  0.1957
 9110TIP3    H151525   0.544   2.673  12.594 -0.6472 -0.2710 -2.2575
 9110TIP3    H251526   0.627   2.789  12.543  0.9720 -0.3517 -0.0041
 9111TIP3   OH251527   5.691   6.210  10.950  0.0324  0.4018  0.2602
 9111TIP3    H151528   5.725   6.189  10.863  1.3044 -0.0572  0.8477
 9111TIP3    H251529   5.633   6.285  10.935  0.9648  0.9406 -0.8407
 9112TIP3   OH251530   0.028   1.553  11.306  0.8921 -0.6024  0.0913
 9112TIP3    H151531   0.048   1.610  11.232  0.1404 -1.4332 -0.7863
 9112TIP3    H251532  -0.009   1.611  11.372  1.8596  0.2013 -0.0517
 9113TIP3   OH251533   4.374   4.736  12.382  0.3685  0.3080 -0.1403
 9113TIP3    H151534   4.308   4.675  12.416  1.2579 -0.9383 -0.5474
 9113TIP3    H251535   4.374   4.808  12.445 -0.5317 -0.2315  0.5189
 9114TIP3   OH251536   5.882   2.006  10.505 -0.1500  0.0623 -0.3200
 9114TIP3    H151537   5.879   2.076  10.440 -1.2422 -0.9466 -1.3969
 9114TIP3    H251538   5.808   1.950  10.484  0.6191 -1.3608  0.5850
 9115TIP3   OH251539   4.474   0.214  12.665  0.0126  0.2018 -0.1291
 9115TIP3    H151540   4.406   0.146  12.660 -1.6928  1.9027 -2.3475
 9115TIP3    H251541   4.428   0.292  12.694  0.7554  1.6153 -2.4828
 9116TIP3   OH251542   3.998   0.885  12.303 -0.0448 -0.0528 -0.4549
 9116TIP3    H151543   4.032   0.830  12.374  0.3952 -0.9089 -1.3072
 9116TIP3    H251544   3.909   0.906  12.329 -0.5745 -2.0168 -0.5712
 9117TIP3   OH251545   5.372   5.014   9.549 -0.4911 -0.2392 -0.3928
 9117TIP3    H151546   5.467   5.021   9.559 -0.3712 -0.3743 -1.3563
 9117TIP3    H251547   5.360   4.965   9.467 -1.3974  1.3036 -1.2175
 9118TIP3   OH251548   0.984   2.202  12.124 -0.2272  0.3470  0.0809
 9118TIP3    H151549   0.895   2.169  12.122 -0.1910  0.2802 -0.5519
 9118TIP3    H251550   1.034   2.142  12.068  0.0786  0.7630 -0.1035
 9119TIP3   OH251551   2.389   4.482  10.503  0.3786  0.2897  0.1648
 9119TIP3    H151552   2.474   4.526  10.508 -0.1304  1.2766  0.4048
 9119TIP3    H251553   2.328   4.543  10.543 -0.7335  0.3614 -1.5177
 9120TIP3   OH251554   1.995   4.851  10.811 -0.1515  0.0093  0.1696
 9120TIP3    H151555   2.061   4.876  10.747 -0.7203 -0.1593 -0.4967
 9120TIP3    H251556   2.000   4.919  10.879  0.2264  0.3732 -0.2196
 9121TIP3   OH251557   3.841   5.211  11.280 -0.0215  0.4578  0.4623
 9121TIP3    H151558   3.762   5.157  11.275  1.6281 -2.0406 -1.0225
 9121TIP3    H251559   3.851   5.231  11.373 -0.6295 -2.0520  1.1468
 9122TIP3   OH251560   2.097   4.855  11.587  0.2634  0.2369  0.7617
 9122TIP3    H151561   2.021   4.809  11.622 -0.4943 -0.0577 -1.1232
 9122TIP3    H251562   2.171   4.822  11.637 -0.6086 -0.9751  1.2997
 9123TIP3   OH251563   1.796   4.298   9.982  0.6179 -0.4404 -0.0681
 9123TIP3    H151564   1.792   4.255   9.896 -0.0714 -0.5287  0.0007
 9123TIP3    H251565   1.742   4.242  10.039 -3.5498  2.3676 -0.8121
 9124TIP3   OH251566   0.979   5.196  12.830 -0.2609 -0.4250 -0.3648
 9124TIP3    H151567   0.914   5.182  12.899  1.1357 -1.4359  0.8049
 9124TIP3    H251568   1.056   5.146  12.858  0.7837  0.1139 -2.0697
 9125TIP3   OH251569   4.545   0.112  10.994  0.0434  0.2956  0.0524
 9125TIP3    H151570   4.486   0.148  11.061  0.9005  0.9772  0.4704
 9125TIP3    H251571   4.512   0.024  10.979 -1.4357  0.8489 -0.1637
 9126TIP3   OH251572   5.889   0.701  12.422  0.4368  0.9258  0.6624
 9126TIP3    H151573   5.795   0.684  12.414  0.4186  1.6448 -1.1406
 9126TIP3    H251574   5.930   0.617  12.401  0.2102  1.0712 -0.4226
 9127TIP3   OH251575   6.208   1.879  10.426  0.0833 -0.3366  0.9393
 9127TIP3    H151576   6.232   1.968  10.453  2.0611 -0.2574 -0.8002
 9127TIP3    H251577   6.145   1.891  10.355  1.4949 -0.2349 -0.3275
 9128TIP3   OH251578   4.612   3.696  11.712  0.4498 -0.2598 -0.2390
 9128TIP3    H151579   4.663   3.643  11.651  0.1506  1.7348 -2.3447
 9128TIP3    H251580   4.677   3.746  11.761  0.6390 -0.3084 -0.4376
 9129TIP3   OH251581   6.222   4.784  11.598 -0.0690  0.0303 -0.5322
 9129TIP3    H151582   6.265   4.711  11.643 -0.1087 -0.2543 -0.9482
 9129TIP3    H251583   6.283   4.857  11.606  0.1456 -0.1580 -0.4501
 9130TIP3   OH251584   4.152   5.628   9.549  0.5048 -0.1465 -0.9818
 9130TIP3    H151585   4.068   5.583   9.563 -0.2594 -0.0874 -4.5014
 9130TIP3    H251586   4.215   5.558   9.533  0.5430 -0.1244 -0.9278
 9131TIP3   OH251587   3.982   2.405   9.424  0.6817 -0.3673  0.1222
 9131TIP3    H151588   3.976   2.492   9.463 -0.4893 -1.2438  2.0328
 9131TIP3    H251589   3.898   2.393   9.381  0.1637 -1.1771  1.3191
 9132TIP3   OH251590   1.159   6.323  12.749 -0.6287  0.4621  0.2115
 9132TIP3    H151591   1.244   6.343  12.709 -1.0142  0.4557 -0.6466
 9132TIP3    H251592   1.165   6.359  12.837  0.4459  0.0211  0.3402
 9133TIP3   OH251593   5.558   3.543  12.114 -0.7962  0.2045 -0.0871
 9133TIP3    H151594   5.632   3.506  12.162 -1.0394 -0.3495 -0.1289
 9133TIP3    H251595   5.564   3.637  12.129 -0.2885  0.1291  0.2010
 9134TIP3   OH251596   0.671   1.062   9.749 -0.1939 -0.0222  0.1985
 9134TIP3    H151597   0.711   1.076   9.835  1.9753 -1.5257 -0.4692
 9134TIP3    H251598   0.722   1.117   9.690  2.3018 -3.2332 -0.9491
 9135TIP3   OH251599   1.333   5.815  11.654 -0.3071 -0.4412  0.0168
 9135TIP3    H151600   1.315   5.748  11.719  1.9479 -2.2696 -1.0938
 9135TIP3    H251601   1.365   5.766  11.578  0.8010  1.8452 -1.0824
 9136TIP3   OH251602   4.652   1.111  11.175 -0.2892  0.2586 -0.1157
 9136TIP3    H151603   4.679   1.058  11.099 -0.5518 -0.2845  0.1629
 9136TIP3    H251604   4.721   1.177  11.184 -0.5406  0.6905 -1.1721
 9137TIP3   OH251605   2.719   2.387  10.795  0.4641  0.1178 -0.0910
 9137TIP3    H151606   2.729   2.297  10.763 -0.0607 -0.7412  2.0137
 9137TIP3    H251607   2.625   2.404  10.790  0.4300  0.1359  0.4976
 9138TIP3   OH251608   0.803   4.001  11.500  0.6437 -0.0267  0.5042
 9138TIP3    H151609   0.756   4.065  11.446  0.5107  1.1487  1.9519
 9138TIP3    H251610   0.742   3.927  11.507 -0.0350  0.5144  0.4459
 9139TIP3   OH251611   2.248   5.471  10.031  1.0225  0.1014  0.0691
 9139TIP3    H151612   2.299   5.399  10.069  0.2444 -0.2297  0.5321
 9139TIP3    H251613   2.218   5.436   9.947 -2.2349 -1.5624  1.7055
 9140TIP3   OH251614   5.473   0.038  11.679  0.6404 -0.4164  0.4054
 9140TIP3    H151615   5.475  -0.010  11.596  0.3364  1.2261 -0.5780
 9140TIP3    H251616   5.511  -0.023  11.742  0.2297 -1.9699 -0.7829
 9141TIP3   OH251617   3.364   6.046  10.963 -0.6490  0.0510 -0.0832
 9141TIP3    H151618   3.321   5.982  11.019  1.8311 -0.7211  1.0472
 9141TIP3    H251619   3.312   6.046  10.883 -2.4635 -1.1167  1.0310
 9142TIP3   OH251620   1.384   3.092  12.499  0.2726  0.2559  0.0425
 9142TIP3    H151621   1.467   3.051  12.475  0.6471  0.7912  0.3938
 9142TIP3    H251622   1.318   3.041  12.453  0.7523 -0.5183  0.1894
 9143TIP3   OH251623   4.734   0.656  10.034 -0.1545 -0.2222  0.4058
 9143TIP3    H151624   4.680   0.616   9.966  0.1141  0.4141 -0.1932
 9143TIP3    H251625   4.786   0.584  10.069 -0.5295 -0.6164  0.1684
 9144TIP3   OH251626   2.744   2.106  10.055  0.8367 -0.0309  0.2997
 9144TIP3    H151627   2.820   2.131  10.107 -0.5867  3.5264  0.9988
 9144TIP3    H251628   2.727   2.183  10.000 -2.1494 -0.7236  0.0798
 9145TIP3   OH251629   0.153   1.122  10.120 -0.0105 -0.0234  0.2374
 9145TIP3    H151630   0.219   1.081  10.176  0.2888  1.1704  0.7984
 9145TIP3    H251631   0.157   1.215  10.143 -2.0209  0.0655  0.4406
 9146TIP3   OH251632   0.588   1.810  10.470 -0.5872  0.4168  0.1523
 9146TIP3    H151633   0.624   1.790  10.384  1.6484  0.2876  1.0419
 9146TIP3    H251634   0.530   1.885  10.456  0.7959  1.2662 -1.2640
 9147TIP3   OH251635   2.732   5.199   9.478 -0.0521 -0.0050 -0.0033
 9147TIP3    H151636   2.792   5.253   9.426  1.4348 -1.1685  0.4144
 9147TIP3    H251637   2.766   5.204   9.567 -0.7127 -0.5327  0.2863
 9148TIP3   OH251638   3.430   0.251  11.609  0.2320  0.1397 -0.1968
 9148TIP3    H151639   3.415   0.339  11.574 -1.8765 -0.1490 -0.1540
 9148TIP3    H251640   3.456   0.200  11.532  1.2069  0.7035 -0.2698
 9149TIP3   OH251641   6.207   1.049  12.632  0.5247  0.0785 -0.5020
 9149TIP3    H151642   6.212   0.980  12.697  5.5736 -0.9735 -1.5495
 9149TIP3    H251643   6.248   1.125  12.674  0.1331  0.6657 -1.1528
 9150TIP3   OH251644   3.476   0.950  10.065 -0.2573 -0.2346  0.4307
 9150TIP3    H151645   3.475   1.045  10.068 -1.3268 -0.2505  2.5852
 9150TIP3    H251646   3.559   0.928  10.022  0.8042  1.6555  1.3656
 9151TIP3   OH251647   0.531   3.123  12.326  0.0310 -0.5476 -0.2928
 9151TIP3    H151648   0.457   3.169  12.286 -0.0609 -0.5026 -0.0712
 9151TIP3    H251649   0.608   3.167  12.290  0.0094  2.2333  2.5648
 9152TIP3   OH251650   3.392   1.246  11.817  0.6056 -0.3336 -0.2378
 9152TIP3    H151651   3.411   1.171  11.873 -0.2894 -0.6331 -0.3269
 9152TIP3    H251652   3.353   1.208  11.738  0.3690  0.2051 -0.3857
 9153TIP3   OH251653   0.921   0.115  11.841 -0.1942 -0.2063  0.5111
 9153TIP3    H151654   0.889   0.029  11.814 -1.1323  0.5185 -0.7555
 9153TIP3    H251655   0.861   0.142  11.910 -0.9459  0.1422 -0.2571
 9154TIP3   OH251656   1.738   6.389  11.193  0.1645 -0.1152 -0.6033
 9154TIP3    H151657   1.690   6.323  11.243 -2.0055  1.1852 -0.8229
 9154TIP3    H251658   1.813   6.412  11.248  0.2806 -1.8630  0.0075
 9155TIP3   OH251659   3.989   4.970   9.908  0.0620 -0.6806  0.6571
 9155TIP3    H151660   3.919   4.991   9.845 -0.8633 -2.2098  1.1332
 9155TIP3    H251661   4.070   4.996   9.863 -0.6046 -1.3612 -1.0236
 9156TIP3   OH251662   4.470   1.116  10.834 -0.7945  0.1467 -0.1021
 9156TIP3    H151663   4.404   1.060  10.792 -0.9247  0.6725 -0.6052
 9156TIP3    H251664   4.544   1.114  10.774 -0.3075 -0.5041  0.4981
 9157TIP3   OH251665   5.006   1.109  12.208  0.5124  0.6303 -0.1331
 9157TIP3    H151666   5.101   1.112  12.198  0.5743  0.0398  0.2053
 9157TIP3    H251667   4.989   1.135  12.298  0.4042  0.0957  0.0049
 9158TIP3   OH251668   0.027   2.757  10.712  0.1046 -0.2156  0.1346
 9158TIP3    H151669   0.077   2.784  10.789 -0.6377 -0.2906  0.6584
 9158TIP3    H251670   0.093   2.735  10.647  0.7364  0.5410  0.5079
 9159TIP3   OH251671   1.154   1.138  11.869 -0.2315  0.2883  0.4430
 9159TIP3    H151672   1.245   1.131  11.839  0.4203 -0.6452  2.4303
 9159TIP3    H251673   1.112   1.195  11.806  1.2517 -0.7582 -1.6069
 9160TIP3   OH251674   1.172   4.791   9.788 -0.5961 -0.2365 -0.2404
 9160TIP3    H151675   1.135   4.877   9.806  0.8784  0.1648  1.1280
 9160TIP3    H251676   1.097   4.737   9.765 -1.8245  0.8973  0.9218
 9161TIP3   OH251677   1.766   2.677  10.830 -0.3735  0.3466  0.1602
 9161TIP3    H151678   1.848   2.655  10.786  0.4937 -1.0038  2.2871
 9161TIP3    H251679   1.746   2.766  10.800  1.2533  0.2888 -1.2663
 9162TIP3   OH251680   1.373   3.118  11.549  0.2721 -0.1554  0.3977
 9162TIP3    H151681   1.386   3.212  11.536  0.4283 -0.3102 -0.6738
 9162TIP3    H251682   1.453   3.088  11.593  0.2209  0.2104  0.7421
 9163TIP3   OH251683   1.683   0.449  11.617 -0.0274 -0.0844 -0.1964
 9163TIP3    H151684   1.757   0.413  11.569 -0.3873  0.3127 -1.0551
 9163TIP3    H251685   1.723   0.496  11.691  0.4964 -1.1769  0.2436
 9164TIP3   OH251686   4.634   4.646  11.571  0.7303  0.3551 -0.1290
 9164TIP3    H151687   4.643   4.582  11.642  0.1970  0.7246  0.2724
 9164TIP3    H251688   4.693   4.613  11.502  0.2726 -0.7067 -0.0306
 9165TIP3   OH251689   3.554   5.764  10.773  0.1380 -0.4317  0.0115
 9165TIP3    H151690   3.485   5.755  10.707 -0.5321 -0.8852  0.7548
 9165TIP3    H251691   3.553   5.681  10.820  0.6649 -0.1470  0.5385
 9166TIP3   OH251692   5.972   0.793  11.361  0.2156 -0.0936 -0.1120
 9166TIP3    H151693   6.041   0.843  11.316  0.0171 -0.8577 -1.3116
 9166TIP3    H251694   5.890   0.828  11.325 -0.0148  0.3767  0.8440
 9167TIP3   OH251695   6.531   6.554  11.880  0.2161 -0.0270  0.1960
 9167TIP3    H151696   6.467   6.504  11.931  1.5148 -2.1468 -0.1599
 9167TIP3    H251697   6.499   6.548  11.790 -0.0639  0.5267  0.2518
 9168TIP3   OH251698   6.392   5.749  11.916  0.0725 -0.5130  0.1839
 9168TIP3    H151699   6.361   5.833  11.951 -0.8443 -1.4593  1.7088
 9168TIP3    H251700   6.318   5.689  11.928 -0.0214 -1.1149 -2.7067
 9169TIP3   OH251701   1.383   1.588  10.480 -0.1629  0.3435  0.0807
 9169TIP3    H151702   1.387   1.582  10.575 -0.6890 -0.6039  0.0570
 9169TIP3    H251703   1.449   1.526  10.449  1.0507  1.7075 -0.1894
 9170TIP3   OH251704   1.978   2.247   9.957  0.5867  0.2490 -0.0322
 9170TIP3    H151705   1.890   2.284   9.963  1.1659  1.8849 -1.0358
 9170TIP3    H251706   1.972   2.186   9.883  0.3916  0.6712 -0.3720
 9171TIP3   OH251707   0.399   0.363  12.034  0.1231 -0.2748 -0.8394
 9171TIP3    H151708   0.372   0.341  11.945  0.0364  1.4455 -1.2646
 9171TIP3    H251709   0.434   0.452  12.027 -0.8910  0.3096  1.0464
 9172TIP3   OH251710   0.996   0.620  13.298 -0.4351 -0.4125 -0.8065
 9172TIP3    H151711   1.036   0.703  13.273 -3.7636  1.0784 -1.7120
 9172TIP3    H251712   1.018   0.610  13.391  0.7327  1.0618 -0.8879
 9173TIP3   OH251713   6.430   4.245  12.659  0.3154  0.3716  0.6310
 9173TIP3    H151714   6.380   4.285  12.587 -0.6983 -0.7039  0.7110
 9173TIP3    H251715   6.409   4.299  12.735 -0.6344  0.0322  0.6288
 9174TIP3   OH251716   3.373   0.694   9.513  0.1488 -0.1730  0.1095
 9174TIP3    H151717   3.406   0.606   9.495  0.2802  0.2703 -2.1321
 9174TIP3    H251718   3.424   0.751   9.455 -0.4846  1.2899  0.9230
 9175TIP3   OH251719   2.520   4.134  11.868  0.2460  0.2484  0.3048
 9175TIP3    H151720   2.547   4.221  11.899  0.1276 -0.2700  1.9665
 9175TIP3    H251721   2.511   4.144  11.774 -0.6902  2.3089  0.5448
 9176TIP3   OH251722   2.960   3.460  11.007 -0.3242 -0.0850 -0.4967
 9176TIP3    H151723   2.998   3.460  11.095  0.2554 -1.2178 -0.7236
 9176TIP3    H251724   2.941   3.552  10.989 -1.8925  0.0435  1.4087
 9177TIP3   OH251725   3.244   2.957  10.950 -0.6178 -0.4111 -0.6305
 9177TIP3    H151726   3.260   2.922  10.862  1.5405  1.2458 -0.9889
 9177TIP3    H251727   3.154   2.990  10.947 -0.6242 -0.5067 -2.1691
 9178TIP3   OH251728   5.683   4.886  13.426 -0.5689 -0.4689  0.3415
 9178TIP3    H151729   5.716   4.975  13.412  0.0172 -0.8103 -0.5330
 9178TIP3    H251730   5.592   4.898  13.454 -1.9319  0.3921 -3.7420
 9179TIP3   OH251731   2.809   2.927  11.375 -0.2871 -0.2166 -0.4375
 9179TIP3    H151732   2.867   2.864  11.332  1.5145  0.3686  0.9940
 9179TIP3    H251733   2.776   2.880  11.451  0.2761  0.2225  0.0877
 9180TIP3   OH251734   1.690   5.226  10.340 -0.0293  0.3335  0.1826
 9180TIP3    H151735   1.654   5.205  10.427  1.2478 -0.1805  0.6131
 9180TIP3    H251736   1.628   5.187  10.279  0.0579 -0.9947  0.9056
 9181TIP3   OH251737   0.139   0.551  11.703 -0.4263  0.1973  0.3344
 9181TIP3    H151738   0.180   0.636  11.687  0.3007 -0.2200 -0.0761
 9181TIP3    H251739   0.090   0.533  11.622  1.0912 -0.6985 -0.4217
 9182TIP3   OH251740   1.819   0.245  11.193 -0.0254 -0.2602  0.2446
 9182TIP3    H151741   1.754   0.176  11.200  2.1085 -2.4440 -0.3775
 9182TIP3    H251742   1.860   0.231  11.108  3.2990 -0.9377  1.8101
 9183TIP3   OH251743   0.954   0.632  10.443 -0.3735  0.3835 -0.3331
 9183TIP3    H151744   1.000   0.563  10.491 -0.5370  0.0935 -0.5848
 9183TIP3    H251745   1.011   0.653  10.369 -0.3313  0.5062 -0.2658
 9184TIP3   OH251746   6.444   0.135  11.637  0.1864  0.2491 -0.1546
 9184TIP3    H151747   6.356   0.102  11.654  1.0456 -3.0698 -1.3466
 9184TIP3    H251748   6.444   0.158  11.545  0.0620  2.1858  0.3028
 9185TIP3   OH251749   1.297   0.496  10.897  0.0938  0.4846  0.2927
 9185TIP3    H151750   1.269   0.587  10.898 -0.3029  0.4338  3.4861
 9185TIP3    H251751   1.392   0.500  10.893  0.0667  1.0264  0.1280
 9186TIP3   OH251752   3.412   1.776  10.348 -0.4519 -0.1289  0.5286
 9186TIP3    H151753   3.433   1.727  10.269 -0.3659  2.2733 -1.0547
 9186TIP3    H251754   3.495   1.815  10.376 -0.8405  0.7207  0.5539
 9187TIP3   OH251755   0.772   3.716  11.903  0.1790 -0.9177 -1.0467
 9187TIP3    H151756   0.702   3.781  11.912 -0.4262 -1.6913  0.0613
 9187TIP3    H251757   0.731   3.643  11.856 -0.0670 -1.7771  0.4584
 9188TIP3   OH251758   6.038   5.492  11.496 -0.1644  0.0914 -0.5729
 9188TIP3    H151759   6.114   5.507  11.551 -0.8742 -0.2783  0.5361
 9188TIP3    H251760   6.073   5.450  11.417  0.4646 -3.0450  1.2065
 9189TIP3   OH251761   4.204   1.725  10.527  0.2522  0.0256 -0.2903
 9189TIP3    H151762   4.204   1.792  10.458  0.6956 -0.6274 -0.9420
 9189TIP3    H251763   4.227   1.773  10.607 -1.6041  1.0462 -0.3105
 9190TIP3   OH251764   5.571   1.988  12.191  0.1615  0.8192  0.3749
 9190TIP3    H151765   5.500   2.052  12.177 -1.7149 -0.7842  1.9026
 9190TIP3    H251766   5.619   2.022  12.266 -0.0975  1.0206  0.4508
 9191TIP3   OH251767   1.939   1.405  10.275 -0.1069 -0.3419  0.2163
 9191TIP3    H151768   1.892   1.323  10.287  1.4115 -1.3776 -0.6077
 9191TIP3    H251769   1.987   1.394  10.193  0.7987  1.0403  0.5201
 9192TIP3   OH251770   6.493   1.731  10.935 -0.1138 -0.2834 -0.3936
 9192TIP3    H151771   6.578   1.747  10.893  0.7230  0.5983  1.5093
 9192TIP3    H251772   6.483   1.636  10.934  1.1974 -0.4409 -0.1316
 9193TIP3   OH251773   3.080   3.142  12.848 -0.4602 -0.2337 -1.0819
 9193TIP3    H151774   3.069   3.227  12.804 -1.7052  0.4982  0.5130
 9193TIP3    H251775   3.169   3.115  12.827 -0.3781  0.9648 -2.4664
 9194TIP3   OH251776   2.715   2.660   9.699 -0.0485  0.7230 -0.1819
 9194TIP3    H151777   2.734   2.741   9.746  0.0721  0.6662 -0.1331
 9194TIP3    H251778   2.661   2.688   9.625  0.3705  0.9048 -0.4205
 9195TIP3   OH251779   0.264   4.971  11.498 -0.2704  0.0516 -0.0932
 9195TIP3    H151780   0.218   5.048  11.464  1.0232  0.9705  0.1368
 9195TIP3    H251781   0.273   4.913  11.422  3.3062  2.4363 -1.7871
 9196TIP3   OH251782   2.438   6.138  10.022  0.8941  0.8526  0.4446
 9196TIP3    H151783   2.353   6.168  10.055  0.3195 -0.0796 -0.1624
 9196TIP3    H251784   2.474   6.215   9.977 -0.4279  0.7638 -0.8281
 9197TIP3   OH251785   5.601   4.182  12.823 -0.0349 -0.1841 -0.7857
 9197TIP3    H151786   5.594   4.204  12.916  0.7419 -1.3317 -0.4435
 9197TIP3    H251787   5.694   4.171  12.808 -0.0670  0.9650 -1.9516
 9198TIP3   OH251788   0.461   4.187  13.688  0.2183  0.3326  0.0097
 9198TIP3    H151789   0.376   4.193  13.643  0.7296  2.9653 -0.8154
 9198TIP3    H251790   0.439   4.156  13.776 -1.9956  2.9937  0.5418
 9199TIP3   OH251791   3.313   1.059  10.366 -0.2988  0.5191 -0.1283
 9199TIP3    H151792   3.229   1.020  10.345 -0.1836  0.4770 -0.5207
 9199TIP3    H251793   3.313   1.067  10.462 -0.7130  0.4503 -0.1226
 9200TIP3   OH251794   2.837   2.693  10.072  0.0813  0.0437 -0.1768
 9200TIP3    H151795   2.838   2.756  10.144  0.5549  0.2588 -0.3705
 9200TIP3    H251796   2.745   2.671  10.061  0.0725 -0.5961  1.0187
 9201TIP3   OH251797   5.411   6.050  10.712 -0.5432  0.1524  0.0474
 9201TIP3    H151798   5.442   6.136  10.744 -2.8104  1.2968 -0.6306
 9201TIP3    H251799   5.487   6.012  10.669  1.0547  0.9856  1.9771
 9202TIP3   OH251800   3.441   3.822  11.126 -0.6978  0.2033  0.4624
 9202TIP3    H151801   3.422   3.913  11.149  0.1968  0.4048  0.4608
 9202TIP3    H251802   3.493   3.829  11.045  0.7871 -0.2071  1.3396
 9203TIP3   OH251803   3.215   5.690  11.324 -0.1850 -0.5327  0.3342
 9203TIP3    H151804   3.268   5.610  11.324 -2.3301 -2.0714 -0.3619
 9203TIP3    H251805   3.224   5.725  11.235  0.0442 -0.5300  0.3601
 9204TIP3   OH251806   0.336   3.091  11.525 -0.1586  0.6355  0.1441
 9204TIP3    H151807   0.247   3.061  11.544  0.3644 -0.3882  1.0600
 9204TIP3    H251808   0.362   3.039  11.449  0.0086  0.2324  0.4759
 9205TIP3   OH251809   2.757   4.411  10.852 -0.3512 -0.3520 -0.0646
 9205TIP3    H151810   2.772   4.400  10.758  1.6226 -1.1624  0.2888
 9205TIP3    H251811   2.843   4.430  10.888 -0.8361 -1.3273  1.7455
 9206TIP3   OH251812   6.386   1.927  12.390  0.0085  0.2252  1.0798
 9206TIP3    H151813   6.293   1.937  12.411 -0.4245 -0.3486 -0.4272
 9206TIP3    H251814   6.391   1.840  12.349  1.2183  0.2477  1.1605
 9207TIP3   OH251815   1.624   5.518  10.357  0.0790 -0.3366  0.1705
 9207TIP3    H151816   1.536   5.524  10.395  0.0871 -0.8469  0.2760
 9207TIP3    H251817   1.644   5.425  10.357 -0.2886 -0.4682 -1.9335
 9208TIP3   OH251818   0.727   3.607  11.426  0.1544 -0.0514 -0.4950
 9208TIP3    H151819   0.775   3.548  11.484  0.1298 -0.3225 -0.7528
 9208TIP3    H251820   0.659   3.645  11.482  0.5436  0.1902 -0.1772
 9209TIP3   OH251821   1.499   1.549   9.674  0.5222  0.2190 -0.2364
 9209TIP3    H151822   1.492   1.479   9.738 -1.2261  0.2783 -0.3131
 9209TIP3    H251823   1.525   1.506   9.593  2.1429  0.0631  0.3359
 9210TIP3   OH251824   0.252   2.812  10.025 -0.2557 -0.0068  0.1491
 9210TIP3    H151825   0.337   2.774  10.006  0.3286  1.0019  0.6305
 9210TIP3    H251826   0.190   2.762   9.972  0.5205 -1.3048  0.4242
 9211TIP3   OH251827   6.283   5.276  11.612  0.5390  0.1653  0.0811
 9211TIP3    H151828   6.254   5.365  11.631  1.1365  0.9834 -2.4445
 9211TIP3    H251829   6.355   5.287  11.550  0.1272 -2.1054 -0.8915
 9212TIP3   OH251830   1.620   0.044  12.398 -0.8916 -0.3494 -0.4868
 9212TIP3    H151831   1.673  -0.033  12.377 -1.2683 -1.0123  0.8627
 9212TIP3    H251832   1.543   0.035  12.342 -0.3997 -0.3367 -1.1705
 9213TIP3   OH251833   0.310   1.829  10.590  0.1950 -0.2279 -0.4985
 9213TIP3    H151834   0.387   1.772  10.581 -0.4325 -0.8326 -2.7231
 9213TIP3    H251835   0.306   1.877  10.508 -0.7179  1.2592  0.3684
 9214TIP3   OH251836   3.742   2.664  10.177  0.8774 -0.0139 -0.2586
 9214TIP3    H151837   3.659   2.706  10.202 -0.0198 -1.0799 -1.3039
 9214TIP3    H251838   3.808   2.709  10.230 -0.2449  1.4732 -0.0237
 9215TIP3   OH251839   0.222   1.996  10.060  0.5964 -0.0034 -0.1319
 9215TIP3    H151840   0.200   2.041   9.978  0.5364  0.8780  0.3507
 9215TIP3    H251841   0.278   2.058  10.106 -0.1060 -0.1147  0.8885
 9216TIP3   OH251842   2.004   4.940   9.526 -0.3430 -0.5294  0.3042
 9216TIP3    H151843   2.049   5.000   9.466  0.5985 -0.0817  1.4329
 9216TIP3    H251844   1.938   4.993   9.569 -0.2532 -0.5762  0.4995
 9217TIP3   OH251845   4.452   0.797  11.492 -0.2239 -0.0738  0.6834
 9217TIP3    H151846   4.481   0.740  11.421  2.0821 -0.7199  2.0258
 9217TIP3    H251847   4.491   0.882  11.472 -1.6946  0.4538 -0.0873
 9218TIP3   OH251848   3.223   5.399   9.513  0.1745 -0.1623  0.3489
 9218TIP3    H151849   3.291   5.457   9.548 -0.5265  0.2105  1.1265
 9218TIP3    H251850   3.215   5.330   9.579 -0.0532 -0.3205  0.1569
 9219TIP3   OH251851   5.954   5.306  10.577 -0.6128  0.1359 -0.2353
 9219TIP3    H151852   5.897   5.366  10.626 -1.5726  0.2831 -1.4799
 9219TIP3    H251853   5.896   5.235  10.550 -0.6618  1.0828 -2.9242
 9220TIP3   OH251854   4.864   0.517  11.724 -0.4087 -0.4370  0.3718
 9220TIP3    H151855   4.826   0.598  11.690  0.7538 -0.3992 -0.8796
 9220TIP3    H251856   4.816   0.447  11.679 -0.7995 -0.4489  0.7925
 9221TIP3   OH251857   2.839   4.757   9.771  0.5714 -0.1824 -0.1074
 9221TIP3    H151858   2.913   4.787   9.825  2.1069 -1.4529 -1.3975
 9221TIP3    H251859   2.817   4.833   9.717  0.1657  0.5562  1.0553
 9222TIP3   OH251860   5.486   3.480   9.408 -0.2207  0.3880  0.2073
 9222TIP3    H151861   5.416   3.480   9.342 -1.5557  3.0835  1.4803
 9222TIP3    H251862   5.560   3.521   9.364 -0.2409 -0.1524 -0.3554
 9223TIP3   OH251863   0.358   1.528  10.418 -0.0391 -0.7187 -0.6571
 9223TIP3    H151864   0.430   1.526  10.482 -0.1559 -2.1620 -0.5355
 9223TIP3    H251865   0.401   1.513  10.334  0.0490  0.6623 -0.8839
 9224TIP3   OH251866   1.570   6.038  12.467  0.3078  0.3254 -0.5636
 9224TIP3    H151867   1.639   6.079  12.415 -0.2201  1.2689 -0.5366
 9224TIP3    H251868   1.499   6.102  12.469 -1.3351 -1.3268 -2.1361
 9225TIP3   OH251869   5.972   6.016  11.200 -0.1885 -0.1901 -0.3992
 9225TIP3    H151870   6.031   5.955  11.157 -0.7476  0.6459 -2.4472
 9225TIP3    H251871   5.992   6.101  11.160  0.8501  1.1474  2.6334
 9226TIP3   OH251872   3.457   1.229   9.988 -0.0368 -0.1330  0.5915
 9226TIP3    H151873   3.431   1.293   9.921  0.9980 -0.0742  0.2341
 9226TIP3    H251874   3.537   1.264  10.025  0.4423 -1.1256  0.5240
 9227TIP3   OH251875   5.073   4.201  11.214 -0.1113 -0.9991 -0.1662
 9227TIP3    H151876   5.056   4.211  11.308 -1.6334 -1.1737 -0.3952
 9227TIP3    H251877   5.053   4.109  11.196 -0.0502 -0.9087 -0.7100
 9228TIP3   OH251878   6.587   6.499  11.450 -0.5306  0.1358  0.3923
 9228TIP3    H151879   6.638   6.552  11.511  0.3683  0.3890 -0.5403
 9228TIP3    H251880   6.540   6.563  11.397 -0.4816 -0.0374  0.1363
 9229TIP3   OH251881   1.417   0.189  10.494 -0.7388  0.2588 -0.1534
 9229TIP3    H151882   1.421   0.271  10.543 -2.5422 -0.2544  0.9502
 9229TIP3    H251883   1.497   0.143  10.517 -0.5012  1.0011  0.5382
 9230TIP3   OH251884   2.682   3.852  11.008  0.2483  0.2113  0.4852
 9230TIP3    H151885   2.680   3.756  11.009 -1.1022  0.2005 -0.4757
 9230TIP3    H251886   2.745   3.875  11.076  1.1686 -1.3679  0.2253
 9231TIP3   OH251887   1.998   5.106  11.646  0.4041 -0.1319 -0.3035
 9231TIP3    H151888   2.013   5.018  11.613 -0.7234 -1.1928  1.8208
 9231TIP3    H251889   1.935   5.095  11.717  0.1392  2.4059 -0.0491
 9232TIP3   OH251890   3.996   4.571  10.921  0.5850  0.5097  0.2161
 9232TIP3    H151891   4.021   4.647  10.974  0.4231  1.0489 -0.4702
 9232TIP3    H251892   4.066   4.507  10.937 -0.2908  0.0059  2.3705
 9233TIP3   OH251893   2.140   0.328  10.884  0.3252  0.0075 -0.2983
 9233TIP3    H151894   2.050   0.312  10.914  0.1486  1.0028 -0.2504
 9233TIP3    H251895   2.130   0.379  10.804  0.8494 -0.4044 -0.6356
 9234TIP3   OH251896   6.613   3.918   9.733  0.4559 -0.1116  0.6211
 9234TIP3    H151897   6.697   3.882   9.762  2.5299  2.0592 -2.1388
 9234TIP3    H251898   6.622   4.013   9.744 -1.0009  0.2941 -1.1974
 9235TIP3   OH251899   5.938   2.973   9.763 -0.1417 -0.2182  0.0387
 9235TIP3    H151900   5.981   2.903   9.810  0.2641  1.2654  2.0165
 9235TIP3    H251901   5.989   2.983   9.682  0.7702 -1.1080  0.4847
 9236TIP3   OH251902   5.491   5.307  13.182  0.1834 -0.3512 -0.0504
 9236TIP3    H151903   5.492   5.213  13.164 -0.4748 -0.4491  0.4035
 9236TIP3    H251904   5.491   5.313  13.277  0.5807  0.1198 -0.0744
 9237TIP3   OH251905   1.366   3.762  12.026 -0.4294 -0.3445 -0.0523
 9237TIP3    H151906   1.312   3.766  11.947 -2.9119  2.8552  1.5606
 9237TIP3    H251907   1.442   3.816  12.005 -1.0571  0.4573 -0.3645
 9238TIP3   OH251908   3.447   1.271  11.479  0.4478  0.2725  0.1805
 9238TIP3    H151909   3.351   1.268  11.482  0.4199  1.2094  1.0074
 9238TIP3    H251910   3.469   1.265  11.386 -0.4501  0.6802 -0.0688
 9239TIP3   OH251911   1.792   6.459  12.976 -0.4869 -0.4146 -0.3389
 9239TIP3    H151912   1.852   6.532  12.966 -0.4879 -0.5994 -2.0386
 9239TIP3    H251913   1.767   6.460  13.069  0.2098  1.1650 -0.1418
 9240TIP3   OH251914   6.500   3.059  11.656 -0.1061  1.0440 -0.3417
 9240TIP3    H151915   6.415   3.103  11.664 -1.4276 -1.1556 -1.2131
 9240TIP3    H251916   6.521   3.031  11.745 -1.2946 -0.0446 -0.3665
 9241TIP3   OH251917   2.672   2.674  10.490  0.3989 -0.6312  0.4525
 9241TIP3    H151918   2.631   2.713  10.567  1.2011  0.6452  0.2650
 9241TIP3    H251919   2.617   2.598  10.469 -2.0899  1.1490  0.0237
 9242TIP3   OH251920   3.961   4.090  11.206  0.2716 -0.2387 -0.5255
 9242TIP3    H151921   3.965   4.024  11.276  1.4780  1.9775  1.6756
 9242TIP3    H251922   4.030   4.064  11.145  2.7521  0.3619  1.7818
 9243TIP3   OH251923   0.661   1.973  12.080 -0.2618 -0.0904 -0.2790
 9243TIP3    H151924   0.568   1.985  12.099 -0.7186 -1.2723 -1.6121
 9243TIP3    H251925   0.663   1.945  11.989  1.3616 -0.7002 -0.0806
 9244TIP3   OH251926   5.298   2.030  11.474  0.5444 -0.2878  0.0115
 9244TIP3    H151927   5.321   1.961  11.412  2.1670  0.6339 -0.4740
 9244TIP3    H251928   5.382   2.062  11.507 -0.2148  0.7550  1.0026
 9245TIP3   OH251929   2.108   1.688  12.595  0.1084 -0.1442  0.5137
 9245TIP3    H151930   2.037   1.734  12.550  1.7514  1.4600 -0.6033
 9245TIP3    H251931   2.155   1.758  12.641  2.0690 -0.8301 -0.3550
 9246TIP3   OH251932   1.475   3.365  11.879  0.1160  0.3254  0.5932
 9246TIP3    H151933   1.565   3.333  11.884  0.4006  1.2776  2.8312
 9246TIP3    H251934   1.423   3.296  11.920 -0.1888 -0.1767 -0.6049
 9247TIP3   OH251935   0.305   6.571  11.308  0.0018 -0.6826 -0.0012
 9247TIP3    H151936   0.398   6.560  11.288  0.0815 -1.3179  0.6597
 9247TIP3    H251937   0.278   6.487  11.346 -1.2343 -1.0741 -1.6108
 9248TIP3   OH251938   4.585   2.959   9.548 -0.2316 -0.2848 -0.5610
 9248TIP3    H151939   4.504   2.940   9.502 -0.5674  0.1318 -0.1476
 9248TIP3    H251940   4.587   2.898   9.621  0.8993 -1.8004 -1.7737
 9249TIP3   OH251941   5.123   2.975  10.664  0.6887 -0.9133  0.2457
 9249TIP3    H151942   5.062   2.909  10.631 -1.1228  0.3046  1.0268
 9249TIP3    H251943   5.141   3.031  10.588  1.0238 -1.4021 -0.0399
 9250TIP3   OH251944   0.210   5.513  10.734 -0.3468 -0.2454  0.4581
 9250TIP3    H151945   0.187   5.450  10.802 -0.9100 -0.8375 -0.2498
 9250TIP3    H251946   0.207   5.462  10.653  0.0692  0.4962 -0.0404
 9251TIP3   OH251947   6.405   3.256  11.907 -0.5934  0.1075  0.1176
 9251TIP3    H151948   6.378   3.247  11.998 -1.4700 -0.1206 -0.1582
 9251TIP3    H251949   6.324   3.274  11.859 -0.2463 -0.4823 -0.7130
 9252TIP3   OH251950   4.051   5.431  12.743 -0.4661  0.0084 -0.1318
 9252TIP3    H151951   4.085   5.450  12.656  0.4994 -0.2492  0.1792
 9252TIP3    H251952   4.102   5.357  12.774  0.3308  1.0855  1.2930
 9253TIP3   OH251953   2.336   2.876  11.723 -0.3897  0.2758 -0.2635
 9253TIP3    H151954   2.278   2.834  11.660  1.3893 -2.1668 -0.4377
 9253TIP3    H251955   2.363   2.805  11.782  0.4391  1.8307  1.3337
 9254TIP3   OH251956   3.329   3.691  11.639 -0.0135  0.0496 -0.0746
 9254TIP3    H151957   3.280   3.609  11.628  2.0370 -1.4648  1.1782
 9254TIP3    H251958   3.408   3.678  11.586 -0.1475  1.7056 -0.7226
 9255TIP3   OH251959   2.646   3.659  10.621  0.8433  0.0653 -0.2436
 9255TIP3    H151960   2.684   3.598  10.685 -2.2309 -0.9143  0.8244
 9255TIP3    H251961   2.644   3.609  10.539 -1.2579 -1.2571  0.5255
 9256TIP3   OH251962   3.593   4.042  11.757  0.3287 -0.0403  0.0044
 9256TIP3    H151963   3.575   4.135  11.743 -0.4170  0.0127  1.1286
 9256TIP3    H251964   3.665   4.022  11.697  1.3478  1.5720  0.6045
 9257TIP3   OH251965   5.398   3.139  10.703 -0.1778 -0.1976 -0.0358
 9257TIP3    H151966   5.485   3.130  10.664 -0.8483 -0.4078 -1.5713
 9257TIP3    H251967   5.340   3.090  10.644 -1.7500  2.1762 -0.6019
 9258TIP3   OH251968   2.639   5.090  10.926  0.0342  0.6204  0.2921
 9258TIP3    H151969   2.551   5.109  10.892 -0.1088  1.1809  0.9555
 9258TIP3    H251970   2.688   5.060  10.849 -1.0734 -0.9455  0.1489
 9259TIP3   OH251971   4.349   4.651  12.094  0.3198  0.4243 -0.5456
 9259TIP3    H151972   4.379   4.689  12.176 -0.5755 -0.0374  0.0161
 9259TIP3    H251973   4.379   4.712  12.026 -0.9018  2.0592  0.3037
 9260TIP3   OH251974   0.125   6.433   9.774 -0.3367 -0.1240 -0.3156
 9260TIP3    H151975   0.169   6.480   9.703 -1.3927 -1.7023 -2.1291
 9260TIP3    H251976   0.154   6.476   9.854  2.9523  0.1559 -1.5069
 9261TIP3   OH251977   3.218   6.292  10.415 -0.1319  0.0953  0.2231
 9261TIP3    H151978   3.135   6.317  10.457  0.0805  1.5610 -0.1796
 9261TIP3    H251979   3.193   6.261  10.328 -0.4012 -1.1938  0.7358
 9262TIP3   OH251980   1.850   5.643  10.383  0.1900  0.3094 -0.2694
 9262TIP3    H151981   1.758   5.616  10.378  0.6421 -2.5116  2.8133
 9262TIP3    H251982   1.890   5.603  10.306 -0.6912 -1.0474 -0.0758
 9263TIP3   OH251983   4.052   4.799  11.108  0.2526  0.3448 -0.4414
 9263TIP3    H151984   4.055   4.877  11.163  0.1614  0.5735 -0.7573
 9263TIP3    H251985   4.064   4.726  11.169 -0.0172  0.5854 -0.0970
 9264TIP3   OH251986   3.217   3.904  10.068 -0.5683 -0.0729  0.2450
 9264TIP3    H151987   3.288   3.945  10.117 -0.2595 -0.3199  0.0041
 9264TIP3    H251988   3.161   3.865  10.135  0.5363 -1.5256  0.3425
 9265TIP3   OH251989   4.044   1.491  12.132 -0.1130  0.5016 -0.2851
 9265TIP3    H151990   4.121   1.544  12.155  0.8389  0.0457 -2.1577
 9265TIP3    H251991   4.011   1.531  12.052 -0.3531 -0.7538 -0.8307
 9266TIP3   OH251992   4.951   0.936  10.678 -0.1043  0.3094 -0.0085
 9266TIP3    H151993   5.026   0.984  10.712  0.3110 -0.4190  0.1247
 9266TIP3    H251994   4.941   0.862  10.738 -1.7685  1.1106  0.7752
 9267TIP3   OH251995   1.728   5.043  13.316 -0.3404 -0.0001  0.7370
 9267TIP3    H151996   1.820   5.022  13.330 -0.2625  1.2192  2.2921
 9267TIP3    H251997   1.728   5.135  13.288 -0.8873 -0.9216 -2.7044
 9268TIP3   OH251998   1.724   6.289  11.991  0.2940  0.5892 -0.0164
 9268TIP3    H151999   1.758   6.232  11.922 -1.4983 -0.4179 -0.1522
 9268TIP3    H252000   1.801   6.328  12.031  1.5342 -0.9288 -0.8134
 9269TIP3   OH252001   4.311   2.739  11.087 -0.0408 -0.1180 -0.2636
 9269TIP3    H152002   4.278   2.827  11.104 -0.3003  0.1696 -2.0307
 9269TIP3    H252003   4.261   2.708  11.011  2.6236 -0.2327 -2.1203
 9270TIP3   OH252004   3.277   0.215  10.476 -0.0828  0.1857  0.7584
 9270TIP3    H152005   3.240   0.156  10.410  1.3936 -0.4533  0.4520
 9270TIP3    H252006   3.203   0.239  10.531 -1.0950 -0.3512 -0.3239
 9271TIP3   OH252007   1.206   6.199  11.612  0.0734  0.2275  0.4329
 9271TIP3    H152008   1.240   6.155  11.690  0.2914  1.9997  1.3900
 9271TIP3    H252009   1.235   6.290  11.622 -1.0947  0.7890 -1.0235
 9272TIP3   OH252010   1.237   4.938  10.846  0.5232  0.2903 -0.0453
 9272TIP3    H152011   1.258   4.852  10.811  4.0043  0.6100  0.8386
 9272TIP3    H252012   1.158   4.925  10.899 -1.3756 -1.4088 -3.0422
 9273TIP3   OH252013   0.166   5.743  12.992 -0.6523 -0.1801  0.5690
 9273TIP3    H152014   0.203   5.772  13.075  0.2002 -0.1843  0.2108
 9273TIP3    H252015   0.151   5.823  12.943 -2.3071 -0.0990  1.1760
 9274TIP3   OH252016   0.515   5.210  12.151 -0.6088  0.0950  0.3180
 9274TIP3    H152017   0.580   5.274  12.180  1.6248 -2.7279  2.0210
 9274TIP3    H252018   0.562   5.156  12.087 -1.9223 -0.8185  0.0899
 9275TIP3   OH252019   3.013   4.368   9.807  0.0676 -0.1055  0.2761
 9275TIP3    H152020   3.014   4.274   9.790 -0.3639 -0.1299  0.3740
 9275TIP3    H252021   3.059   4.378   9.891 -1.7748 -0.4690  1.3697
 9276TIP3   OH252022   6.258   0.989  13.125  0.1589 -0.4710 -0.0854
 9276TIP3    H152023   6.231   1.078  13.103 -0.3374 -0.6778 -0.3265
 9276TIP3    H252024   6.323   1.000  13.195  0.9990  0.1426 -0.9263
 9277TIP3   OH252025   4.597   3.534  10.439 -0.1239 -0.0045  0.1303
 9277TIP3    H152026   4.584   3.459  10.381  0.6638  0.0434 -0.1116
 9277TIP3    H252027   4.514   3.583  10.432 -0.5522 -0.7248  0.1198
 9278TIP3   OH252028   5.979   3.347  10.672  0.2747  0.5511 -0.1937
 9278TIP3    H152029   5.895   3.393  10.669  0.6792  1.3900  0.8078
 9278TIP3    H252030   5.956   3.258  10.698 -0.3150  0.7712  0.0807
 9279TIP3   OH252031   6.045   4.509  10.108 -0.2415 -0.0073 -0.0582
 9279TIP3    H152032   5.978   4.540  10.047 -1.2081  0.4760  1.1996
 9279TIP3    H252033   6.008   4.428  10.145 -0.1372  0.2387  0.6092
 9280TIP3   OH252034   5.251   0.668  10.869  0.3438  0.0694 -0.5278
 9280TIP3    H152035   5.245   0.727  10.944  1.7765  0.2471 -0.5358
 9280TIP3    H252036   5.164   0.628  10.863 -0.7373  2.3280 -0.6705
 9281TIP3   OH252037   5.073   0.640  10.234 -0.2169 -0.0858  0.2382
 9281TIP3    H152038   5.037   0.596  10.310 -4.2763  1.8836 -0.2582
 9281TIP3    H252039   5.038   0.591  10.159  0.6047  0.1880 -0.3388
 9282TIP3   OH252040   1.293   2.466   9.680  0.2840  0.1250 -0.5836
 9282TIP3    H152041   1.275   2.384   9.634 -1.1830  1.7293 -3.1327
 9282TIP3    H252042   1.326   2.439   9.765 -0.6713 -3.1044 -1.0936
 9283TIP3   OH252043   4.101   4.184  12.397 -0.0551  0.2524  0.4296
 9283TIP3    H152044   4.055   4.256  12.439  0.2873 -0.0264  1.2906
 9283TIP3    H252045   4.081   4.108  12.451 -0.1610 -0.2504 -0.2917
 9284TIP3   OH252046   6.216   1.240  10.543 -0.0025  0.5999 -0.3626
 9284TIP3    H152047   6.212   1.225  10.448  0.0322  1.6067 -0.5296
 9284TIP3    H252048   6.294   1.295  10.555  0.1717  0.2202  0.2911
 9285TIP3   OH252049   5.317   0.985  10.203  0.2705  0.4437 -0.5404
 9285TIP3    H152050   5.396   0.940  10.172 -0.3122 -0.7711 -0.2828
 9285TIP3    H252051   5.291   1.041  10.130  0.4492 -0.3581 -1.2260
 9286TIP3   OH252052   2.300   2.363  11.347  0.3470  0.3679 -0.4226
 9286TIP3    H152053   2.270   2.278  11.377 -0.2949  0.5285 -0.5981
 9286TIP3    H252054   2.250   2.427  11.397 -0.8617  0.6407 -1.8930
 9287TIP3   OH252055   2.442   2.469  11.124 -0.2050  0.0950 -0.3813
 9287TIP3    H152056   2.533   2.458  11.152 -0.1456  0.2860 -0.4972
 9287TIP3    H252057   2.390   2.431  11.195 -0.0095 -0.7956 -0.6970
 9288TIP3   OH252058   4.784   0.328   9.708 -0.6712  0.1236  0.2368
 9288TIP3    H152059   4.860   0.383   9.689 -1.0173  0.5592  0.0732
 9288TIP3    H252060   4.804   0.288   9.793 -1.0255  1.6402  1.0794
 9289TIP3   OH252061   2.949   3.749  11.040  0.0087 -0.0574 -0.0226
 9289TIP3    H152062   2.883   3.711  11.098  0.2266 -0.7449 -0.2101
 9289TIP3    H252063   3.028   3.754  11.094 -0.1087  0.4693  0.1069
 9290TIP3   OH252064   0.300   2.995   9.771 -0.1811 -0.0592 -0.0185
 9290TIP3    H152065   0.383   3.041   9.776  0.7288 -1.6242  0.1216
 9290TIP3    H252066   0.292   2.950   9.856 -0.9476 -0.2798 -0.1965
 9291TIP3   OH252067   4.566   1.393  10.705  0.6249 -0.4879 -0.4446
 9291TIP3    H152068   4.604   1.356  10.785 -0.3514  0.9634  0.7399
 9291TIP3    H252069   4.473   1.404  10.726  0.5415  0.8365 -1.4194
 9292TIP3   OH252070   5.402   4.861  11.951 -0.3115  0.0300  0.0737
 9292TIP3    H152071   5.491   4.825  11.957 -0.5147 -0.3131  1.3147
 9292TIP3    H252072   5.347   4.785  11.932 -0.3940  0.1820 -0.3072
 9293TIP3   OH252073   2.917   0.159  11.802  0.5634  0.4936  0.3489
 9293TIP3    H152074   2.926   0.073  11.759  0.9690  0.4326  0.5444
 9293TIP3    H252075   2.851   0.145  11.869 -1.4146  1.0491 -1.3984
 9294TIP3   OH252076   0.907   1.373  10.842 -0.5654  0.0966  0.3008
 9294TIP3    H152077   0.948   1.382  10.928  1.1868 -0.1152 -0.4636
 9294TIP3    H252078   0.968   1.318  10.792 -1.0854  0.9336 -1.3434
 9295TIP3   OH252079   1.489   6.367   9.834 -0.1219  0.0011 -0.7836
 9295TIP3    H152080   1.555   6.385   9.902 -0.9128 -0.6846  0.1930
 9295TIP3    H252081   1.524   6.292   9.786 -1.0808 -1.7099  1.0477
 9296TIP3   OH252082   6.375   0.855  12.307  0.3132 -0.2661  0.9792
 9296TIP3    H152083   6.284   0.885  12.303  0.6360  0.7315  0.8411
 9296TIP3    H252084   6.388   0.807  12.225 -0.1107 -0.4979  1.0429
 9297TIP3   OH252085   0.710   1.806  11.228 -0.6909 -0.4225 -0.1452
 9297TIP3    H152086   0.653   1.761  11.291 -1.7739  0.5586 -0.3835
 9297TIP3    H252087   0.717   1.744  11.155 -2.6848 -0.0119 -0.7514
 9298TIP3   OH252088   3.268   3.948   9.628 -0.7192 -0.0392 -0.1213
 9298TIP3    H152089   3.350   3.988   9.600 -0.6010 -0.2744 -0.1109
 9298TIP3    H252090   3.293   3.861   9.660 -1.1404 -0.6633 -1.4064
 9299TIP3   OH252091   1.385   4.670  11.030 -0.5624 -0.0887  0.9316
 9299TIP3    H152092   1.413   4.752  11.068 -1.9902  0.7863  0.1836
 9299TIP3    H252093   1.461   4.640  10.979 -0.2227  1.0431  0.7529
 9300TIP3   OH252094   5.212   1.440   9.690 -0.3753 -0.4328 -0.4754
 9300TIP3    H152095   5.251   1.386   9.621 -1.1969 -0.2462 -1.1120
 9300TIP3    H252096   5.273   1.513   9.701  0.1564 -0.8764 -0.4475
 9301TIP3   OH252097   3.523   5.938  12.058  0.0328 -0.1243 -0.4354
 9301TIP3    H152098   3.551   5.963  12.146 -1.2522 -0.2962  0.0600
 9301TIP3    H252099   3.521   6.019  12.008 -0.7656  0.2395  0.1685
 9302TIP3   OH252100   4.080   0.474  11.618 -0.3315 -0.0611  0.0163
 9302TIP3    H152101   4.058   0.394  11.665  1.3472 -0.1396  0.7319
 9302TIP3    H252102   4.049   0.460  11.529 -0.1012 -1.4816  0.1472
 9303TIP3   OH252103   6.022   0.505  12.705 -0.2436  0.1423  0.0574
 9303TIP3    H152104   5.979   0.466  12.629  1.4879  0.2409 -1.0374
 9303TIP3    H252105   6.094   0.445  12.725 -0.5456  0.2308  1.5172
 9304TIP3   OH252106   5.533   6.518  12.462  0.0948 -0.3807 -0.2121
 9304TIP3    H152107   5.539   6.422  12.461 -0.5344 -0.4189 -0.9719
 9304TIP3    H252108   5.458   6.537  12.519  0.7709 -0.2914  0.6783
 9305TIP3   OH252109   4.250   2.918  13.073 -0.4130  0.4976 -0.2682
 9305TIP3    H152110   4.263   2.879  12.987  1.4509  0.7033 -0.1267
 9305TIP3    H252111   4.173   2.874  13.108  0.7151 -2.0112 -0.7136
 9306TIP3   OH252112   1.525   3.392  12.417  0.2372 -0.5723  0.3826
 9306TIP3    H152113   1.464   3.363  12.349  1.4055  0.0859 -1.0158
 9306TIP3    H252114   1.597   3.432  12.368  0.1367  1.8743  2.0689
 9307TIP3   OH252115   3.843   1.387  10.316  0.0316 -0.2930 -0.8283
 9307TIP3    H152116   3.912   1.407  10.379  0.2117  1.7308 -1.5936
 9307TIP3    H252117   3.888   1.375  10.233 -0.4355  0.0943 -1.1470
 9308TIP3   OH252118   1.200   3.483   9.606  0.7091 -0.0397 -0.2622
 9308TIP3    H152119   1.119   3.476   9.557  0.8620 -1.2642 -0.3721
 9308TIP3    H252120   1.174   3.468   9.697  0.7275  0.2060 -0.2143
 9309TIP3   OH252121   4.842   5.336  10.847 -0.2314  0.2646  0.0985
 9309TIP3    H152122   4.824   5.262  10.906  1.2346 -1.9865 -2.0654
 9309TIP3    H252123   4.803   5.310  10.764  1.0477  1.5346 -0.9527
 9310TIP3   OH252124   4.875   5.128  10.147 -0.6171  0.0104  0.1461
 9310TIP3    H152125   4.963   5.152  10.120 -0.6306  0.5575  0.5718
 9310TIP3    H252126   4.829   5.212  10.158 -1.3728 -0.2783 -0.6817
 9311TIP3   OH252127   2.606   0.583  10.086 -0.0334 -0.1145 -0.1199
 9311TIP3    H152128   2.515   0.574  10.113 -0.0908 -0.5069 -0.4316
 9311TIP3    H252129   2.645   0.640  10.153 -0.5825  0.3371 -0.1711
 9312TIP3   OH252130   4.041   2.070  11.605  0.3238  0.4273  0.2847
 9312TIP3    H152131   4.041   1.975  11.590  2.7498  0.5842 -1.2460
 9312TIP3    H252132   4.023   2.107  11.519 -0.0233  1.3679  0.7564
 9313TIP3   OH252133   1.493   0.632   9.840 -0.3474  0.2857  0.0280
 9313TIP3    H152134   1.423   0.658   9.899 -3.5046 -0.7358 -2.9446
 9313TIP3    H252135   1.489   0.696   9.769 -0.4121 -1.5161 -1.6831
 9314TIP3   OH252136   0.258   5.744  12.688  0.1403  0.1501 -0.2631
 9314TIP3    H152137   0.255   5.687  12.765 -0.8641  0.4211 -0.0942
 9314TIP3    H252138   0.326   5.808  12.709  0.9515 -0.6863 -0.2622
 9315TIP3   OH252139   6.058   2.946  10.341  0.6371  0.3371 -0.0496
 9315TIP3    H152140   6.133   2.912  10.390  0.6292  2.0082  1.2208
 9315TIP3    H252141   6.060   3.040  10.357 -0.9924  0.5822 -1.0636
 9316TIP3   OH252142   3.578   2.306   9.649  0.2247  0.2567  0.1037
 9316TIP3    H152143   3.586   2.238   9.582  1.3951  0.7762 -0.3257
 9316TIP3    H252144   3.622   2.269   9.726 -2.0401 -0.7614  0.9744
 9317TIP3   OH252145   4.492   4.231  11.862 -0.8537  0.1006  0.4216
 9317TIP3    H152146   4.428   4.230  11.791 -0.9227  1.1356  0.4495
 9317TIP3    H252147   4.444   4.268  11.937 -0.6102 -0.4106  0.8368
 9318TIP3   OH252148   0.859   0.073  13.868 -0.0927  0.4527  0.3129
 9318TIP3    H152149   0.766   0.068  13.891  0.1900 -0.5513  1.3305
 9318TIP3    H252150   0.892  -0.015  13.886  0.9677  0.6855 -0.4538
 9319TIP3   OH252151   0.702   6.506  10.370 -0.5056 -0.3671 -0.1732
 9319TIP3    H152152   0.772   6.565  10.397  0.5078 -0.8477 -1.6236
 9319TIP3    H252153   0.707   6.504  10.274 -0.9674 -2.2328 -0.2103
 9320TIP3   OH252154   3.036   5.599   9.549 -0.2360 -0.1697  0.5940
 9320TIP3    H152155   3.110   5.546   9.520  1.0230  0.6691  2.1411
 9320TIP3    H252156   2.962   5.565   9.500  0.8124 -2.3102  0.3879
 9321TIP3   OH252157   0.664   5.285  10.998 -0.1071 -0.1486  0.5842
 9321TIP3    H152158   0.571   5.273  10.980 -0.1562 -1.0256  1.3406
 9321TIP3    H252159   0.707   5.273  10.914 -0.6999  0.7034  0.1391
 9322TIP3   OH252160   0.647   1.329  13.349  0.0382 -0.2398 -0.1561
 9322TIP3    H152161   0.708   1.390  13.308 -3.2847  1.9842 -2.2689
 9322TIP3    H252162   0.639   1.361  13.439 -1.0596  2.1719 -1.0104
 9323TIP3   OH252163   1.820   2.293   9.525 -0.3234  0.1606  0.3627
 9323TIP3    H152164   1.783   2.371   9.567  0.5304  1.6527 -1.4990
 9323TIP3    H252165   1.887   2.327   9.466  0.7223 -2.0896  0.1541
 9324TIP3   OH252166   5.763   4.715  12.402  0.3456 -0.0592 -0.0802
 9324TIP3    H152167   5.670   4.737  12.399 -0.2432 -2.1278  0.7051
 9324TIP3    H252168   5.796   4.763  12.477 -0.0246  0.8699 -0.4966
 9325TIP3   OH252169   0.814   5.873  11.109 -0.2003 -0.6713  0.1120
 9325TIP3    H152170   0.776   5.863  11.196 -1.1792  1.5210  0.0086
 9325TIP3    H252171   0.889   5.931  11.121 -0.2120 -0.5242 -0.4636
 9326TIP3   OH252172   1.052   5.531  11.792  0.0394  0.2618  0.6248
 9326TIP3    H152173   1.098   5.448  11.806 -0.0180  0.3349  1.3025
 9326TIP3    H252174   1.115   5.597  11.821 -0.0358  0.4395  0.3848
 9327TIP3   OH252175   1.192   4.864  10.288 -0.0524 -0.2388 -0.9148
 9327TIP3    H152176   1.130   4.932  10.260 -1.1181 -0.2990  1.1216
 9327TIP3    H252177   1.140   4.805  10.343  2.0415  0.4455  2.0332
 9328TIP3   OH252178   4.793   6.481  10.905  0.3783  0.6174  0.0166
 9328TIP3    H152179   4.703   6.514  10.902  0.3889  0.6435 -0.0380
 9328TIP3    H252180   4.816   6.478  10.998 -0.1185 -0.5958  0.1146
 9329TIP3   OH252181   2.276   0.828  12.268 -0.1000 -0.6002 -0.0235
 9329TIP3    H152182   2.277   0.922  12.287 -2.7808 -0.4569 -0.3468
 9329TIP3    H252183   2.280   0.787  12.355  0.1746 -0.1834  0.1665
 9330TIP3   OH252184   0.053   1.924  12.309  0.9144 -0.0843  0.0209
 9330TIP3    H152185   0.113   1.850  12.317  1.2353  0.1924  0.2283
 9330TIP3    H252186  -0.034   1.886  12.324  0.7509 -0.9528 -2.6931
 9331TIP3   OH252187   0.970   6.443  13.894 -0.0614  0.6990  0.3634
 9331TIP3    H152188   0.950   6.436  13.800 -2.2065 -2.2091  0.8765
 9331TIP3    H252189   1.036   6.376  13.909  0.0670  0.9612  0.9810
 9332TIP3   OH252190   5.226   6.083  12.630 -0.1879 -0.2791 -0.1060
 9332TIP3    H152191   5.317   6.112  12.630 -0.3486  0.2319  0.2162
 9332TIP3    H252192   5.201   6.085  12.723  0.0276 -2.1812  0.0416
 9333TIP3   OH252193   5.732   5.011  11.712 -0.3672 -0.1802 -0.3256
 9333TIP3    H152194   5.804   4.949  11.715 -1.4592 -1.4881 -0.2791
 9333TIP3    H252195   5.687   4.992  11.629 -2.1459 -1.1688  0.8042
 9334TIP3   OH252196   1.635   4.282  11.681 -0.2521  0.0588  0.1304
 9334TIP3    H152197   1.709   4.342  11.673 -0.4863  0.3520  0.1774
 9334TIP3    H252198   1.671   4.197  11.655 -0.1958  0.4076 -0.9585
 9335TIP3   OH252199   1.582   3.854  11.124  0.0636  0.0207  0.0282
 9335TIP3    H152200   1.675   3.877  11.117 -0.1313  0.9789  0.4131
 9335TIP3    H252201   1.537   3.924  11.076 -0.6016  0.9934  1.9646
 9336TIP3   OH252202   6.458   2.476   9.741  0.0474 -0.0960 -0.1630
 9336TIP3    H152203   6.437   2.554   9.793  0.8141 -0.0360  0.0739
 9336TIP3    H252204   6.501   2.417   9.803 -1.3625 -1.1173 -0.1103
 9337TIP3   OH252205   0.370   1.745   9.784 -0.0447  0.4982 -0.3138
 9337TIP3    H152206   0.307   1.803   9.741 -0.2928 -0.7099 -1.6475
 9337TIP3    H252207   0.369   1.665   9.732  0.1220 -0.8138  1.5836
 9338TIP3   OH252208   0.107   4.830  11.231  0.0313  0.1161 -0.3781
 9338TIP3    H152209   0.054   4.760  11.193 -0.3852 -0.2018  0.7634
 9338TIP3    H252210   0.187   4.831  11.178 -0.1061 -0.9812 -0.6246
 9339TIP3   OH252211   0.623   5.650  11.064 -0.4711 -0.2042  0.1235
 9339TIP3    H152212   0.681   5.726  11.062 -2.4279  1.4913  2.2859
 9339TIP3    H252213   0.603   5.633  10.971  0.9366  1.1442 -0.4723
 9340TIP3   OH252214   0.270   2.142  10.852  0.3457 -0.0318 -0.0524
 9340TIP3    H152215   0.193   2.191  10.823 -0.6770 -0.2259  2.0875
 9340TIP3    H252216   0.305   2.194  10.925  1.6392 -0.4981 -0.3062
 9341TIP3   OH252217   4.261   6.440  12.023 -0.0267 -0.0346 -0.2754
 9341TIP3    H152218   4.268   6.530  12.055  0.3401 -0.4406  0.8623
 9341TIP3    H252219   4.308   6.440  11.940 -0.2120  0.8654 -0.3916
 9342TIP3   OH252220   6.168   0.488  10.826  0.1201 -0.3429  0.1570
 9342TIP3    H152221   6.256   0.489  10.863  0.5177 -3.9116 -0.3483
 9342TIP3    H252222   6.180   0.502  10.732 -0.3033  2.4797  0.4162
 9343TIP3   OH252223   0.258   2.965  12.500  0.6071  0.3992 -0.3797
 9343TIP3    H152224   0.251   3.053  12.535 -1.2524  0.2743 -0.3539
 9343TIP3    H252225   0.168   2.937  12.487  1.1282 -1.7411  0.2114
 9344TIP3   OH252226   0.178   3.785  10.597  0.1055  0.1684  0.0931
 9344TIP3    H152227   0.265   3.813  10.625  0.1298  0.1830  0.0023
 9344TIP3    H252228   0.124   3.794  10.675  0.0260  0.8492 -0.0344
 9345TIP3   OH252229   2.813   5.135  11.425 -0.0803  0.4170  0.3217
 9345TIP3    H152230   2.809   5.147  11.330 -0.1515  2.2402  0.5210
 9345TIP3    H252231   2.721   5.133  11.452 -0.0648  1.9281  0.5489
 9346TIP3   OH252232   1.010   3.437  10.821  0.0169 -0.0577 -0.2840
 9346TIP3    H152233   0.975   3.350  10.800 -0.0769 -0.2166  0.4781
 9346TIP3    H252234   1.084   3.449  10.763 -0.9939  0.0726 -1.6026
 9347TIP3   OH252235   2.569   0.270  11.083 -0.3807 -0.3241 -0.1543
 9347TIP3    H152236   2.493   0.213  11.075 -1.3817  1.1248 -1.5449
 9347TIP3    H252237   2.532   0.358  11.091  1.1067  0.6001 -2.5241
 9348TIP3   OH252238   1.632   4.212  10.725 -0.5040  0.2446  1.4713
 9348TIP3    H152239   1.593   4.236  10.642 -0.3160  2.0531  1.8677
 9348TIP3    H252240   1.693   4.141  10.704  1.7025  2.5288 -0.4964
 9349TIP3   OH252241   4.684   4.357  12.088 -0.0751  0.3670  0.0402
 9349TIP3    H152242   4.678   4.337  11.995  0.9785  1.2665 -0.2383
 9349TIP3    H252243   4.726   4.280  12.127 -0.4677  0.0151 -0.2238
 9350TIP3   OH252244   1.853   5.099  12.553  0.1457  0.3456  0.5375
 9350TIP3    H152245   1.932   5.152  12.547  1.4319 -1.5898 -1.8861
 9350TIP3    H252246   1.781   5.161  12.541  1.3697  1.9173  0.9930
 9351TIP3   OH252247   1.338   3.734   9.585 -0.1122 -0.3267  0.2292
 9351TIP3    H152248   1.291   3.750   9.503 -1.4755 -0.3839  0.9656
 9351TIP3    H252249   1.316   3.644   9.608  0.5538 -0.4291  0.4772
 9352TIP3   OH252250   2.570   5.714  13.298  0.0880 -0.4286  0.2041
 9352TIP3    H152251   2.622   5.718  13.218  1.3322 -0.1188  1.0050
 9352TIP3    H252252   2.583   5.799  13.340 -0.0206 -0.8254  1.0670
 9353TIP3   OH252253   0.565   3.066  10.930  0.1292  0.3547 -0.3171
 9353TIP3    H152254   0.536   3.072  10.839 -0.0191 -1.1246 -0.3867
 9353TIP3    H252255   0.619   3.145  10.943 -1.6174  1.7389 -1.0043
 9354TIP3   OH252256   6.224   3.194  11.634 -0.1256  0.2279 -0.7910
 9354TIP3    H152257   6.134   3.167  11.652  0.0947  1.0458  1.8911
 9354TIP3    H252258   6.216   3.282  11.596 -0.4650  0.1096 -0.9978
 9355TIP3   OH252259   5.254   4.311  12.087 -0.7433  0.4507 -0.5764
 9355TIP3    H152260   5.184   4.374  12.071 -1.2131  1.1258  3.1737
 9355TIP3    H252261   5.301   4.305  12.004 -3.2656  2.4343 -2.3042
 9356TIP3   OH252262   6.617   4.243   9.713 -0.7282 -0.9426  0.1765
 9356TIP3    H152263   6.529   4.205   9.722 -1.5826  0.1059 -2.8310
 9356TIP3    H252264   6.628   4.295   9.793 -3.5442  0.1673 -0.0230
 9357TIP3   OH252265   0.984   3.377   9.447 -0.2235 -0.8177 -0.5476
 9357TIP3    H152266   1.025   3.291   9.455 -0.4441 -0.9392 -0.6891
 9357TIP3    H252267   1.027   3.417   9.372 -0.0551 -0.7680 -0.4239
 9358TIP3   OH252268   2.482   3.387   9.440  0.0292  0.6117  0.2108
 9358TIP3    H152269   2.531   3.469   9.434  0.8530  0.1003 -0.3852
 9358TIP3    H252270   2.541   3.327   9.486  1.2749 -0.8837 -3.0049
 9359TIP3   OH252271   6.096   0.165  12.412 -0.2657 -0.9912  0.6965
 9359TIP3    H152272   6.022   0.132  12.463 -0.3809 -1.5658  0.1725
 9359TIP3    H252273   6.069   0.153  12.321 -0.2058  0.3495  0.4930
 9360TIP3   OH252274   6.232   1.235  12.394  0.2748 -0.3063 -0.0585
 9360TIP3    H152275   6.210   1.176  12.322  0.3782 -0.2783 -0.1126
 9360TIP3    H252276   6.213   1.183  12.473 -0.4042 -0.1241 -0.1000
 9361TIP3   OH252277   4.648   2.421  10.461 -0.5246 -0.1338  0.1837
 9361TIP3    H152278   4.627   2.330  10.440  2.3974 -0.2028 -3.4358
 9361TIP3    H252279   4.701   2.415  10.541  0.6592 -1.8013 -0.6680
 9362TIP3   OH252280   5.364   1.038  11.666 -0.3914 -0.1533  0.4305
 9362TIP3    H152281   5.292   1.040  11.729  0.0346 -1.1310  0.9712
 9362TIP3    H252282   5.380   0.945  11.651  0.2243  0.0634 -0.3007
 9363TIP3   OH252283   5.501   0.756  12.133  0.0644 -0.2044  0.4629
 9363TIP3    H152284   5.426   0.795  12.176  0.2072 -0.0938  0.6142
 9363TIP3    H252285   5.484   0.767  12.039  1.3304  2.6246  0.4697
 9364TIP3   OH252286   3.678   6.594  12.259 -0.3009  0.5911 -0.2948
 9364TIP3    H152287   3.598   6.594  12.312 -1.8274 -1.0193 -2.4276
 9364TIP3    H252288   3.748   6.617  12.320 -1.8366 -1.7468  2.5734
 9365TIP3   OH252289   1.358   4.338  11.662  0.5949 -0.4588  0.2417
 9365TIP3    H152290   1.338   4.419  11.615  0.9496 -0.8629 -0.6201
 9365TIP3    H252291   1.454   4.335  11.663  0.5796 -1.2234 -0.3524
 9366TIP3   OH252292   1.911   1.357  10.826 -0.6088 -0.1625 -0.1677
 9366TIP3    H152293   1.913   1.261  10.834  0.4230 -0.1168  0.3174
 9366TIP3    H252294   1.993   1.379  10.783 -1.3616  0.4330 -1.3317
 9367TIP3   OH252295   5.695   4.873  11.963 -0.3829  0.0857  0.2316
 9367TIP3    H152296   5.696   4.934  11.890 -1.6685 -0.1641 -0.0056
 9367TIP3    H252297   5.786   4.872  11.994  0.7029 -1.3285 -2.6328
 9368TIP3   OH252298   3.302   3.336  11.118  0.2198  0.3306 -0.2039
 9368TIP3    H152299   3.236   3.300  11.059  1.0776  0.1379 -1.0771
 9368TIP3    H252300   3.287   3.430  11.117  0.1635  0.3169 -0.6534
 9369TIP3   OH252301   5.592   4.175  13.113  0.0605  0.1780 -0.0292
 9369TIP3    H152302   5.564   4.088  13.140 -0.2629 -0.0801 -1.1516
 9369TIP3    H252303   5.527   4.234  13.150 -0.0265 -0.1026  0.2657
 9370TIP3   OH252304   1.258   1.291  11.212  0.1036  0.0043  0.3990
 9370TIP3    H152305   1.337   1.307  11.264  0.0804  0.7101  0.2298
 9370TIP3    H252306   1.275   1.208  11.168  1.1947  0.6184 -0.4083
 9371TIP3   OH252307   6.017   5.362  12.359 -0.2507 -0.7798  0.4803
 9371TIP3    H152308   6.112   5.357  12.368 -0.0778 -0.0194 -0.6432
 9371TIP3    H252309   5.993   5.286  12.305 -0.1046 -0.3041 -0.2757
 9372TIP3   OH252310   5.721   6.191  11.955  0.4102 -0.1224 -0.1049
 9372TIP3    H152311   5.754   6.129  11.889  0.9569  1.6516 -1.5917
 9372TIP3    H252312   5.651   6.238  11.910  0.0471  0.3795  0.9620
 9373TIP3   OH252313   1.107   6.411  10.442 -0.1710 -0.0407 -0.1112
 9373TIP3    H152314   1.030   6.364  10.472 -1.0868  0.9833 -0.7771
 9373TIP3    H252315   1.173   6.343  10.428 -0.5736 -0.8237  1.5301
 9374TIP3   OH252316   2.625   1.185  11.120  0.1612  0.3673  0.1945
 9374TIP3    H152317   2.702   1.195  11.064  0.5229 -0.1608  0.5828
 9374TIP3    H252318   2.652   1.121  11.186 -0.6286  0.1308  0.3018
 9375TIP3   OH252319   5.803   5.059  10.568 -0.9216  0.0598 -0.5926
 9375TIP3    H152320   5.743   5.052  10.494 -1.2909  0.0479 -0.2890
 9375TIP3    H252321   5.824   4.968  10.590 -0.2431  0.0742 -1.1439
 9376TIP3   OH252322   6.412   3.321   9.996  0.0824  0.3164 -0.0706
 9376TIP3    H152323   6.503   3.339  10.022  0.2323 -0.6108  0.0965
 9376TIP3    H252324   6.407   3.350   9.905 -0.0345  2.2434  0.5077
 9377TIP3   OH252325   2.720   6.456  11.046  0.2021  0.2749  0.1309
 9377TIP3    H152326   2.746   6.510  11.120  0.6798 -0.0409  0.1975
 9377TIP3    H252327   2.634   6.491  11.020 -0.1395  0.1566  1.0498
 9378TIP3   OH252328   6.003   1.456  11.177  1.0148  0.0931 -0.0619
 9378TIP3    H152329   6.007   1.388  11.244  2.3492  1.4882  1.3594
 9378TIP3    H252330   5.946   1.523  11.214  0.2611  0.0727 -1.1481
 9379TIP3   OH252331   3.129   0.623   9.853 -0.1256 -0.1643  0.2633
 9379TIP3    H152332   3.064   0.586   9.793 -0.7787 -0.4391  1.1151
 9379TIP3    H252333   3.090   0.704   9.884 -0.6181 -0.8982  1.6751
 9380TIP3   OH252334   2.612   3.121  11.726 -0.2009 -0.1525  0.6150
 9380TIP3    H152335   2.536   3.078  11.765 -0.1840 -0.1111  0.6938
 9380TIP3    H252336   2.575   3.192  11.673 -0.2517 -0.5059  0.1716
 9381TIP3   OH252337   3.068   1.774  10.716  0.0881  0.2000 -0.2307
 9381TIP3    H152338   3.136   1.823  10.763 -0.5279  2.8932 -1.9673
 9381TIP3    H252339   3.117   1.706  10.669  1.0136 -0.7408  1.9117
 9382TIP3   OH252340   4.939   3.259  10.317  0.2911 -0.0041  0.3308
 9382TIP3    H152341   4.957   3.335  10.372 -2.1586  1.4097 -0.6827
 9382TIP3    H252342   4.901   3.296  10.237 -1.8864 -2.3207  0.1778
 9383TIP3   OH252343   6.416   0.289  10.168  0.3944 -0.6661 -0.0964
 9383TIP3    H152344   6.397   0.309  10.260 -0.9624  3.0338 -1.0026
 9383TIP3    H252345   6.339   0.242  10.137  0.5256 -1.2610  0.4535
 9384TIP3   OH252346   2.576   1.139  12.071 -0.1048 -0.0127 -0.0712
 9384TIP3    H152347   2.481   1.153  12.070 -0.3007 -1.1948  0.2635
 9384TIP3    H252348   2.590   1.078  12.144  0.6130 -1.7774 -1.6283
 9385TIP3   OH252349   5.132   6.488  11.087 -0.0101  0.7673  0.1373
 9385TIP3    H152350   5.043   6.472  11.117 -0.1848  1.9412  0.2863
 9385TIP3    H252351   5.127   6.480  10.992 -0.8173  3.0499 -0.0867
 9386TIP3   OH252352   3.495   2.881  11.487  0.3535  0.2207 -0.1274
 9386TIP3    H152353   3.507   2.975  11.469  0.5455  0.0483 -0.9049
 9386TIP3    H252354   3.489   2.877  11.583  0.9309  0.9624 -0.0444
 9387TIP3   OH252355   2.897   4.880  11.632  0.3336 -0.0866  0.4891
 9387TIP3    H152356   2.854   4.802  11.598  1.5264 -0.6394  0.1896
 9387TIP3    H252357   2.952   4.910  11.560  0.1427  0.8381  0.7209
 9388TIP3   OH252358   5.776   2.200  12.007  0.0313 -0.4249  0.4492
 9388TIP3    H152359   5.752   2.290  12.026  0.0528  0.1315 -1.8032
 9388TIP3    H252360   5.700   2.164  11.961 -0.5287 -2.0426  2.4651
 9389TIP3   OH252361   0.165   3.495  12.075 -0.1717 -0.0807  0.5391
 9389TIP3    H152362   0.171   3.457  12.162 -0.4929  0.4364  0.7899
 9389TIP3    H252363   0.107   3.436  12.027 -2.5129  1.2353  1.5816
 9390TIP3   OH252364   6.091   0.416  11.819 -0.4234  0.0328  0.2529
 9390TIP3    H152365   6.001   0.444  11.810 -0.1231  0.9535  0.0569
 9390TIP3    H252366   6.137   0.457  11.746  0.1958 -0.2334  0.4828
 9391TIP3   OH252367   3.590   4.242  11.234 -0.2709  0.1647  0.0974
 9391TIP3    H152368   3.522   4.287  11.284  0.5927 -0.6532  2.1039
 9391TIP3    H252369   3.601   4.158  11.278 -1.1241 -1.6786 -2.9436
 9392TIP3   OH252370   1.408   4.104  10.907  0.5503  0.0037  0.2462
 9392TIP3    H152371   1.474   4.152  10.856  0.3209  0.9009  0.7881
 9392TIP3    H252372   1.341   4.169  10.927 -1.0300 -1.1286 -1.1657
 9393TIP3   OH252373   5.156   2.841  10.219  0.2649 -0.6960  0.8379
 9393TIP3    H152374   5.085   2.899  10.190  0.2208 -1.0966  0.1038
 9393TIP3    H252375   5.124   2.753  10.198  0.8056 -0.9062  0.8968
 9394TIP3   OH252376   0.220   6.067  11.096  0.0029 -0.2145 -0.1029
 9394TIP3    H152377   0.141   6.026  11.129 -0.3412  2.0263  2.1270
 9394TIP3    H252378   0.191   6.118  11.020  0.0124 -2.0886 -1.4210
 9395TIP3   OH252379   4.492   5.364  10.767 -0.2052  0.5197  0.6691
 9395TIP3    H152380   4.558   5.423  10.804  0.6185 -1.5647  2.7719
 9395TIP3    H252381   4.460   5.315  10.842 -2.4652 -0.2001 -0.6739
 9396TIP3   OH252382   6.348   3.543  10.163 -0.2378  0.8655 -0.1638
 9396TIP3    H152383   6.420   3.542  10.226 -1.4604  0.0340  1.3010
 9396TIP3    H252384   6.346   3.453  10.128 -0.2999  1.0036 -0.5212
 9397TIP3   OH252385   2.606   1.530  12.947 -0.2419 -0.0046 -0.2638
 9397TIP3    H152386   2.571   1.619  12.955 -0.5106 -0.1474  0.1750
 9397TIP3    H252387   2.531   1.473  12.966 -0.7468 -0.3855 -2.9061
 9398TIP3   OH252388   0.068   3.255  10.405  0.5163 -0.1848 -0.0337
 9398TIP3    H152389   0.007   3.329  10.412  0.6348 -0.1527  0.6813
 9398TIP3    H252390   0.042   3.211  10.324 -1.7630 -1.3382  1.2381
 9399TIP3   OH252391   0.739   6.504  12.915  0.3427 -0.2317  0.0639
 9399TIP3    H152392   0.827   6.479  12.887  0.8432  0.2247  1.1569
 9399TIP3    H252393   0.687   6.502  12.835  1.4698  0.0313 -0.7074
 9400TIP3   OH252394   2.970   2.463   9.953 -0.0689  0.2019  0.5265
 9400TIP3    H152395   2.950   2.402  10.025  2.8889  0.6390  1.8796
 9400TIP3    H252396   2.928   2.545   9.979 -1.2709 -0.3532  0.3798
 9401TIP3   OH252397   4.558   6.230  12.076  0.0952 -0.4865 -0.6333
 9401TIP3    H152398   4.473   6.189  12.095 -0.2765  0.6407  0.3124
 9401TIP3    H252399   4.610   6.215  12.155  0.0393  0.5683 -0.3692
 9402TIP3   OH252400   5.146   2.190  10.893 -0.0559 -0.2202 -0.1450
 9402TIP3    H152401   5.185   2.215  10.809  0.5815 -2.7729 -0.6926
 9402TIP3    H252402   5.053   2.205  10.882  0.2514  1.8193 -0.3780
 9403TIP3   OH252403   1.591   6.330  12.490 -0.3453 -0.2066 -0.0554
 9403TIP3    H152404   1.610   6.321  12.584  0.4243  1.8919  0.0398
 9403TIP3    H252405   1.498   6.351  12.487 -0.2148  0.4750  0.3232
 9404TIP3   OH252406   1.834   3.895  10.590 -0.2267 -0.6463  0.5072
 9404TIP3    H152407   1.828   3.800  10.592  1.1141 -0.7381  0.9426
 9404TIP3    H252408   1.857   3.920  10.679 -3.2604  0.3475  1.1513
 9405TIP3   OH252409   3.114   2.109  11.747  0.0598 -0.1567 -0.2785
 9405TIP3    H152410   3.206   2.120  11.721  0.4747 -0.9136  0.8131
 9405TIP3    H252411   3.096   2.185  11.802 -0.8368  1.4799 -2.6519
 9406TIP3   OH252412   2.363   3.950   9.344  0.1264  0.8876  0.2837
 9406TIP3    H152413   2.379   4.020   9.407 -0.2107  1.1094  0.1318
 9406TIP3    H252414   2.307   3.888   9.391  3.0471 -0.9893  1.5583
 9407TIP3   OH252415   0.812   3.548   9.558  0.5423 -0.4762  0.0431
 9407TIP3    H152416   0.868   3.487   9.510  2.0634  0.9537 -0.0777
 9407TIP3    H252417   0.805   3.625   9.501 -2.4651 -0.9715 -0.4296
 9408TIP3   OH252418   5.120   5.114  10.014  0.1901  0.1429 -0.1393
 9408TIP3    H152419   5.209   5.078  10.011 -0.2496 -0.9332 -0.4376
 9408TIP3    H252420   5.071   5.062   9.950 -1.2373 -0.8765  1.7079
 9409TIP3   OH252421   4.318   4.402  12.023 -0.1773 -0.3287  0.3853
 9409TIP3    H152422   4.300   4.485  12.068  0.5764  0.7462 -1.2108
 9409TIP3    H252423   4.235   4.355  12.025 -0.8423  0.8204  0.6036
 9410TIP3   OH252424   3.913   6.496  11.997  0.2137  0.1779 -0.2139
 9410TIP3    H152425   3.960   6.576  12.020 -0.1096  0.4115 -0.3492
 9410TIP3    H252426   3.939   6.432  12.063 -1.5617  1.1431  1.5120
 9411TIP3   OH252427   2.053   3.033   9.745  0.5264 -0.0402  0.3519
 9411TIP3    H152428   2.102   3.116   9.745  1.0376 -0.3196  1.4092
 9411TIP3    H252429   2.082   2.989   9.825 -0.8256 -0.5976  0.5594
 9412TIP3   OH252430   1.524   5.072  10.161 -0.2675  0.2402 -0.3619
 9412TIP3    H152431   1.528   5.030  10.075 -0.0961  2.1797 -1.3508
 9412TIP3    H252432   1.438   5.114  10.162  0.2536  1.3148 -0.1254
 9413TIP3   OH252433   6.208   5.549  11.983 -0.2366 -0.1606  0.2996
 9413TIP3    H152434   6.124   5.508  11.963 -1.0987  0.9913  1.4015
 9413TIP3    H252435   6.265   5.476  12.008 -1.4795 -0.7872  1.4197
 9414TIP3   OH252436   3.704   2.599   9.554  0.0671  0.6764  0.0073
 9414TIP3    H152437   3.633   2.555   9.506 -0.1628  0.7028  0.3237
 9414TIP3    H252438   3.736   2.532   9.614 -0.4619  1.0147  0.6817
 9415TIP3   OH252439   0.640   5.678  12.182 -0.4708 -0.2892  0.2437
 9415TIP3    H152440   0.645   5.729  12.263 -1.3415 -0.5065  0.4435
 9415TIP3    H252441   0.700   5.723  12.122  1.0486 -0.7639  1.3315
 9416TIP3   OH252442   1.833   4.508  12.729  0.3866 -0.2611  0.0613
 9416TIP3    H152443   1.744   4.473  12.731 -0.2912  1.3622 -0.0297
 9416TIP3    H252444   1.841   4.558  12.810  1.1360 -0.1918 -0.0471
 9417TIP3   OH252445   6.027   0.443  12.413 -0.0667  0.3397 -0.0611
 9417TIP3    H152446   6.036   0.453  12.318 -0.2151 -0.3755 -0.1612
 9417TIP3    H252447   6.071   0.360  12.431 -2.8165 -1.2185  0.0190
 9418TIP3   OH252448   0.012   4.842   9.574  0.3881  0.3367 -0.1633
 9418TIP3    H152449  -0.016   4.932   9.591  0.5261  0.3062  0.2426
 9418TIP3    H252450   0.108   4.847   9.570  0.4651  0.0399  0.9472
 9419TIP3   OH252451   3.711   2.889   9.774  0.0396 -0.2139 -0.0894
 9419TIP3    H152452   3.724   2.852   9.687  2.3770 -0.6985  0.4077
 9419TIP3    H252453   3.745   2.822   9.834  1.5786  1.4323  0.9870
 9420TIP3   OH252454   2.271   0.036  12.252  0.6324 -0.0884  0.3786
 9420TIP3    H152455   2.277  -0.011  12.336  0.7279 -0.9834 -0.1152
 9420TIP3    H252456   2.272  -0.033  12.186 -1.4805  0.4642 -0.3086
 9421TIP3   OH252457   4.284   2.960   9.552  0.3443 -0.5057 -0.3196
 9421TIP3    H152458   4.305   3.053   9.551  2.1793 -0.5777  4.0235
 9421TIP3    H252459   4.203   2.954   9.602  1.1762 -1.2129  1.0243
 9422TIP3   OH252460   6.230   2.042  11.635 -0.0282 -0.5934 -0.6838
 9422TIP3    H152461   6.286   2.011  11.564 -0.4867 -1.0433 -0.8597
 9422TIP3    H252462   6.267   2.002  11.714  0.7564  0.2759 -0.6005
 9423TIP3   OH252463   0.872   3.463  11.621  0.6571  0.0880 -0.0478
 9423TIP3    H152464   0.948   3.501  11.577  0.4454  1.2434  0.5282
 9423TIP3    H252465   0.890   3.476  11.715  0.4416 -1.0146  0.1582
 9424TIP3   OH252466   6.361   1.326  10.055  0.4182  0.3170 -0.3291
 9424TIP3    H152467   6.444   1.277  10.060 -0.5043 -1.1862  1.6012
 9424TIP3    H252468   6.303   1.269  10.004 -0.7173 -0.8063  2.0776
 9425TIP3   OH252469   6.515   1.300  10.664  0.0056  0.1697  0.8627
 9425TIP3    H152470   6.563   1.369  10.710  1.0013  0.0614  0.0327
 9425TIP3    H252471   6.558   1.294  10.579  0.1707 -1.7031  1.0308
 9426TIP3   OH252472   1.994   4.482   9.632 -0.0699  0.0673  0.2565
 9426TIP3    H152473   2.061   4.433   9.679 -0.0858 -0.2894 -0.0873
 9426TIP3    H252474   1.941   4.523   9.700  1.5053  1.7478  0.5290
 9427TIP3   OH252475   4.104   5.352  11.255 -1.0073  0.6466 -0.6570
 9427TIP3    H152476   4.013   5.348  11.284 -0.7893 -0.2983 -0.0745
 9427TIP3    H252477   4.102   5.314  11.167 -1.2863  1.3062 -0.9414
 9428TIP3   OH252478   5.359   1.614  10.391 -0.0310  0.3685 -0.6964
 9428TIP3    H152479   5.447   1.588  10.419 -0.1649  1.2961  0.7080
 9428TIP3    H252480   5.325   1.665  10.465 -0.7604  2.2304 -2.2200
 9429TIP3   OH252481   3.461   1.497  11.673  0.5486 -0.6769  0.0791
 9429TIP3    H152482   3.508   1.467  11.595 -0.4687 -2.1484 -0.0316
 9429TIP3    H252483   3.443   1.416  11.722  0.2342  0.1039  1.2932
 9430TIP3   OH252484   2.556   0.175  12.305 -0.1499 -0.2462 -0.1038
 9430TIP3    H152485   2.499   0.248  12.327  0.9333  0.2325  1.2607
 9430TIP3    H252486   2.622   0.213  12.246  0.2736 -0.1710  0.4131
 9431TIP3   OH252487   3.349   2.814  12.596  0.0711  0.0231  0.1368
 9431TIP3    H152488   3.263   2.806  12.639 -0.0900 -1.6913 -0.4376
 9431TIP3    H252489   3.389   2.728  12.606  1.6347  0.7124  0.1476
 9432TIP3   OH252490   2.143   1.094  11.598  0.2612  0.7744 -0.4156
 9432TIP3    H152491   2.100   1.092  11.513  0.5829  0.8519 -0.5839
 9432TIP3    H252492   2.227   1.138  11.581 -0.1935  1.9228  0.1764
 9433TIP3   OH252493   1.849   1.473  12.675  0.1680  0.8164 -0.0090
 9433TIP3    H152494   1.789   1.488  12.602 -1.2059  0.7941  1.0726
 9433TIP3    H252495   1.834   1.381  12.699  0.3563  0.9202  0.5054
 9434TIP3   OH252496   4.050   0.678  12.491 -0.1405 -0.4988  0.1829
 9434TIP3    H152497   4.126   0.724  12.528  0.3138  0.2440 -1.5611
 9434TIP3    H252498   4.077   0.586  12.487 -0.3246 -0.6552  1.9354
 9435TIP3   OH252499   0.401   5.427  13.614 -0.2161 -0.2917 -0.1616
 9435TIP3    H152500   0.314   5.442  13.651  0.3442  1.1694  0.6329
 9435TIP3    H252501   0.459   5.484  13.665  1.2007 -1.1828 -0.7287
 9436TIP3   OH252502   6.349   0.104  10.946  0.3471 -0.3236 -0.4515
 9436TIP3    H152503   6.381   0.153  10.870  2.3133 -0.1239  0.4492
 9436TIP3    H252504   6.344   0.170  11.015  1.7764 -1.0890  0.4264
 9437TIP3   OH252505   0.109   4.716  10.543  0.7435 -0.5189 -0.3090
 9437TIP3    H152506   0.155   4.796  10.519  1.1626 -0.9584 -1.0295
 9437TIP3    H252507   0.097   4.670  10.460  0.5950 -1.2461  0.1087
 9438TIP3   OH252508   2.182   0.852  10.592  0.1028 -0.1764  0.6599
 9438TIP3    H152509   2.253   0.867  10.654  0.6679  2.0145 -0.4311
 9438TIP3    H252510   2.106   0.831  10.646  0.1422  3.3219  2.2752
 9439TIP3   OH252511   4.685   1.076  10.665 -0.4250  0.0086  0.0931
 9439TIP3    H152512   4.706   0.984  10.648  0.2589  0.1296  0.2652
 9439TIP3    H252513   4.661   1.111  10.580  3.4348  0.7346 -0.8992
 9440TIP3   OH252514   0.834   2.942  12.736  0.4368  0.6324 -0.0620
 9440TIP3    H152515   0.821   2.847  12.737 -1.0038  0.7824  1.8987
 9440TIP3    H252516   0.781   2.973  12.662  0.7897 -0.0520 -0.6169
 9441TIP3   OH252517   0.091   3.092  12.978  0.3332 -0.3892  0.0702
 9441TIP3    H152518   0.090   3.071  13.072 -3.1808 -1.9997 -0.1556
 9441TIP3    H252519   0.124   3.012  12.936  0.7272 -0.1141 -0.1539
 9442TIP3   OH252520   4.299   1.260  11.412  0.2388  0.5523 -0.1259
 9442TIP3    H152521   4.350   1.340  11.403 -0.6349  1.1155 -0.1557
 9442TIP3    H252522   4.246   1.273  11.490 -0.0098  0.0641 -0.2080
 9443TIP3   OH252523   2.623   5.403  11.968  0.3915 -0.4022  0.0188
 9443TIP3    H152524   2.564   5.475  11.991  2.4347  1.2489  0.4311
 9443TIP3    H252525   2.638   5.413  11.874  3.3291  2.0308  0.5681
 9444TIP3   OH252526   4.063   4.304  11.402  0.4119  0.0400 -0.7114
 9444TIP3    H152527   4.039   4.256  11.481 -0.2342  1.9394  0.2829
 9444TIP3    H252528   4.000   4.274  11.336  0.0817 -0.5316 -0.1482
 9445TIP3   OH252529   1.918   2.967  12.851  0.3928  0.1697 -0.3101
 9445TIP3    H152530   1.988   2.934  12.907  1.0170  0.9588 -0.6051
 9445TIP3    H252531   1.890   3.048  12.894  1.3545  1.1600 -1.4614
 9446TIP3   OH252532   2.015   2.032  11.433  0.4424  0.2605 -0.1166
 9446TIP3    H152533   1.986   1.944  11.456  0.7382  0.7950  2.5877
 9446TIP3    H252534   1.979   2.046  11.345 -1.7705 -1.5904  0.3776
 9447TIP3   OH252535   6.293   3.224  10.545 -0.1849  0.6829  0.0027
 9447TIP3    H152536   6.278   3.309  10.587  0.1917  1.2940 -1.0803
 9447TIP3    H252537   6.213   3.208  10.495  0.3951  1.1940 -1.1164
 9448TIP3   OH252538   2.453   5.066  10.722  0.4964  0.5946 -0.4352
 9448TIP3    H152539   2.410   5.142  10.762 -1.3399 -0.4003 -0.4187
 9448TIP3    H252540   2.450   5.084  10.628 -1.4287 -0.1370 -0.5598
 9449TIP3   OH252541   5.141   4.428  10.746 -0.0998 -0.5382  0.0580
 9449TIP3    H152542   5.048   4.418  10.726  0.3575 -0.7060 -2.3623
 9449TIP3    H252543   5.155   4.376  10.825 -1.9399 -1.0037  0.1244
 9450TIP3   OH252544   6.208   0.534  10.121  0.0704 -0.4909  0.3597
 9450TIP3    H152545   6.186   0.512  10.211 -0.2240 -0.9223  0.1853
 9450TIP3    H252546   6.287   0.484  10.103  0.1513 -0.3749  0.3883
 9451TIP3   OH252547   5.866   2.428   9.981  0.2054  0.6324  0.1174
 9451TIP3    H152548   5.807   2.487  10.029  1.4677  1.3056  0.8902
 9451TIP3    H252549   5.952   2.445  10.018  0.4674 -2.7254  1.3936
 9452TIP3   OH252550   3.185   6.447  11.901 -0.0752 -0.1526 -0.5496
 9452TIP3    H152551   3.194   6.527  11.850 -0.9091  0.2054 -0.1464
 9452TIP3    H252552   3.188   6.377  11.835  1.3241  0.1506 -0.8346
 9453TIP3   OH252553   1.754   2.532  12.217 -0.6455 -0.4539  0.0071
 9453TIP3    H152554   1.697   2.457  12.230  0.8865 -2.2242 -2.5139
 9453TIP3    H252555   1.821   2.525  12.285 -2.3693  0.7051  1.9359
 9454TIP3   OH252556   4.257   1.580  11.219 -0.2101  0.3043  0.3015
 9454TIP3    H152557   4.334   1.559  11.272 -0.3129  1.6129  1.0136
 9454TIP3    H252558   4.208   1.498  11.216  2.4374 -1.3724 -2.4249
 9455TIP3   OH252559   1.881   1.028  10.501 -0.1682 -1.0574 -0.3546
 9455TIP3    H152560   1.900   1.055  10.591 -0.0866  0.1150 -0.7106
 9455TIP3    H252561   1.847   0.939  10.510  0.8315 -1.3551  0.7358
 9456TIP3   OH252562   0.962   3.119  10.406 -0.2384 -0.3990 -0.5374
 9456TIP3    H152563   0.999   3.047  10.354 -1.1262 -1.5577  0.3673
 9456TIP3    H252564   0.869   3.120  10.383 -0.7865 -1.3385  1.4010
 9457TIP3   OH252565   4.764   3.069  11.396  0.3020  0.2889  0.1944
 9457TIP3    H152566   4.848   3.102  11.366  0.6940 -1.0383 -0.2323
 9457TIP3    H252567   4.761   2.979  11.365 -0.5088 -0.2484  1.7400
 9458TIP3   OH252568   0.896   2.322  11.531  0.0361  0.1696 -0.1806
 9458TIP3    H152569   0.869   2.407  11.564  0.8946  0.2950  0.2306
 9458TIP3    H252570   0.992   2.322  11.541  0.2670 -0.0821 -1.9472
 9459TIP3   OH252571   1.853   2.306  11.713  0.3341  0.6541  0.3582
 9459TIP3    H152572   1.780   2.295  11.652 -1.2013 -0.2070  2.2661
 9459TIP3    H252573   1.812   2.315  11.799  2.4633 -0.2042  1.5437
 9460TIP3   OH252574   2.773   3.679  12.178  0.2190  0.7244  0.4087
 9460TIP3    H152575   2.816   3.644  12.256  0.2258 -0.0618  0.0702
 9460TIP3    H252576   2.812   3.630  12.106 -1.4318 -0.2300  0.1083
 9461TIP3   OH252577   1.842   2.475  12.493 -0.8241  0.0767  0.0119
 9461TIP3    H152578   1.882   2.388  12.493 -0.6031  0.1338  2.1256
 9461TIP3    H252579   1.891   2.524  12.559 -2.7179  0.9314  0.8440
 9462TIP3   OH252580   6.517   0.065   9.633  0.1066 -0.2231 -0.1049
 9462TIP3    H152581   6.610   0.045   9.644  0.7703  1.7400 -1.5150
 9462TIP3    H252582   6.484   0.074   9.722  1.2397 -0.9803  0.4215
 9463TIP3   OH252583   1.145   4.318  11.338 -0.4897 -0.3641  0.2145
 9463TIP3    H152584   1.105   4.389  11.389  0.6146  0.0420  0.5754
 9463TIP3    H252585   1.156   4.354  11.250 -0.8368 -0.4455  0.1378
 9464TIP3   OH252586   2.445   3.292  10.629 -0.3110 -0.2167 -0.1766
 9464TIP3    H152587   2.539   3.274  10.624  0.2363  2.4496 -1.7716
 9464TIP3    H252588   2.424   3.286  10.722  2.0141  1.4135  0.5535
 9465TIP3   OH252589   6.561   0.055  10.100 -0.3528 -0.0199  0.3018
 9465TIP3    H152590   6.554   0.137  10.148 -1.6408 -0.4004  0.8126
 9465TIP3    H252591   6.526   0.074  10.013  0.7388  0.3311 -0.0762
 9466TIP3   OH252592   3.836   0.548  12.658  1.1828 -0.4156 -0.5162
 9466TIP3    H152593   3.783   0.598  12.720 -0.0596 -0.7509 -1.2702
 9466TIP3    H252594   3.926   0.572  12.679  0.7711 -0.1384  1.0752
 9467TIP3   OH252595   1.169   0.376  12.351 -0.1899  0.5664  0.1572
 9467TIP3    H152596   1.135   0.452  12.304  0.3993  1.4971  1.1769
 9467TIP3    H252597   1.103   0.359  12.419 -0.5758 -0.1752 -0.3900
 9468TIP3   OH252598   1.579   0.539  10.456  0.1767  0.3171 -0.0403
 9468TIP3    H152599   1.519   0.612  10.466  0.1994  0.1669  1.4176
 9468TIP3    H252600   1.598   0.535  10.362  0.4244  2.3640 -0.1077
 9469TIP3   OH252601   4.165   6.427  10.372  0.0571  0.1541 -0.2786
 9469TIP3    H152602   4.123   6.494  10.425 -1.2118  0.1910 -1.2855
 9469TIP3    H252603   4.182   6.355  10.433 -2.3855 -0.2577  0.0286
 9470TIP3   OH252604   0.183   1.331   9.427 -0.4605 -0.1906  0.2612
 9470TIP3    H152605   0.266   1.283   9.428  0.1401  0.7367 -1.6035
 9470TIP3    H252606   0.117   1.264   9.444  0.1104 -2.2893 -4.4049
 9471TIP3   OH252607   4.167   4.361  10.836 -0.2636  0.0805  0.4281
 9471TIP3    H152608   4.245   4.307  10.830  0.0280  0.1970  2.6158
 9471TIP3    H252609   4.094   4.300  10.822  0.0942 -0.7587  2.0688
 9472TIP3   OH252610   3.681   4.991  11.274 -0.1827 -0.1420 -0.0221
 9472TIP3    H152611   3.726   4.972  11.356  0.8293  1.3204 -0.1936
 9472TIP3    H252612   3.588   4.984  11.296 -0.0510  2.4898  1.9392
 9473TIP3   OH252613   1.105   5.878  12.021  0.1615  0.8477 -0.3612
 9473TIP3    H152614   1.052   5.836  12.089  1.7852  0.5828  0.7902
 9473TIP3    H252615   1.103   5.971  12.043 -1.0024  1.0585 -1.2047
 9474TIP3   OH252616   0.678   6.411   9.497  0.6216  0.0276 -0.0643
 9474TIP3    H152617   0.699   6.321   9.520 -0.6362 -0.7675 -1.7697
 9474TIP3    H252618   0.637   6.405   9.410 -1.2117  2.0061  0.5508
 9475TIP3   OH252619   4.219   3.997  11.800 -0.1888 -0.3888  0.0323
 9475TIP3    H152620   4.150   3.975  11.863 -0.6003  0.7632  0.0109
 9475TIP3    H252621   4.294   3.944  11.827 -0.2589  0.2968  1.6949
 9476TIP3   OH252622   6.557   5.717  12.275  0.2038  0.2555 -0.5275
 9476TIP3    H152623   6.574   5.638  12.325  0.0489  0.2524 -0.4786
 9476TIP3    H252624   6.614   5.710  12.198  2.0589  1.2647  0.6789
 9477TIP3   OH252625   4.020   5.874   9.617  0.7850  0.6555 -0.0844
 9477TIP3    H152626   4.085   5.804   9.608  1.4855  1.4022 -1.0731
 9477TIP3    H252627   3.936   5.829   9.613  1.2285 -0.2152  0.0802
 9478TIP3   OH252628   5.151   6.402  10.803  0.3515 -0.3644 -0.1226
 9478TIP3    H152629   5.238   6.396  10.763  0.8691 -0.1470  0.9387
 9478TIP3    H252630   5.124   6.312  10.817  0.3764 -0.4340 -0.5219
 9479TIP3   OH252631   5.349   6.109  11.066  0.3105 -0.7795  0.6146
 9479TIP3    H152632   5.255   6.099  11.050 -0.2722 -1.4768  3.8568
 9479TIP3    H252633   5.389   6.035  11.020 -0.6675 -0.4516 -0.8362
 9480TIP3   OH252634   6.383   4.674  13.015  0.2612  0.3768 -0.3755
 9480TIP3    H152635   6.426   4.604  13.065  0.8257  0.7265 -0.3633
 9480TIP3    H252636   6.452   4.739  13.000 -0.2850  0.9924 -0.2747
 9481TIP3   OH252637   1.924   0.940  11.069 -0.1985  0.1165  0.4478
 9481TIP3    H152638   2.001   0.992  11.093  0.1123  0.0251 -0.3304
 9481TIP3    H252639   1.851   0.986  11.110  0.0890  1.0942 -0.0901
 9482TIP3   OH252640   2.722   6.069  10.212 -0.3041 -0.4557  0.4605
 9482TIP3    H152641   2.703   5.988  10.260 -1.5379  0.4245  1.5231
 9482TIP3    H252642   2.766   6.039  10.132 -0.7041 -2.1804  0.8336
 9483TIP3   OH252643   1.679   0.659  11.180  0.2297  0.6948 -0.1060
 9483TIP3    H152644   1.675   0.622  11.091  2.9403 -0.7756  0.2686
 9483TIP3    H252645   1.710   0.749  11.167 -1.7922  1.3475 -0.7421
 9484TIP3   OH252646   0.105   1.376  11.066 -0.3924 -0.1544 -0.3637
 9484TIP3    H152647   0.044   1.404  11.134  0.2509  0.6804 -0.1060
 9484TIP3    H252648   0.146   1.297  11.100  0.7252  0.8486  0.7473
 9485TIP3   OH252649   4.393   5.066  10.735  0.4013  0.3343  0.1453
 9485TIP3    H152650   4.364   5.114  10.657  0.5771  1.1873  0.5968
 9485TIP3    H252651   4.313   5.047  10.783  0.2227 -0.7442 -0.5283
 9486TIP3   OH252652   0.490   1.096  12.928  0.2493 -0.1551 -0.4756
 9486TIP3    H152653   0.506   1.104  13.022  0.5669 -0.7221 -0.4786
 9486TIP3    H252654   0.413   1.040  12.921  1.4532 -1.8623 -0.5930
 9487TIP3   OH252655   1.330   2.811  12.616 -0.2257 -0.2704  0.1732
 9487TIP3    H152656   1.313   2.729  12.662 -1.8719  1.0100  1.9561
 9487TIP3    H252657   1.341   2.784  12.524 -1.6402 -2.3936  0.5497
 9488TIP3   OH252658   0.656   6.279  12.720 -0.3089 -0.1822 -0.3878
 9488TIP3    H152659   0.744   6.248  12.700  0.0707  0.4030  0.3344
 9488TIP3    H252660   0.639   6.249  12.809 -0.4486  0.5434 -0.1611
 9489TIP3   OH252661   3.927   0.553  11.292 -0.6361 -0.2087  0.7044
 9489TIP3    H152662   3.837   0.523  11.277 -1.0843  1.3255  0.2047
 9489TIP3    H252663   3.921   0.612  11.366 -0.0611  0.0275  0.5663
 9490TIP3   OH252664   4.522   2.173  11.951  0.1446 -0.0066 -0.0839
 9490TIP3    H152665   4.606   2.132  11.969  0.3127  1.2672  2.5297
 9490TIP3    H252666   4.475   2.170  12.034 -0.9777  2.4382 -0.5250
 9491TIP3   OH252667   1.691   0.778  12.214  0.0882 -0.1430 -0.0581
 9491TIP3    H152668   1.671   0.690  12.183  1.0918 -0.3732 -0.0678
 9491TIP3    H252669   1.725   0.824  12.137 -1.2898  0.5529 -0.2870
 9492TIP3   OH252670   5.086   0.104   9.913  0.1650  0.0709 -0.0544
 9492TIP3    H152671   5.112   0.177   9.857 -1.1333  0.4312 -0.2197
 9492TIP3    H252672   5.082   0.141  10.001 -2.6171  0.8475 -0.4061
 9493TIP3   OH252673   0.807   3.739   9.775  0.9119 -0.1538 -0.1875
 9493TIP3    H152674   0.769   3.653   9.795 -0.2583  0.1721 -0.8921
 9493TIP3    H252675   0.900   3.729   9.795  1.5626 -2.7140 -3.5528
 9494TIP3   OH252676   0.465   0.193  12.237  0.1180 -0.5236 -0.7387
 9494TIP3    H152677   0.437   0.256  12.170 -0.2473 -0.3614 -0.4376
 9494TIP3    H252678   0.458   0.240  12.319 -0.1996 -0.9685 -0.5060
 9495TIP3   OH252679   3.744   3.213  10.539 -0.0566  0.1283  0.9091
 9495TIP3    H152680   3.740   3.300  10.578  1.1011  0.0120  1.3194
 9495TIP3    H252681   3.797   3.223  10.460  0.8997 -0.3606  1.4645
 9496TIP3   OH252682   3.383   6.397   9.823  0.6167 -0.2248  0.3908
 9496TIP3    H152683   3.467   6.392   9.869  0.3746 -0.0984  0.8531
 9496TIP3    H252684   3.406   6.418   9.733  1.1435 -1.1508  0.2913
 9497TIP3   OH252685   4.932   6.554  10.683 -0.6324 -0.3650 -0.2522
 9497TIP3    H152686   4.878   6.552  10.762 -2.8402 -2.4678 -1.7195
 9497TIP3    H252687   5.005   6.496  10.703  1.3057  2.4314  1.7093
 9498TIP3   OH252688   6.017   2.935  11.421 -0.1348  0.1885  0.2289
 9498TIP3    H152689   5.964   2.860  11.448 -0.5794  1.1780  2.3341
 9498TIP3    H252690   6.063   2.961  11.501 -0.1562  2.2681 -0.3803
 9499TIP3   OH252691   2.307   4.830   9.322  0.1731  0.5113  0.4345
 9499TIP3    H152692   2.215   4.802   9.324  0.7650 -2.3156 -2.6736
 9499TIP3    H252693   2.347   4.786   9.397 -0.8310  1.3190  1.4870
 9500TIP3   OH252694   1.333   0.187   9.460  0.0970  0.3875 -0.2223
 9500TIP3    H152695   1.323   0.110   9.404 -0.3768  0.7076 -0.5789
 9500TIP3    H252696   1.274   0.172   9.533  0.2655  0.2498 -0.1150
 9501TIP3   OH252697   5.719   4.530  11.190  0.2528  0.0759  0.0967
 9501TIP3    H152698   5.815   4.535  11.198  0.3773 -0.6725 -0.7885
 9501TIP3    H252699   5.692   4.620  11.172  0.8745  0.1640 -0.4440
 9502TIP3   OH252700   1.321   3.113  13.058  0.2293  0.1454  0.4422
 9502TIP3    H152701   1.246   3.067  13.096 -0.6450  0.9719 -0.2318
 9502TIP3    H252702   1.390   3.106  13.125 -0.2465 -1.1308  0.8241
 9503TIP3   OH252703   6.155   6.138  10.658  1.0348  0.3264 -0.2004
 9503TIP3    H152704   6.074   6.087  10.658  1.7259 -0.8270 -0.7084
 9503TIP3    H252705   6.141   6.205  10.592  1.1605 -1.0564 -1.7106
 9504TIP3   OH252706   3.028   6.058  11.719 -0.1928  0.3846 -0.0238
 9504TIP3    H152707   2.959   6.018  11.773 -0.2622 -0.7677 -0.9364
 9504TIP3    H252708   3.023   6.013  11.635 -0.7746  2.8593 -1.4109
 9505TIP3   OH252709   6.606   3.433  12.615  0.4176 -0.0469 -0.2045
 9505TIP3    H152710   6.663   3.461  12.687 -0.6041 -0.3641  0.7381
 9505TIP3    H252711   6.522   3.414  12.656  0.0259 -0.9547 -1.3739
 9506TIP3   OH252712   6.565   1.899  12.015  0.1249  0.3569 -0.0187
 9506TIP3    H152713   6.565   1.803  12.012 -1.1494  0.2945  1.0960
 9506TIP3    H252714   6.652   1.922  12.049  0.2508 -0.4235  0.2036
 9507TIP3   OH252715   6.413   3.824  11.166 -0.1878 -0.0545 -0.5163
 9507TIP3    H152716   6.495   3.860  11.201 -0.2655 -1.5797  1.4340
 9507TIP3    H252717   6.441   3.752  11.110 -0.1666 -0.1588 -0.3729
 9508TIP3   OH252718   0.134   5.779  11.656  0.1542  0.3558  0.8067
 9508TIP3    H152719   0.217   5.743  11.686 -0.7198 -1.5234  1.1266
 9508TIP3    H252720   0.103   5.716  11.591 -0.3352  1.8085 -0.4272
 9509TIP3   OH252721   0.721   2.850  10.032  0.0585 -0.5479 -0.4188
 9509TIP3    H152722   0.786   2.794  10.075  0.6233 -0.1479 -0.7341
 9509TIP3    H252723   0.666   2.882  10.103  1.5721  0.8960  0.1832
 9510TIP3   OH252724   4.908   6.208   9.934  0.0609 -0.3016  0.1110
 9510TIP3    H152725   4.919   6.157   9.854  0.3660 -0.1558  0.0576
 9510TIP3    H252726   4.974   6.278   9.927  1.7274 -1.6270  1.5522
 9511TIP3   OH252727   3.618   0.921   9.665 -0.5539  0.2985  0.2670
 9511TIP3    H152728   3.660   0.836   9.655 -0.6085  0.3428 -0.3251
 9511TIP3    H252729   3.689   0.984   9.658 -0.5583  0.3185  0.3976
 9512TIP3   OH252730   3.115   4.131  11.606 -0.7604 -0.0367  0.1047
 9512TIP3    H152731   3.124   4.200  11.672  0.2169  1.4049 -1.4447
 9512TIP3    H252732   3.126   4.049  11.655  1.3619  1.0139  1.5572
 9513TIP3   OH252733   0.305   3.977  11.549 -0.4436 -0.0343  0.0468
 9513TIP3    H152734   0.364   3.904  11.566 -0.9243 -1.5417 -3.6942
 9513TIP3    H252735   0.225   3.956  11.598  0.1524 -0.9604  0.6430
 9514TIP3   OH252736   1.078   5.726  11.375 -0.4469 -0.1608  0.2840
 9514TIP3    H152737   1.112   5.803  11.420 -1.0200 -0.1100  0.6286
 9514TIP3    H252738   0.984   5.740  11.369 -0.3924 -0.2012 -0.8702
 9515TIP3   OH252739   2.697   5.740   9.828 -0.1645  0.7757  0.0258
 9515TIP3    H152740   2.644   5.662   9.844 -0.3599  0.6248 -1.2188
 9515TIP3    H252741   2.634   5.812   9.824  0.0833  1.1507  1.9059
 9516TIP3   OH252742   0.985   0.495  13.657 -0.0059  0.2240 -0.0142
 9516TIP3    H152743   0.962   0.440  13.731  2.5255  0.6916  1.2381
 9516TIP3    H252744   0.940   0.578  13.674 -0.8432 -0.2204  0.0247
 9517TIP3   OH252745   0.439   1.670  13.187 -0.4909 -0.8350  0.5951
 9517TIP3    H152746   0.418   1.735  13.254  1.8599  1.8331 -1.0357
 9517TIP3    H252747   0.532   1.649  13.202  0.0964 -0.1419 -1.7631
 9518TIP3   OH252748   1.901   5.695  12.093  0.2725 -0.1169 -0.1637
 9518TIP3    H152749   1.940   5.614  12.062 -0.1182 -1.0139  1.5583
 9518TIP3    H252750   1.919   5.696  12.187 -0.8213  1.1630  0.0675
 9519TIP3   OH252751   5.147   3.628  12.115 -0.0534  0.3849 -0.4192
 9519TIP3    H152752   5.201   3.549  12.119 -1.2911 -0.5431 -1.2133
 9519TIP3    H252753   5.204   3.697  12.149  0.7896 -0.9803  1.1099
 9520TIP3   OH252754   4.360   3.269  10.127  0.1033  1.0117  0.2783
 9520TIP3    H152755   4.305   3.277  10.205  0.2535 -0.3963  0.5571
 9520TIP3    H252756   4.302   3.233  10.060  0.0504  1.9338 -0.1792
 9521TIP3   OH252757   1.434   2.347  11.092 -0.0473 -0.3958  0.4281
 9521TIP3    H152758   1.376   2.401  11.145 -0.1146 -0.1225  0.0780
 9521TIP3    H252759   1.395   2.260  11.094 -0.1632 -0.3374  0.6540
 9522TIP3   OH252760   1.235   2.188  11.967 -0.4632  0.2543 -0.3302
 9522TIP3    H152761   1.321   2.154  11.942 -0.9795 -2.4637  1.1833
 9522TIP3    H252762   1.251   2.240  12.045 -0.2254 -0.9373  0.4464
 9523TIP3   OH252763   2.050   4.329  12.007 -0.6441 -0.2874  0.5453
 9523TIP3    H152764   2.139   4.324  11.974  0.4343 -0.8486  3.3081
 9523TIP3    H252765   2.013   4.242  11.989 -0.1797 -0.4924  0.5655
 9524TIP3   OH252766   1.218   3.329  10.115  0.5367 -0.0243  0.0164
 9524TIP3    H152767   1.134   3.338  10.160 -0.7495  0.0767 -2.2916
 9524TIP3    H252768   1.251   3.418  10.108 -0.1887  0.1933 -0.8684
 9525TIP3   OH252769   3.036   1.359  10.594  0.3283  0.2503  0.2982
 9525TIP3    H152770   2.982   1.310  10.532  1.1815 -1.0592  0.5291
 9525TIP3    H252771   2.983   1.434  10.619 -0.5239  0.1315 -1.0659
 9526TIP3   OH252772   5.511   0.806  10.118  0.1801  0.6553  0.5433
 9526TIP3    H152773   5.477   0.717  10.131 -0.3916  1.0779  2.0758
 9526TIP3    H252774   5.515   0.816  10.023  0.9862 -1.2789  0.3382
 9527TIP3   OH252775   4.837   2.851  12.470  0.1272  0.0315 -0.8531
 9527TIP3    H152776   4.912   2.793  12.464  1.0899  1.1254  0.0874
 9527TIP3    H252777   4.833   2.895  12.385 -0.1505 -0.8268 -1.2969
 9528TIP3   OH252778   2.919   6.458   9.686  0.7928  0.2155 -0.1539
 9528TIP3    H152779   2.996   6.403   9.671 -0.4281 -2.0023  1.1885
 9528TIP3    H252780   2.847   6.408   9.648 -0.4939  0.4293  1.8601
 9529TIP3   OH252781   4.075   1.096   9.793 -0.4959  0.0306 -0.3252
 9529TIP3    H152782   4.148   1.051   9.752 -2.6206 -1.7375 -2.4506
 9529TIP3    H252783   4.060   1.049   9.875 -0.6947 -1.1748 -1.0255
 9530TIP3   OH252784   3.300   4.492   9.917  0.0777  0.1394  0.6133
 9530TIP3    H152785   3.284   4.438   9.840  0.6443  0.1231  0.5075
 9530TIP3    H252786   3.230   4.468   9.978 -0.6783  0.5258 -0.0859
 9531TIP3   OH252787   2.546   1.496   9.905  0.5324  0.5772  0.0261
 9531TIP3    H152788   2.508   1.463   9.824  0.1330  0.9133  0.0721
 9531TIP3    H252789   2.510   1.584   9.914  1.7742  1.1298 -0.2219
 9532TIP3   OH252790   3.368   0.397   9.651 -0.1921  0.0405  0.4951
 9532TIP3    H152791   3.287   0.411   9.603 -0.1406 -0.5820  0.2183
 9532TIP3    H252792   3.423   0.346   9.592 -0.3679 -1.2956  1.4241
 9533TIP3   OH252793   5.864   3.297  10.260 -0.1982  0.1764 -0.0739
 9533TIP3    H152794   5.894   3.240  10.188 -2.0841  0.4359 -1.1254
 9533TIP3    H252795   5.775   3.267  10.278  0.0421  0.4952  1.8201
 9534TIP3   OH252796   2.467   0.028  10.293 -0.6190 -0.2837 -0.0843
 9534TIP3    H152797   2.461   0.117  10.258  0.0589  0.0816  0.7186
 9534TIP3    H252798   2.560   0.016  10.313 -0.6540 -1.2858 -0.4601
 9535TIP3   OH252799   3.885   1.764  11.779  0.1662  0.2341 -0.4028
 9535TIP3    H152800   3.951   1.770  11.847  0.9005  3.0959 -1.2268
 9535TIP3    H252801   3.932   1.783  11.698 -1.2999  0.3450 -1.2680
 9536TIP3   OH252802   4.036   2.906   9.671  0.4439 -0.6256 -0.5692
 9536TIP3    H152803   4.030   2.902   9.766 -2.1929  1.3698 -0.5580
 9536TIP3    H252804   3.948   2.884   9.640  1.0622 -0.5375 -2.5385
 9537TIP3   OH252805   5.582   4.427   9.863  0.4067 -0.2434  0.5352
 9537TIP3    H152806   5.603   4.347   9.911 -2.8935 -1.0411  0.8740
 9537TIP3    H252807   5.500   4.458   9.902  1.1489  2.9099 -0.1284
 9538TIP3   OH252808   2.316   3.070   9.963 -0.5521  0.7415  0.0689
 9538TIP3    H152809   2.366   3.096   9.885 -0.4951 -0.8907 -0.4594
 9538TIP3    H252810   2.379   3.024  10.018 -1.0993 -0.0044  0.0880
 9539TIP3   OH252811   4.077   3.524  10.136  0.0059 -0.1887  0.3614
 9539TIP3    H152812   4.100   3.515  10.043 -1.8004 -0.7905 -0.0788
 9539TIP3    H252813   4.074   3.434  10.169 -0.7034 -0.0796  0.6226
 9540TIP3   OH252814   2.288   2.095  12.022 -0.2891  0.2517 -0.1083
 9540TIP3    H152815   2.342   2.074  11.945 -0.0074 -0.0738  0.1785
 9540TIP3    H252816   2.296   2.189  12.032 -0.9476  0.4146 -0.9445
 9541TIP3   OH252817   6.450   1.163  12.989 -0.0680  0.5670 -0.1265
 9541TIP3    H152818   6.470   1.175  13.082  1.3923  0.4408 -0.4048
 9541TIP3    H252819   6.383   1.230  12.971  0.9004  1.7858  0.6084
 9542TIP3   OH252820   3.201   1.532  13.064  0.5255 -0.0570  0.1667
 9542TIP3    H152821   3.142   1.599  13.029  0.6971 -0.8853 -1.8414
 9542TIP3    H252822   3.167   1.514  13.152 -2.2124 -0.4170 -0.8400
 9543TIP3   OH252823   1.840   1.329  12.001  0.3200 -0.1982 -0.2676
 9543TIP3    H152824   1.881   1.415  11.993  2.0121 -0.9739 -0.4674
 9543TIP3    H252825   1.871   1.281  11.924 -0.8180 -0.9192 -0.3045
 9544TIP3   OH252826   5.542   1.560   9.940 -0.4828  0.0224 -0.6070
 9544TIP3    H152827   5.546   1.557   9.844  0.0709 -0.2513 -0.5769
 9544TIP3    H252828   5.632   1.576   9.968 -0.5126 -0.6192 -0.1126
 9545TIP3   OH252829   5.785   0.764   9.776 -0.4045  0.4963 -0.0105
 9545TIP3    H152830   5.808   0.727   9.862 -1.9979 -0.7597 -0.0927
 9545TIP3    H252831   5.773   0.858   9.793 -0.0949  0.3662  1.0048
 9546TIP3   OH252832   2.194   4.146  10.260  0.7014  0.1020 -0.3234
 9546TIP3    H152833   2.254   4.083  10.219 -0.0483  0.4068 -1.9581
 9546TIP3    H252834   2.147   4.094  10.325 -0.0184 -1.1277 -1.7564
 9547TIP3   OH252835   5.258   2.204   9.382 -0.0440 -0.2278 -0.6969
 9547TIP3    H152836   5.269   2.251   9.465 -2.4256  0.0073 -0.4306
 9547TIP3    H252837   5.301   2.260   9.318 -0.1196  0.7612  0.0756
 9548TIP3   OH252838   4.278   4.287   9.401 -0.1290 -0.3504  0.3998
 9548TIP3    H152839   4.196   4.335   9.392 -1.0136 -1.6708  1.0731
 9548TIP3    H252840   4.251   4.196   9.417  1.4712 -0.9104  0.0908
 9549TIP3   OH252841   4.706   5.921  11.088 -0.1240  0.5879  0.0318
 9549TIP3    H152842   4.727   6.011  11.111  2.6432 -0.1236  0.6045
 9549TIP3    H252843   4.786   5.886  11.050 -0.9819 -1.7788  0.2241
 9550TIP3   OH252844   6.504   2.545  12.721 -0.3663  0.4947  0.7282
 9550TIP3    H152845   6.429   2.560  12.665 -0.2632 -1.0695  0.1219
 9550TIP3    H252846   6.469   2.499  12.798 -0.4975  2.5604  1.9848
 9551TIP3   OH252847   4.555   6.560  11.313  0.1920 -0.7829  0.3168
 9551TIP3    H152848   4.569   6.539  11.405  2.0220  4.1649  1.4446
 9551TIP3    H252849   4.641   6.551  11.273  0.0877  0.1565 -0.1294
 9552TIP3   OH252850   1.064   0.631  11.146  0.2425  0.1709  0.2228
 9552TIP3    H152851   1.104   0.681  11.075  0.5982 -1.3815 -0.7016
 9552TIP3    H252852   0.998   0.576  11.103  0.4690 -0.7937  1.0837
 9553TIP3   OH252853   1.976   4.011  11.691 -0.1750 -0.4065 -0.2706
 9553TIP3    H152854   2.049   4.009  11.629  1.1971  0.8751  1.2375
 9553TIP3    H252855   2.017   4.006  11.777 -1.5803  2.9838  0.7467
 9554TIP3   OH252856   3.253   6.363  12.162  0.5093  0.2070  0.1829
 9554TIP3    H152857   3.218   6.395  12.079 -0.9252  1.9439  1.3853
 9554TIP3    H252858   3.347   6.381  12.156  0.2548  1.4019 -0.6362
 9555TIP3   OH252859   1.763   6.134  12.292  0.0381 -0.2692  0.4766
 9555TIP3    H152860   1.826   6.195  12.253  1.2434 -1.5109  0.3837
 9555TIP3    H252861   1.759   6.061  12.230 -1.3425 -0.3244  0.6005
 9556TIP3   OH252862   1.201   0.603  11.679 -0.0661  0.2231 -0.3110
 9556TIP3    H152863   1.196   0.616  11.584 -0.7081  0.7076 -0.2170
 9556TIP3    H252864   1.233   0.514  11.689 -0.7422 -0.1111 -0.9852
 9557TIP3   OH252865   3.721   3.494   9.616  0.0354 -0.0141  0.0211
 9557TIP3    H152866   3.774   3.460   9.545 -0.0018 -0.3111  0.1349
 9557TIP3    H252867   3.729   3.589   9.609 -0.6820 -0.0161 -0.9126
 9558TIP3   OH252868   5.880   4.671  12.816  0.2335 -0.5021  0.2922
 9558TIP3    H152869   5.798   4.634  12.847 -1.2241  2.0508 -0.2620
 9558TIP3    H252870   5.943   4.654  12.886 -1.3470 -0.4734  1.7622
 9559TIP3   OH252871   3.948   4.175  10.795  0.4658 -0.0961  0.2835
 9559TIP3    H152872   3.879   4.146  10.736 -0.7954 -1.6169  2.3426
 9559TIP3    H252873   4.001   4.096  10.809  1.6306  0.6286  0.0445
 9560TIP3   OH252874   5.698   4.796  11.456  0.0667  0.0904  0.6941
 9560TIP3    H152875   5.770   4.736  11.475  0.4991 -0.0895 -1.2841
 9560TIP3    H252876   5.693   4.798  11.361 -0.0492  3.0535  0.6655
 9561TIP3   OH252877   3.217   4.704  10.169  0.3370  0.0225  0.5353
 9561TIP3    H152878   3.195   4.698  10.077 -0.6590  1.1530  0.6758
 9561TIP3    H252879   3.308   4.674  10.174  1.0115  1.5692 -1.0825
 9562TIP3   OH252880   2.522   6.458  11.887  0.1321  0.0844  0.6189
 9562TIP3    H152881   2.551   6.493  11.803 -0.0517 -2.1496 -0.4517
 9562TIP3    H252882   2.601   6.422  11.927  0.2731  1.3883  1.5886
 9563TIP3   OH252883   6.023   5.559  11.145 -0.2978 -0.1358  0.1343
 9563TIP3    H152884   6.004   5.470  11.174 -0.2114 -0.1034  0.2950
 9563TIP3    H252885   6.098   5.586  11.198  0.9078 -0.6533 -1.2328
 9564TIP3   OH252886   0.763   4.635   9.637  0.5203  0.6158  0.3573
 9564TIP3    H152887   0.671   4.624   9.613  0.2856  0.9224  1.0887
 9564TIP3    H252888   0.766   4.720   9.680  1.2452  0.8376 -0.1088
 9565TIP3   OH252889   3.400   3.129  11.260  0.1563 -0.3310 -0.0126
 9565TIP3    H152890   3.367   3.213  11.227  1.1444 -0.2502 -0.8645
 9565TIP3    H252891   3.487   3.151  11.296 -0.5013 -0.5949  1.8366
 9566TIP3   OH252892   0.704   0.286  12.103  0.5751  0.1408  0.4027
 9566TIP3    H152893   0.646   0.210  12.110 -1.2790  1.2954 -1.3667
 9566TIP3    H252894   0.689   0.335  12.184  0.3488 -0.4335  0.7129
 9567TIP3   OH252895   3.834   0.293   9.881  0.4774 -0.1640 -0.0624
 9567TIP3    H152896   3.761   0.346   9.850 -1.5805 -2.4226  0.6239
 9567TIP3    H252897   3.896   0.292   9.808 -0.8779  0.5574 -1.2774
 9568TIP3   OH252898   4.491   0.698  11.903 -0.1353  0.1556  0.6114
 9568TIP3    H152899   4.503   0.658  11.817  2.1789  1.7590  0.0646
 9568TIP3    H252900   4.403   0.735  11.901 -0.4255 -0.5687 -0.7462
 9569TIP3   OH252901   3.751   2.185  12.211 -0.0668 -0.1789 -0.1664
 9569TIP3    H152902   3.655   2.189  12.217 -0.1575  0.3861 -1.5493
 9569TIP3    H252903   3.771   2.223  12.125  1.5463  1.8037  0.9925
 9570TIP3   OH252904   3.054   3.290  11.312  0.3088  0.6901  0.1129
 9570TIP3    H152905   3.103   3.208  11.301 -0.5392  0.2462 -0.5260
 9570TIP3    H252906   3.022   3.286  11.402 -1.2558 -0.5917 -0.4437
 9571TIP3   OH252907   1.955   4.537  11.233  0.3215 -0.2984  0.0889
 9571TIP3    H152908   1.952   4.536  11.137 -0.7105 -0.7924  0.1175
 9571TIP3    H252909   1.958   4.630  11.256  0.4730 -0.1757 -0.4127
 9572TIP3   OH252910   1.336   6.359  12.453 -0.5840  0.2454  0.4903
 9572TIP3    H152911   1.324   6.360  12.358 -0.6241  0.4925  0.4984
 9572TIP3    H252912   1.295   6.277  12.482 -1.3392  0.5860  0.3986
 9573TIP3   OH252913   2.283   5.560  11.736  0.0113  0.0421 -0.1289
 9573TIP3    H152914   2.309   5.468  11.742  0.3032  0.1529  0.4421
 9573TIP3    H252915   2.263   5.584  11.827 -2.3381 -0.0973 -0.5372
 9574TIP3   OH252916   5.250   4.743   9.630  0.0671  0.4342 -0.1664
 9574TIP3    H152917   5.325   4.784   9.586  0.1418  0.0964 -0.3508
 9574TIP3    H252918   5.255   4.651   9.606 -0.1319  0.3235  0.2147
 9575TIP3   OH252919   4.033   2.406  11.294 -0.3793  0.4603 -0.6257
 9575TIP3    H152920   4.120   2.435  11.268 -0.8148 -0.2413 -3.2395
 9575TIP3    H252921   3.997   2.479  11.346  1.6670  0.8005  0.3965
 9576TIP3   OH252922   3.118   3.111  11.801  0.2392  0.4004  0.4303
 9576TIP3    H152923   3.083   3.035  11.755 -1.1466  1.3717 -0.2137
 9576TIP3    H252924   3.212   3.093  11.811 -0.2107 -1.8303  1.2393
 9577TIP3   OH252925   3.976   4.893  10.677 -0.3730  0.2237  0.2072
 9577TIP3    H152926   3.989   4.984  10.648 -0.3143  0.0286 -0.3870
 9577TIP3    H252927   3.882   4.879  10.668 -0.3630  0.1796  0.1760
 9578TIP3   OH252928   2.535   4.476  11.542 -0.2887  0.4423 -0.1679
 9578TIP3    H152929   2.538   4.538  11.615 -0.3629 -0.1537  0.3476
 9578TIP3    H252930   2.459   4.503  11.490  0.9522  2.1560 -1.1995
 9579TIP3   OH252931   5.590   5.349  12.188  0.5205 -0.2318  0.1936
 9579TIP3    H152932   5.682   5.342  12.215  0.5330  0.5001  0.3657
 9579TIP3    H252933   5.592   5.408  12.112  0.2554 -0.6704 -0.1598
 9580TIP3   OH252934   0.152   0.745  10.157 -0.0705  0.2758 -0.1959
 9580TIP3    H152935   0.130   0.653  10.172 -0.4706  0.4714  0.4549
 9580TIP3    H252936   0.170   0.780  10.244 -1.6712  1.2575 -0.2201
 9581TIP3   OH252937   0.121   0.960  10.391 -0.6702  0.3084 -0.6039
 9581TIP3    H152938   0.037   1.006  10.391 -0.8358  0.0069 -0.3926
 9581TIP3    H252939   0.186   1.030  10.392 -0.9186  0.5384 -0.1771
 9582TIP3   OH252940   6.336   5.083  12.178  0.0933 -0.1073 -0.0051
 9582TIP3    H152941   6.246   5.053  12.189  0.8408 -3.2387 -1.2019
 9582TIP3    H252942   6.373   5.081  12.266 -0.4476 -0.9941  0.2149
 9583TIP3   OH252943   3.288   1.361  12.587 -0.1151 -0.5261 -0.1284
 9583TIP3    H152944   3.352   1.300  12.549 -1.2285 -0.9287 -1.4103
 9583TIP3    H252945   3.205   1.314  12.585 -0.6655  0.3867  0.5248
 9584TIP3   OH252946   0.902   5.462   9.823  0.1302  0.3650  0.6710
 9584TIP3    H152947   0.927   5.554   9.837  0.9181 -0.0663  2.3391
 9584TIP3    H252948   0.955   5.413   9.886  0.9297 -1.4297 -1.2894
 9585TIP3   OH252949   2.484   5.889  10.780 -0.1842 -0.0168  0.2293
 9585TIP3    H152950   2.424   5.909  10.851  0.2530 -2.3854  1.3744
 9585TIP3    H252951   2.449   5.809  10.741  1.8832 -1.1710  0.5906
 9586TIP3   OH252952   1.571   3.281  10.136 -0.0418  0.5100  0.0682
 9586TIP3    H152953   1.525   3.219  10.193 -1.1808  0.1258 -1.2419
 9586TIP3    H252954   1.647   3.232  10.104  0.0589  0.4009  0.4676
 9587TIP3   OH252955   4.066   0.208  10.223 -0.6466 -0.4344  0.2147
 9587TIP3    H152956   4.020   0.275  10.172 -2.4425 -0.5811  1.5512
 9587TIP3    H252957   4.098   0.255  10.300  1.1316 -0.4346 -0.4852
 9588TIP3   OH252958   4.185   2.496  10.029  0.1473  0.0777  0.1696
 9588TIP3    H152959   4.116   2.548  10.069 -0.0200 -0.4168  0.5440
 9588TIP3    H252960   4.143   2.411  10.011 -0.0240  0.5282 -1.8136
 9589TIP3   OH252961   0.539   2.682  11.026  0.3173 -0.0178 -0.0888
 9589TIP3    H152962   0.474   2.646  10.965 -2.1450  1.4480  1.5370
 9589TIP3    H252963   0.596   2.736  10.970  0.5045 -1.6655 -1.6116
 9590TIP3   OH252964   5.339   3.207  11.200  0.4876  0.3244 -0.4281
 9590TIP3    H152965   5.435   3.199  11.204  0.6051  1.6039 -0.2164
 9590TIP3    H252966   5.307   3.130  11.246  1.3928 -0.6460 -1.3635
 9591TIP3   OH252967   0.128   2.077  11.442  0.1506  0.3401  0.4924
 9591TIP3    H152968   0.150   1.985  11.457  2.1242  0.3863 -1.5023
 9591TIP3    H252969   0.199   2.126  11.483 -0.2090  0.9034  0.4576
 9592TIP3   OH252970   1.349   2.693  11.580 -0.0865  0.1160 -0.1817
 9592TIP3    H152971   1.337   2.769  11.523  0.8598  0.4740  0.0686
 9592TIP3    H252972   1.444   2.679  11.580 -0.3303 -1.9703 -1.3843
 9593TIP3   OH252973   2.628   3.083  10.159 -0.4712  0.2374  0.0134
 9593TIP3    H152974   2.562   3.153  10.170 -1.0180 -0.3889  0.7786
 9593TIP3    H252975   2.712   3.129  10.162 -0.8417  0.9457 -0.1198
 9594TIP3   OH252976   3.207   0.015  11.408 -0.0426  0.2574  0.1714
 9594TIP3    H152977   3.139   0.077  11.436 -0.1088  0.0113  0.5549
 9594TIP3    H252978   3.220   0.035  11.315  0.1783  1.0708  0.3749
 9595TIP3   OH252979   3.149   0.427   9.490  0.0727 -0.0156  0.0971
 9595TIP3    H152980   3.149   0.481   9.411 -2.6677 -0.4220 -0.2776
 9595TIP3    H252981   3.079   0.463   9.545  0.3135 -1.2136  1.2700
 9596TIP3   OH252982   3.261   0.390  12.269 -0.0487 -0.2213  0.3932
 9596TIP3    H152983   3.302   0.398  12.182  0.8326  3.4091  0.9776
 9596TIP3    H252984   3.333   0.365  12.327  0.4774  1.7364  0.6841
 9597TIP3   OH252985   6.104   4.899  12.948  0.4789 -0.2747  0.2361
 9597TIP3    H152986   6.019   4.914  12.989 -0.8666 -2.0004 -1.7176
 9597TIP3    H252987   6.107   4.805  12.931  1.5206  0.1335 -2.3000
 9598TIP3   OH252988   5.570   6.447  10.914 -0.0798 -0.1995  0.1305
 9598TIP3    H152989   5.601   6.538  10.908 -0.7870 -0.0168 -1.0708
 9598TIP3    H252990   5.521   6.444  10.997  0.2104  0.4303  0.3342
 9599TIP3   OH252991   0.725   2.446   9.562 -0.4816 -0.1103 -0.2252
 9599TIP3    H152992   0.704   2.361   9.599  0.4795  0.1143  0.9109
 9599TIP3    H252993   0.788   2.428   9.493 -0.4845 -0.3415 -0.1660
 9600TIP3   OH252994   3.815   1.252  11.180 -0.7888 -0.2000 -0.0484
 9600TIP3    H152995   3.910   1.259  11.186 -0.7475 -0.2905 -0.5348
 9600TIP3    H252996   3.787   1.334  11.140 -1.0842  0.5416  1.5960
 9601TIP3   OH252997   2.256   2.094  11.358  0.2259 -0.2346 -0.7868
 9601TIP3    H152998   2.189   2.051  11.412  2.0662 -1.5264  0.6167
 9601TIP3    H252999   2.283   2.027  11.295  0.7286  0.0015 -0.8274
 9602TIP3   OH253000   0.938   3.831   9.449  0.3469  0.0279 -0.2504
 9602TIP3    H153001   0.980   3.808   9.532  1.0331 -0.8629 -0.8227
 9602TIP3    H253002   0.916   3.924   9.458  2.5897  0.6016  0.0526
 9603TIP3   OH253003   1.889   1.746  10.013 -0.4856 -0.3302  0.5019
 9603TIP3    H153004   1.973   1.723   9.972  0.0174  0.9545  0.7722
 9603TIP3    H253005   1.890   1.841  10.019 -2.2058 -0.2316  0.0206
 9604TIP3   OH253006   6.145   1.005  10.659 -0.1033  0.0446  0.2221
 9604TIP3    H153007   6.184   1.086  10.625  0.2273 -0.0321  0.4111
 9604TIP3    H253008   6.174   1.001  10.750 -1.2402  0.4068  0.6120
 9605TIP3   OH253009   0.839   3.599  12.159 -0.0908  0.3176  0.2123
 9605TIP3    H153010   0.764   3.624  12.214  0.6691 -0.2574  1.5682
 9605TIP3    H253011   0.847   3.670  12.095 -0.2482  1.6873  1.6537
 9606TIP3   OH253012   3.692   5.748   9.519 -0.4102 -0.0559  0.1208
 9606TIP3    H153013   3.634   5.743   9.595  1.0138  0.7538  1.2898
 9606TIP3    H253014   3.677   5.836   9.483  1.2209  0.7847  1.3936
 9607TIP3   OH253015   0.464   0.164  11.699  0.3534  0.0076  0.0442
 9607TIP3    H153016   0.409   0.165  11.621 -0.8906  0.6921  0.9068
 9607TIP3    H253017   0.410   0.202  11.768  2.1573  1.4297  0.7613
 9608TIP3   OH253018   0.817   5.850  12.057 -0.1637  0.0691 -0.1430
 9608TIP3    H153019   0.758   5.904  12.004 -1.6281  0.3163  1.6171
 9608TIP3    H253020   0.893   5.835  12.002 -1.7228  0.0367 -2.4131
 9609TIP3   OH253021   2.383   6.072  12.413  0.1264  0.3296  0.0330
 9609TIP3    H153022   2.404   6.032  12.497 -0.4549  1.3163  0.6527
 9609TIP3    H253023   2.413   6.007  12.348 -1.2673 -1.3838  1.0035
 9610TIP3   OH253024   5.470   5.483  10.869 -0.0575  0.0815 -0.5708
 9610TIP3    H153025   5.469   5.400  10.821 -0.0801  0.5330 -1.3604
 9610TIP3    H253026   5.512   5.545  10.809 -1.3954  1.0082 -0.5960
 9611TIP3   OH253027   3.605   5.188  10.529  0.0937 -0.3277 -0.6506
 9611TIP3    H153028   3.548   5.162  10.601 -1.9104 -1.3537 -2.4822
 9611TIP3    H253029   3.690   5.203  10.570 -0.3058 -3.2446  1.5836
 9612TIP3   OH253030   3.538   1.857  12.488  0.2480 -0.4353  0.3839
 9612TIP3    H153031   3.604   1.871  12.420 -0.7228  0.0382 -0.4897
 9612TIP3    H253032   3.515   1.945  12.517 -1.2204 -0.4810 -0.5451
 9613TIP3   OH253033   5.698   0.905  11.263  0.2863 -0.0397 -0.6812
 9613TIP3    H153034   5.609   0.892  11.296  1.2999 -0.6631  2.0794
 9613TIP3    H253035   5.702   0.853  11.183 -1.0362 -2.4551  0.7047
 9614TIP3   OH253036   3.997   5.942  11.510  0.3206  0.0982 -0.2787
 9614TIP3    H153037   4.044   5.988  11.441  1.0802  2.0139  1.4052
 9614TIP3    H253038   3.911   5.984  11.513  0.6542  0.7451  0.5954
 9615TIP3   OH253039   3.191   2.501   9.461  0.1869 -0.7758  0.3042
 9615TIP3    H153040   3.167   2.539   9.545 -0.4842  0.2624 -0.3282
 9615TIP3    H253041   3.112   2.457   9.430  0.1867 -0.4790 -0.1334
 9616TIP3   OH253042   6.037   0.933  11.627 -0.0436  0.3965 -0.3960
 9616TIP3    H153043   6.010   0.879  11.552 -0.8272 -1.5638  1.1897
 9616TIP3    H253044   6.109   0.885  11.666 -0.0845  1.0438  0.4938
 9617TIP3   OH253045   4.304   1.866   9.346  0.4326  0.3017 -0.3749
 9617TIP3    H153046   4.398   1.882   9.354  0.8201 -0.7820 -2.0618
 9617TIP3    H253047   4.276   1.924   9.276  0.1628 -0.3779 -0.8472
 9618TIP3   OH253048   5.653   6.381   9.634  0.1427  0.1474  0.3870
 9618TIP3    H153049   5.688   6.470   9.631  1.8874 -0.3767  2.3354
 9618TIP3    H253050   5.730   6.325   9.622 -0.6535 -1.0887  0.7963
 9619TIP3   OH253051   4.779   1.358   9.740  0.3491  0.0310  0.6970
 9619TIP3    H153052   4.851   1.336   9.682 -0.7895 -0.5440 -0.5487
 9619TIP3    H253053   4.743   1.439   9.705  0.8808  0.7740  1.8089
 9620TIP3   OH253054   2.018   1.016  12.117  0.5987 -0.8587  0.5174
 9620TIP3    H153055   1.930   1.036  12.086  0.6720 -1.0874  0.1469
 9620TIP3    H253056   2.038   1.084  12.181  0.3530 -0.5072  0.2199
 9621TIP3   OH253057   4.473   4.318  10.288 -0.0597 -0.6198 -0.1063
 9621TIP3    H153058   4.398   4.299  10.231 -1.2476  2.0248  0.4251
 9621TIP3    H253059   4.452   4.276  10.371 -0.4356 -0.8126 -0.2988
 9622TIP3   OH253060   2.087   3.220  10.794 -0.6930  0.1189  0.1224
 9622TIP3    H153061   2.116   3.173  10.872  0.9507  0.5258 -0.2083
 9622TIP3    H253062   2.099   3.312  10.816 -1.8190  0.3185 -0.0298
 9623TIP3   OH253063   1.215   3.836  11.803 -0.4857  0.3410  0.3818
 9623TIP3    H153064   1.158   3.885  11.744  1.3103  2.2111  0.0790
 9623TIP3    H253065   1.296   3.822  11.754  0.3840  0.3194  1.7538
 9624TIP3   OH253066   4.589   0.115   9.673  0.4134  0.8074 -0.1890
 9624TIP3    H153067   4.647   0.048   9.709  1.9174  2.5486  0.8380
 9624TIP3    H253068   4.646   0.191   9.659 -1.1943  1.8668 -1.3693
 9625TIP3   OH253069   6.248   0.699  11.386 -0.2227  0.9072 -0.0312
 9625TIP3    H153070   6.284   0.770  11.438 -1.1350  0.7690  0.8338
 9625TIP3    H253071   6.154   0.702  11.404 -0.1711 -1.2072  0.9437
 9626TIP3   OH253072   2.098   3.628   9.841 -0.9031 -0.1197 -0.3454
 9626TIP3    H153073   2.081   3.566   9.912  1.5450 -0.4854  0.0066
 9626TIP3    H253074   2.095   3.575   9.761  0.0087 -0.4827 -0.1499
 9627TIP3   OH253075   2.289   2.466   9.246 -0.1253 -0.5605 -0.2451
 9627TIP3    H153076   2.331   2.381   9.251  1.3167  0.1505  0.1123
 9627TIP3    H253077   2.358   2.527   9.220 -1.7112  0.0795 -3.5868
 9628TIP3   OH253078   6.470   4.753  10.140  0.2242 -0.3830 -0.6426
 9628TIP3    H153079   6.467   4.664  10.175 -0.7341 -0.7301 -1.5661
 9628TIP3    H253080   6.384   4.766  10.100  1.2222  0.0239 -2.7977
 9629TIP3   OH253081   0.760   6.012   9.773  0.3692 -0.2563  0.1486
 9629TIP3    H153082   0.769   6.071   9.847  0.6924 -0.4928  0.3019
 9629TIP3    H253083   0.697   5.945   9.803  0.8364 -0.5990  0.3724
 9630TIP3   OH253084   1.956   4.878  13.365 -0.0181 -0.5169 -0.2399
 9630TIP3    H153085   1.889   4.810  13.361 -0.9635  0.2847  1.0841
 9630TIP3    H253086   1.999   4.864  13.450  2.0334 -1.4656 -1.3711
 9631TIP3   OH253087   4.327   4.801   9.874 -0.5091  0.0987 -0.2937
 9631TIP3    H153088   4.342   4.772   9.784 -0.2513  0.5197 -0.3893
 9631TIP3    H253089   4.349   4.894   9.873 -1.3432  0.3055  0.0035
 9632TIP3   OH253090   3.026   4.557  10.940 -0.3180  0.0593 -0.1603
 9632TIP3    H153091   3.010   4.642  10.980 -0.2460 -0.5831  1.2833
 9632TIP3    H253092   3.025   4.495  11.013  3.0183 -0.7577 -0.6211
 9633TIP3   OH253093   0.912   6.164  11.829  0.0726 -0.1234  0.3105
 9633TIP3    H153094   0.908   6.121  11.743 -1.5069 -1.8645  1.1834
 9633TIP3    H253095   0.835   6.220  11.831 -0.9121 -1.4459  1.2154
 9634TIP3   OH253096   0.456   4.887  10.063  0.3004  0.2903 -0.4652
 9634TIP3    H153097   0.444   4.811  10.008 -0.6173 -0.8381  1.1896
 9634TIP3    H253098   0.371   4.931  10.063  0.4710  0.6275 -0.4511
 9635TIP3   OH253099   2.975   3.650  11.337 -0.4292  0.3639 -0.2679
 9635TIP3    H153100   2.896   3.598  11.350 -0.4743  0.6358  0.6249
 9635TIP3    H253101   3.046   3.594  11.367 -0.3607  0.3956 -0.3712
 9636TIP3   OH253102   1.954   5.750  11.079  0.2608  0.5785  0.0480
 9636TIP3    H153103   1.902   5.697  11.139  0.7924 -0.4995 -0.4218
 9636TIP3    H253104   1.910   5.741  10.994 -0.1320  1.5941  0.1317
 9637TIP3   OH253105   3.427   2.069  12.920 -0.0170 -0.2919 -0.9208
 9637TIP3    H153106   3.418   2.132  12.991 -0.6872 -1.5419  0.1334
 9637TIP3    H253107   3.455   2.122  12.845  0.8557  1.0343  0.2790
 9638TIP3   OH253108   6.228   4.501  11.082  0.5641  0.2569  0.0582
 9638TIP3    H153109   6.254   4.498  11.174  2.2836 -0.6444 -0.4073
 9638TIP3    H253110   6.225   4.595  11.061 -1.6153  0.5649  1.4411
 9639TIP3   OH253111   2.150   1.682  11.278  0.5616  0.6436 -0.2292
 9639TIP3    H153112   2.072   1.674  11.333 -0.7880  1.4980 -1.9017
 9639TIP3    H253113   2.127   1.635  11.197  1.7113  1.0270 -0.7971
 9640TIP3   OH253114   0.666   0.738  11.236 -0.1032 -0.0620  0.0702
 9640TIP3    H153115   0.614   0.769  11.310  0.6012 -0.8182  0.9004
 9640TIP3    H253116   0.742   0.797  11.234 -1.4620  1.8034 -1.8669
 9641TIP3   OH253117   3.040   3.935  11.342  0.3046 -0.7991 -0.3549
 9641TIP3    H153118   2.950   3.967  11.341  0.9637  1.2921  0.7767
 9641TIP3    H253119   3.033   3.842  11.323 -2.4005 -1.3720  2.6699
 9642TIP3   OH253120   2.172   1.992  11.073  0.2524  0.6100 -0.4566
 9642TIP3    H153121   2.230   1.935  11.123 -0.7805 -0.2381 -0.1907
 9642TIP3    H253122   2.134   1.935  11.006 -0.7614  0.9865 -0.2184
 9643TIP3   OH253123   4.357   4.003  10.092  0.2231  0.1378  0.4462
 9643TIP3    H153124   4.393   4.085  10.059  1.0690 -0.3092  0.2256
 9643TIP3    H253125   4.289   3.980  10.028 -0.3104  0.8711  0.7394
 9644TIP3   OH253126   5.232   3.082  11.430 -0.3027  0.5156  0.5327
 9644TIP3    H153127   5.146   3.103  11.467 -0.2417 -0.1696  1.0726
 9644TIP3    H253128   5.287   3.158  11.454 -0.6981  0.8539  0.3747
 9645TIP3   OH253129   0.784   5.446  11.877 -0.6248 -0.4082  0.1420
 9645TIP3    H153130   0.877   5.461  11.860 -0.7558 -0.0337 -0.2548
 9645TIP3    H253131   0.783   5.393  11.957 -0.1334  2.2687  2.0614
 9646TIP3   OH253132   1.159   0.837  11.829 -0.1651  0.1106  0.0287
 9646TIP3    H153133   1.121   0.909  11.778  1.2458  0.2768 -0.8157
 9646TIP3    H253134   1.182   0.771  11.764  2.4913  0.6960  0.2826
 9647TIP3   OH253135   6.183   0.041   9.450  0.0831  0.1669  0.0136
 9647TIP3    H153136   6.155  -0.014   9.524  1.8803 -0.3929  0.3334
 9647TIP3    H253137   6.249  -0.012   9.405  1.4073  1.7930 -0.0456
 9648TIP3   OH253138   1.359   2.094  12.983  0.4712 -0.4097 -0.2318
 9648TIP3    H153139   1.442   2.086  13.029 -0.6607 -0.6643  1.8989
 9648TIP3    H253140   1.296   2.051  13.040 -1.1329 -0.2729 -1.8118
 9649TIP3   OH253141   0.643   0.438  12.325  0.6345 -0.0497 -0.2929
 9649TIP3    H153142   0.614   0.391  12.402  2.0395  0.6926  0.7363
 9649TIP3    H253143   0.619   0.529  12.342  3.0000  0.5176  0.3977
 9650TIP3   OH253144   3.098   3.829  11.637 -0.6181  0.1203  0.3493
 9650TIP3    H153145   3.071   3.788  11.555 -0.1162 -0.0971  0.2838
 9650TIP3    H253146   3.193   3.814  11.640 -0.8870 -1.6143  1.9165
 9651TIP3   OH253147   2.912   3.177  10.707  0.7566 -0.1627 -0.3111
 9651TIP3    H153148   2.923   3.095  10.754 -0.4206  0.4091  1.0358
 9651TIP3    H253149   2.947   3.160  10.620  2.0710 -1.5605  0.4586
 9652TIP3   OH253150   5.855   5.821  10.928 -0.3918 -0.8604 -0.1162
 9652TIP3    H153151   5.844   5.816  11.023 -0.8785 -2.5203 -0.2289
 9652TIP3    H253152   5.893   5.736  10.904 -1.3024 -0.9022 -1.5230
 9653TIP3   OH253153   3.886   2.594  11.445  0.1457 -0.3001  0.2369
 9653TIP3    H153154   3.810   2.537  11.451 -0.2646  0.2050 -0.0816
 9653TIP3    H253155   3.858   2.677  11.484  0.7193 -0.2957  0.6542
 9654TIP3   OH253156   2.689   3.572  11.717  0.6732  0.1960 -0.3262
 9654TIP3    H153157   2.657   3.540  11.632 -2.1732 -2.2640  1.4565
 9654TIP3    H253158   2.611   3.601  11.763  1.9856  0.5212  1.8383
 9655TIP3   OH253159   0.079   5.639  11.150  0.2424 -0.0295  0.3338
 9655TIP3    H153160   0.167   5.674  11.135 -0.1923  1.0338  0.2068
 9655TIP3    H253161   0.029   5.663  11.072  0.2746 -2.1994 -0.4278
 9656TIP3   OH253162   1.510   0.305  11.090 -0.1643 -0.3582  0.1845
 9656TIP3    H153163   1.572   0.257  11.144 -1.1836 -0.9746  0.8547
 9656TIP3    H253164   1.564   0.365  11.039  1.0313 -1.3563  0.2267
 9657TIP3   OH253165   6.026   1.321  12.676  0.0730  0.7348  0.5155
 9657TIP3    H153166   5.962   1.340  12.745  0.6168  0.9901  0.9485
 9657TIP3    H253167   5.989   1.364  12.598 -1.9429 -1.7962 -0.0859
 9658TIP3   OH253168   1.107   1.581  10.447  0.0150 -0.0683 -0.5347
 9658TIP3    H153169   1.092   1.669  10.412  1.3884 -0.4232 -2.1316
 9658TIP3    H253170   1.202   1.572  10.450 -0.0973 -1.6956 -0.9128
 9659TIP3   OH253171   3.622   0.694   9.936  0.5384  0.0445  0.7319
 9659TIP3    H153172   3.588   0.648  10.012  0.3230 -0.3476  0.4000
 9659TIP3    H253173   3.545   0.712   9.882  0.7648 -0.2344  0.3080
 9660TIP3   OH253174   4.069   6.219  10.197  0.2811 -0.3012 -0.0898
 9660TIP3    H153175   4.068   6.267  10.114 -0.4741  1.8344  1.0744
 9660TIP3    H253176   4.120   6.275  10.256  1.9412 -2.4090  0.5877
 9661TIP3   OH253177   1.421   4.312  12.957  0.8048 -0.0233  0.4324
 9661TIP3    H153178   1.396   4.227  12.992  2.1783 -1.3380 -1.5108
 9661TIP3    H253179   1.360   4.327  12.884  1.4187 -0.0422 -0.1010
 9662TIP3   OH253180   4.013   4.115  10.223  0.2415 -0.3875  0.6308
 9662TIP3    H153181   4.081   4.088  10.285 -0.1520 -0.8633  0.8614
 9662TIP3    H253182   3.936   4.134  10.278  0.4165  0.9585  0.4566
 9663TIP3   OH253183   6.424   0.712  10.371  0.0187  0.5998 -0.1228
 9663TIP3    H153184   6.434   0.786  10.431  0.2300  0.4744 -0.0047
 9663TIP3    H253185   6.369   0.746  10.301  0.3540  0.9578 -0.2155
 9664TIP3   OH253186   0.119   4.767  10.249 -0.0458 -0.1010  0.0726
 9664TIP3    H153187   0.163   4.852  10.236  1.4571 -0.7694  0.5354
 9664TIP3    H253188   0.030   4.781  10.218  0.6751  1.1352 -1.6263
 9665TIP3   OH253189   1.581   2.886  10.040 -0.4026 -0.1963 -0.1033
 9665TIP3    H153190   1.558   2.919  10.127 -1.4935  1.5758 -0.9989
 9665TIP3    H253191   1.516   2.818  10.022 -2.3849  1.7535 -0.8234
 9666TIP3   OH253192   4.633   4.898  10.297  0.0130  0.1383 -0.2081
 9666TIP3    H153193   4.652   4.968  10.359  0.6362 -1.3779  1.3918
 9666TIP3    H253194   4.550   4.861  10.327  0.6027 -0.9846  0.1106
 9667TIP3   OH253195   3.317   5.823  10.221 -0.0433  0.0855  0.3707
 9667TIP3    H153196   3.272   5.777  10.150  1.4384 -1.1364  0.1735
 9667TIP3    H253197   3.248   5.840  10.286 -1.5184  1.5882 -1.4676
 9668TIP3   OH253198   3.791   6.457  11.639  0.5656 -0.4224  0.1231
 9668TIP3    H153199   3.885   6.463  11.653  0.8732 -0.8767 -1.5357
 9668TIP3    H253200   3.765   6.543  11.607  0.6087 -0.5858 -0.3641
 9669TIP3   OH253201   3.109   2.981  10.261 -0.2873  0.5036  0.4604
 9669TIP3    H153202   3.072   2.935  10.185 -1.3498  0.0857  1.1893
 9669TIP3    H253203   3.145   2.911  10.315 -0.0900  0.7405  0.6346
 9670TIP3   OH253204   6.504   3.677  12.515 -0.3580  0.4346 -0.0972
 9670TIP3    H153205   6.542   3.641  12.595  1.2234  1.3425 -0.3870
 9670TIP3    H253206   6.410   3.677  12.531 -0.0962  0.3215  1.6465
 9671TIP3   OH253207   1.585   5.197  11.379 -0.0018  0.0580  0.0966
 9671TIP3    H153208   1.630   5.281  11.366  1.4592 -0.9664 -2.0709
 9671TIP3    H253209   1.501   5.208  11.335  0.4062  0.2415 -0.6605
 9672TIP3   OH253210   4.604   4.561  10.263  0.2365  0.2702  0.1965
 9672TIP3    H153211   4.529   4.618  10.243 -1.4430 -0.9509  2.5014
 9672TIP3    H253212   4.573   4.473  10.239  1.5826 -0.0885 -0.3131
 9673TIP3   OH253213   6.617   0.614   9.537 -0.0014  0.6386 -0.2955
 9673TIP3    H153214   6.692   0.662   9.502  0.3354  2.0092  2.0990
 9673TIP3    H253215   6.564   0.680   9.581  1.5517 -1.1862  5.0411
 9674TIP3   OH253216   1.589   3.885  12.488 -0.1182 -0.4689 -0.3130
 9674TIP3    H153217   1.513   3.846  12.445 -0.0978 -0.7721 -0.0755
 9674TIP3    H253218   1.648   3.907  12.415 -0.5095 -0.0549 -0.5103
 9675TIP3   OH253219   0.277   5.297  13.168  0.6227  0.2719 -0.0475
 9675TIP3    H153220   0.352   5.274  13.222 -0.3871  0.2743  1.4047
 9675TIP3    H253221   0.299   5.383  13.132  1.8295 -0.2704 -0.6640
 9676TIP3   OH253222   2.138   1.441  12.855 -0.2913 -0.2016 -0.4746
 9676TIP3    H153223   2.210   1.396  12.810 -0.1192 -2.1875  1.5893
 9676TIP3    H253224   2.074   1.459  12.787  1.4022  0.0703 -2.0693
 9677TIP3   OH253225   1.300   0.393  10.202  0.0665  0.3555  0.0075
 9677TIP3    H153226   1.289   0.387  10.107 -2.7878 -1.8216  0.3390
 9677TIP3    H253227   1.334   0.307  10.227 -0.6805  0.3675  1.1015
 9678TIP3   OH253228   4.924   0.923   9.625  0.0771  0.4318 -0.4946
 9678TIP3    H153229   4.954   1.008   9.594 -0.0890  0.6189 -0.1402
 9678TIP3    H253230   4.995   0.863   9.603 -0.0979  0.5334 -1.3694
 9679TIP3   OH253231   5.896   0.363  10.816 -0.0226 -0.5036  0.8248
 9679TIP3    H153232   5.948   0.440  10.790 -2.2174  0.9912  0.5259
 9679TIP3    H253233   5.959   0.302  10.853  2.1146  0.6150 -0.7640
 9680TIP3   OH253234   0.949   6.264  12.585 -0.4645 -0.4806 -0.0741
 9680TIP3    H153235   0.988   6.249  12.499  0.1956  2.4695 -0.3987
 9680TIP3    H253236   1.018   6.306  12.636 -1.4012 -0.5903  1.3486
 9681TIP3   OH253237   3.554   6.040  10.753 -0.0288  0.2765  0.3059
 9681TIP3    H153238   3.562   5.947  10.729 -0.1015  0.2731  0.2938
 9681TIP3    H253239   3.532   6.038  10.846 -0.0334  0.2814  0.3053
 9682TIP3   OH253240   1.949   6.105  10.226 -0.3808  0.0166 -0.2396
 9682TIP3    H153241   1.906   6.163  10.289  2.3477  1.2763  0.5920
 9682TIP3    H253242   1.964   6.024  10.275  0.3584  0.4408  0.2372
 9683TIP3   OH253243   3.111   0.753  11.108 -0.4511  0.2019 -0.2441
 9683TIP3    H153244   3.177   0.803  11.060  0.5410 -0.9368 -0.0980
 9683TIP3    H253245   3.096   0.676  11.054 -1.8629  0.5568 -0.3953
 9684TIP3   OH253246   6.041   5.954  10.224  0.1203 -0.1966  0.1032
 9684TIP3    H153247   6.128   5.991  10.238 -0.1558  1.3903 -1.9675
 9684TIP3    H253248   5.986   6.029  10.202 -0.9097 -1.5436 -2.3308
 9685TIP3   OH253249   4.923   2.473   9.450 -0.9865 -0.3891 -0.0905
 9685TIP3    H153250   4.921   2.378   9.452 -0.2863 -0.3973  1.0342
 9685TIP3    H253251   4.926   2.499   9.542 -0.6118  0.7060 -0.3967
 9686TIP3   OH253252   1.118   5.708  10.321  0.3729  0.7861  0.1853
 9686TIP3    H153253   1.036   5.755  10.340 -1.1419 -0.1564 -3.1646
 9686TIP3    H253254   1.173   5.774  10.279 -0.1737  0.6108 -0.8584
 9687TIP3   OH253255   4.017   5.114   9.317 -0.2406  0.5332  0.0511
 9687TIP3    H153256   4.084   5.182   9.326  1.3883 -1.1343  0.9635
 9687TIP3    H253257   3.985   5.125   9.227  1.0998  1.4943 -0.3508
 9688TIP3   OH253258   2.642   6.301   9.869  0.2027  0.0394 -0.0416
 9688TIP3    H153259   2.612   6.338   9.786  1.3211 -0.0716 -0.5074
 9688TIP3    H253260   2.659   6.209   9.849 -1.0600 -0.3857  0.7204
 9689TIP3   OH253261   5.918   1.462  11.610 -0.2936 -0.0461  0.2670
 9689TIP3    H153262   5.884   1.412  11.535  1.6069 -0.7463 -0.1992
 9689TIP3    H253263   5.887   1.415  11.687 -1.7934  0.3525 -0.0686
 9690TIP3   OH253264   3.465   4.221  10.439  0.3968  0.6258 -0.3566
 9690TIP3    H153265   3.537   4.260  10.389 -0.0651  0.9580 -0.7798
 9690TIP3    H253266   3.479   4.250  10.529  0.8626  0.5838 -0.4140
 9691TIP3   OH253267   0.502   2.357  11.271  0.0972 -0.0726  0.1881
 9691TIP3    H153268   0.417   2.401  11.279 -0.1846 -0.6850  0.5889
 9691TIP3    H253269   0.564   2.429  11.256 -0.2753  0.5256  1.3975
 9692TIP3   OH253270   4.232   4.232  12.681 -0.0892  0.3354 -0.2676
 9692TIP3    H153271   4.326   4.222  12.665  0.2619  1.5216  0.8540
 9692TIP3    H253272   4.201   4.144  12.700  1.0355  0.0767  0.4651
 9693TIP3   OH253273   5.560   1.114   9.636  1.1927 -0.3016 -0.2406
 9693TIP3    H153274   5.591   1.040   9.584 -1.8692 -2.0733  0.2229
 9693TIP3    H253275   5.617   1.114   9.713  3.3030 -0.0367 -1.7003
 9694TIP3   OH253276   1.327   0.129  11.596 -0.0457 -0.1872 -0.1108
 9694TIP3    H153277   1.337   0.224  11.608 -1.2121 -0.2385  1.7539
 9694TIP3    H253278   1.269   0.120  11.520 -0.0356  0.6118 -0.2197
 9695TIP3   OH253279   6.410   0.736  12.037  0.3493  0.2497  0.0981
 9695TIP3    H153280   6.334   0.679  12.028  0.1586  0.5491 -0.1663
 9695TIP3    H253281   6.475   0.699  11.977  0.8337 -0.6881  1.1440
 9696TIP3   OH253282   2.267   5.667   9.684  0.0346 -0.3945  0.1254
 9696TIP3    H153283   2.302   5.578   9.678  0.8565 -0.2669  2.1755
 9696TIP3    H253284   2.313   5.706   9.759 -0.8351  1.5150 -0.2701
 9697TIP3   OH253285   2.071   0.992  10.073 -0.1502 -0.4460 -0.1020
 9697TIP3    H153286   2.079   1.012   9.980 -1.1493 -2.4730 -0.6671
 9697TIP3    H253287   2.082   0.897  10.079 -0.5250 -0.4109  1.7967
 9698TIP3   OH253288   4.259   0.684  11.680 -0.0904  0.4098 -0.1524
 9698TIP3    H153289   4.345   0.660  11.647 -0.2004  2.0538 -1.7661
 9698TIP3    H253290   4.204   0.609  11.659  0.6839 -0.1585 -0.1904
 9699TIP3   OH253291   3.442   4.567  10.251  0.3046  0.2265  0.5509
 9699TIP3    H153292   3.460   4.483  10.294  2.2232  1.4553  2.3059
 9699TIP3    H253293   3.524   4.590  10.208 -0.9739  0.0167 -2.2425
 9700TIP3   OH253294   4.499   3.183   9.686 -0.4910 -0.4975  0.0615
 9700TIP3    H153295   4.487   3.138   9.770  0.9849 -0.4600  0.3230
 9700TIP3    H253296   4.516   3.113   9.623 -1.0957 -0.4892 -0.1189
 9701TIP3   OH253297   4.543   3.167  11.811  0.0381  0.3828 -0.5802
 9701TIP3    H153298   4.624   3.206  11.779  0.2046  0.5916  0.0754
 9701TIP3    H253299   4.518   3.222  11.886  0.9653 -1.4712  1.2034
 9702TIP3   OH253300   3.969   1.647  12.749  0.7362  0.1831 -0.0921
 9702TIP3    H153301   3.897   1.704  12.777 -0.7698 -0.9716 -1.4117
 9702TIP3    H253302   4.028   1.704  12.701 -0.0587  0.8995 -0.2539
 9703TIP3   OH253303   6.566   5.414  12.778 -0.0559 -0.0697 -0.3184
 9703TIP3    H153304   6.566   5.330  12.732 -1.3899  0.5737 -1.5845
 9703TIP3    H253305   6.476   5.423  12.811 -0.5544  1.7045 -1.9426
 9704TIP3   OH253306   0.596   2.670  11.981  0.5100 -0.1977 -0.1489
 9704TIP3    H153307   0.526   2.641  12.040  1.5892 -1.0422  0.7551
 9704TIP3    H253308   0.567   2.642  11.894 -0.9262  0.7328 -0.0127
 9705TIP3   OH253309   6.443   1.281  12.087  0.3499  0.0532  0.1893
 9705TIP3    H153310   6.443   1.372  12.117 -1.0108  0.5738 -1.2357
 9705TIP3    H253311   6.426   1.229  12.166  0.6733  1.0680  0.9382
 9706TIP3   OH253312   3.033   4.873  10.921  0.2216  0.0983 -0.7526
 9706TIP3    H153313   3.052   4.963  10.946  1.8057  0.2254 -2.2210
 9706TIP3    H253314   3.084   4.859  10.841 -0.5372 -1.8861 -0.9500
 9707TIP3   OH253315   0.999   4.230  10.532  0.2826 -0.2485 -0.3791
 9707TIP3    H153316   0.955   4.275  10.459 -0.8363 -1.7521 -0.6743
 9707TIP3    H253317   0.998   4.138  10.507  2.0687 -0.5348  0.4479
 9708TIP3   OH253318   3.098   0.900   9.887 -0.1480  0.3787 -0.5039
 9708TIP3    H153319   3.172   0.959   9.872  0.4824 -0.4568 -0.7475
 9708TIP3    H253320   3.034   0.953   9.935  0.6602  1.0757 -0.1739
 9709TIP3   OH253321   5.349   5.251  10.493  0.3938  0.2114 -0.2459
 9709TIP3    H153322   5.277   5.313  10.507 -0.3279 -0.9751  1.5786
 9709TIP3    H253323   5.396   5.287  10.417 -2.1124  1.0104 -1.5472
 9710TIP3   OH253324   4.449   1.480  11.411 -0.2233 -0.3157  0.4865
 9710TIP3    H153325   4.481   1.563  11.446  0.2447  0.0755 -0.8144
 9710TIP3    H253326   4.520   1.418  11.425  0.0226 -0.1237  0.0772
 9711TIP3   OH253327   3.332   2.326  12.264  0.1788  0.4142 -0.0573
 9711TIP3    H153328   3.401   2.266  12.234 -1.4284 -2.2482  1.1312
 9711TIP3    H253329   3.378   2.392  12.316  1.9749 -0.3232 -0.6227
 9712TIP3   OH253330   1.729   1.549   9.455  0.6156  0.8841 -0.3760
 9712TIP3    H153331   1.805   1.598   9.489  1.5531 -0.2634 -0.7591
 9712TIP3    H253332   1.681   1.614   9.403  1.3076  1.6442 -0.0963
 9713TIP3   OH253333   4.525   4.811  10.724 -0.2427 -0.4011 -0.2110
 9713TIP3    H153334   4.439   4.800  10.684 -1.4057  1.3891  1.5867
 9713TIP3    H253335   4.506   4.849  10.810  2.3365 -0.4576  0.4520
 9714TIP3   OH253336   4.488   5.162   9.385 -0.3936  0.1785 -0.5027
 9714TIP3    H153337   4.569   5.187   9.339 -1.0351  1.1274 -1.1511
 9714TIP3    H253338   4.518   5.102   9.453  0.8721  0.5043 -0.7268
 9715TIP3   OH253339   2.371   3.659  11.760 -0.0907  0.0313 -0.1201
 9715TIP3    H153340   2.346   3.654  11.668  0.2538  0.3284 -0.2310
 9715TIP3    H253341   2.340   3.744  11.789  0.8453  0.4367 -0.2799
 9716TIP3   OH253342   5.078   1.184  11.230 -0.2257  0.4616 -0.7423
 9716TIP3    H153343   5.040   1.103  11.194 -0.7585  0.4641 -0.2088
 9716TIP3    H253344   5.159   1.156  11.273 -0.3294  0.2365 -0.6944
 9717TIP3   OH253345   4.535   1.425  10.128 -0.2740 -0.0290  0.0404
 9717TIP3    H153346   4.607   1.459  10.075 -1.8003  1.0451 -1.4481
 9717TIP3    H253347   4.547   1.464  10.215 -0.7175  2.6100 -1.0189
 9718TIP3   OH253348   4.064   1.191  10.959 -0.2647  0.4161 -0.3099
 9718TIP3    H153349   4.059   1.099  10.985  0.4785  0.2816 -0.6331
 9718TIP3    H253350   4.020   1.195  10.874  0.6604  0.1466 -0.8165
 9719TIP3   OH253351   1.623   4.556  10.910  0.1816 -0.0696  0.1691
 9719TIP3    H153352   1.627   4.470  10.952 -0.8816 -0.4597 -0.4941
 9719TIP3    H253353   1.714   4.581  10.898  0.5027 -0.7976  0.9830
 9720TIP3   OH253354   5.522   3.743  10.919 -0.2558 -0.1721 -0.1770
 9720TIP3    H153355   5.615   3.764  10.914 -0.4191  0.9041  0.7713
 9720TIP3    H253356   5.485   3.776  10.837  0.3245 -1.4610 -0.9901
 9721TIP3   OH253357   2.822   1.464  11.345  0.2416 -0.1780  0.5821
 9721TIP3    H153358   2.812   1.370  11.363  1.6690 -0.3063  0.8199
 9721TIP3    H253359   2.916   1.475  11.330 -0.3466  0.4259 -3.8719
 9722TIP3   OH253360   6.504   1.568  11.764  0.0498  0.6440 -0.2445
 9722TIP3    H153361   6.427   1.553  11.819  1.5090  1.1046  2.1086
 9722TIP3    H253362   6.470   1.610  11.685 -2.0943  1.0519  0.8222
 9723TIP3   OH253363   4.426   0.798  10.839  0.3546  0.4183  1.0475
 9723TIP3    H153364   4.380   0.857  10.780 -0.4347 -2.4164 -1.4360
 9723TIP3    H253365   4.518   0.803  10.812 -0.0228 -0.9803 -0.6986
 9724TIP3   OH253366   2.876   3.097  11.935 -0.0847  0.0090 -0.3126
 9724TIP3    H153367   2.812   3.149  11.886  0.0314 -1.9510 -2.7182
 9724TIP3    H253368   2.955   3.101  11.881  0.3793 -1.3988  0.2252
 9725TIP3   OH253369   5.744   0.390  11.527 -0.0786  0.3323 -0.1817
 9725TIP3    H153370   5.823   0.344  11.499  1.2671  2.6016 -0.3714
 9725TIP3    H253371   5.733   0.459  11.461 -1.1061  1.2333  0.8997
 9726TIP3   OH253372   0.098   6.336   9.312  0.7221  0.5993 -0.6614
 9726TIP3    H153373   0.100   6.412   9.254  0.5439  0.5479 -0.7348
 9726TIP3    H253374   0.187   6.331   9.347  0.5913  1.1756 -0.2285
 9727TIP3   OH253375   1.773   0.813  11.508 -0.2093  0.1550 -0.0981
 9727TIP3    H153376   1.693   0.774  11.473  0.4850 -0.9562 -0.5125
 9727TIP3    H253377   1.813   0.743  11.561  1.4418 -0.0019 -1.4482
 9728TIP3   OH253378   0.238   1.544   9.612 -0.4139  0.1097  0.2129
 9728TIP3    H153379   0.202   1.504   9.692  1.8033 -0.6739  0.8813
 9728TIP3    H253380   0.223   1.479   9.544  0.5213 -0.6119  0.6794
 9729TIP3   OH253381   2.769   0.019  11.249  0.2957  0.5634  0.1950
 9729TIP3    H153382   2.807  -0.028  11.323 -0.9585 -0.1969  0.3836
 9729TIP3    H253383   2.678   0.034  11.274  0.0270  0.8898 -0.9112
 9730TIP3   OH253384   6.016   0.629  11.023  0.1943 -0.3168 -0.0081
 9730TIP3    H153385   5.988   0.703  10.969  1.3702  0.0999 -0.0791
 9730TIP3    H253386   6.057   0.568  10.962  1.0075 -0.1079  0.3160
 9731TIP3   OH253387   4.510   2.768   9.757  0.0551  0.5642 -0.2123
 9731TIP3    H153388   4.602   2.746   9.740  0.1231  1.1572 -0.6925
 9731TIP3    H253389   4.482   2.706   9.824  0.8880  0.5518  0.1442
 9732TIP3   OH253390   6.401   2.506  11.761  0.3422 -0.0225  0.2415
 9732TIP3    H153391   6.362   2.420  11.776  1.9194 -1.0135 -1.0058
 9732TIP3    H253392   6.484   2.487  11.719  1.1651  2.1002  0.8049
 9733TIP3   OH253393   2.243   4.553  11.440  1.0597 -0.3550  0.1002
 9733TIP3    H153394   2.225   4.499  11.363  2.2855 -1.9351  0.8787
 9733TIP3    H253395   2.196   4.635  11.423 -0.3741 -1.4240 -1.3869
 9734TIP3   OH253396   2.833   2.641  11.527 -0.4081 -0.4556  0.3092
 9734TIP3    H153397   2.756   2.698  11.535  1.2044  2.0424 -0.8540
 9734TIP3    H253398   2.847   2.633  11.433 -0.3946 -2.6074  0.4587
 9735TIP3   OH253399   3.698   0.279  11.380  0.1245 -0.0601 -0.4676
 9735TIP3    H153400   3.640   0.205  11.366 -1.6763  0.7906  1.8999
 9735TIP3    H253401   3.700   0.324  11.295 -0.9601 -1.2571 -1.1658
 9736TIP3   OH253402   4.941   5.852  10.965  0.0245 -0.3245 -0.3150
 9736TIP3    H153403   4.957   5.785  10.898  0.1398 -1.2996  0.6555
 9736TIP3    H253404   5.021   5.905  10.964  0.2619 -0.6740 -0.5614
 9737TIP3   OH253405   1.250   0.887  11.319  0.3073 -0.0684 -0.2504
 9737TIP3    H153406   1.184   0.884  11.249  0.2603 -2.2130 -0.1928
 9737TIP3    H253407   1.320   0.829  11.288 -0.0893 -1.7616  1.7851
 9738TIP3   OH253408   4.977   1.776  10.663  0.4560  0.3717  0.3777
 9738TIP3    H153409   5.033   1.716  10.712  1.3878  0.6941 -0.2758
 9738TIP3    H253410   4.961   1.732  10.580 -0.8358 -0.0179  0.8123
 9739TIP3   OH253411   2.974   1.702  11.587  0.3240  0.3901  0.5973
 9739TIP3    H153412   2.996   1.730  11.676 -1.2746  0.9313  0.8456
 9739TIP3    H253413   3.052   1.655  11.557  1.0738  0.6221  2.0970
 9740TIP3   OH253414   2.274   2.702   9.411  0.2718  0.0591 -0.0084
 9740TIP3    H153415   2.230   2.641   9.351 -0.0514 -1.1061  1.3551
 9740TIP3    H253416   2.206   2.765   9.434  0.3378  0.3847 -0.7061
 9741TIP3   OH253417   4.297   2.433  10.611 -0.2873  0.0879  0.2949
 9741TIP3    H153418   4.287   2.362  10.547 -1.1419  0.9787 -0.5848
 9741TIP3    H253419   4.211   2.438  10.654  0.0022  0.1115  0.8887
 9742TIP3   OH253420   2.516   0.606  12.279  0.1685  0.3023  0.0404
 9742TIP3    H153421   2.517   0.646  12.366  0.2536 -0.1862  0.2656
 9742TIP3    H253422   2.443   0.545  12.281  0.4541 -0.0463 -0.0776
 9743TIP3   OH253423   3.884   1.647  10.674  0.0008 -0.4436  0.5081
 9743TIP3    H153424   3.808   1.701  10.693  0.0207 -0.6716  1.2618
 9743TIP3    H253425   3.847   1.564  10.643 -0.0436 -0.3196  0.2277
 9744TIP3   OH253426   4.761   0.300   9.998  0.5888  0.0869  0.3558
 9744TIP3    H153427   4.721   0.221  10.034 -0.7924  1.2357  1.4138
 9744TIP3    H253428   4.812   0.336  10.071 -0.5738  1.3264  0.5957
 9745TIP3   OH253429   2.255   5.750  12.764 -0.2230  0.3689 -0.0104
 9745TIP3    H153430   2.324   5.758  12.830 -1.1712 -0.6948  1.1588
 9745TIP3    H253431   2.174   5.757  12.814 -0.9689 -0.2071 -1.1114
 9746TIP3   OH253432   2.317   3.270  10.362  0.6352 -0.0454 -0.3053
 9746TIP3    H153433   2.377   3.238  10.430  1.2953  1.2688 -0.2323
 9746TIP3    H253434   2.256   3.198  10.348  1.2055 -0.7839  0.8410
 9747TIP3   OH253435   0.545   1.374  12.451  0.1423 -0.6258 -0.3266
 9747TIP3    H153436   0.497   1.457  12.457  0.6766 -0.3374  0.0384
 9747TIP3    H253437   0.514   1.335  12.369 -0.8913 -0.5651  0.0108
 9748TIP3   OH253438   4.368   2.505  12.297  0.2478  0.0270  0.5594
 9748TIP3    H153439   4.429   2.521  12.370  1.0619 -0.4130 -0.0127
 9748TIP3    H253440   4.419   2.524  12.219 -0.9579  1.6264  0.0984
 9749TIP3   OH253441   3.311   3.746   9.863  0.2552 -0.7088  0.1182
 9749TIP3    H153442   3.386   3.711   9.910 -0.3442 -1.6629  0.3872
 9749TIP3    H253443   3.269   3.805   9.925  1.5212  0.9006 -0.4874
 9750TIP3   OH253444   4.941   0.535   9.648  0.0028 -0.1072  0.1426
 9750TIP3    H153445   4.992   0.613   9.628  0.9342  0.3740  3.6667
 9750TIP3    H253446   4.850   0.564   9.644  0.3292  1.2175  1.3328
 9751TIP3   OH253447   0.140   3.187  12.648 -0.7051 -0.3405  0.7939
 9751TIP3    H153448   0.167   3.188  12.740  0.4083 -1.9075  0.5095
 9751TIP3    H253449   0.092   3.269  12.637 -1.1909 -0.2904  2.8606
 9752TIP3   OH253450   5.858   4.524  10.861 -0.0031  0.4161 -0.3646
 9752TIP3    H153451   5.919   4.450  10.866  2.4588  2.3518  0.6780
 9752TIP3    H253452   5.853   4.545  10.768  0.6115 -0.0163 -0.5015
 9753TIP3   OH253453   2.550   4.843  10.114 -0.6429  0.1024  0.2894
 9753TIP3    H153454   2.563   4.767  10.056 -1.3515  0.6553 -0.6201
 9753TIP3    H253455   2.639   4.868  10.140 -0.1944  0.6015 -1.5843
 9754TIP3   OH253456   6.400   6.545  13.077 -0.6249  0.0748 -0.6159
 9754TIP3    H153457   6.379   6.520  13.167 -0.0582  2.2800  0.1927
 9754TIP3    H253458   6.494   6.530  13.070 -1.0020 -2.0891 -1.5713
 9755TIP3   OH253459   6.597   6.363  10.133  0.1117  0.7655 -0.2182
 9755TIP3    H153460   6.593   6.282  10.183  1.0210  1.1497  0.5005
 9755TIP3    H253461   6.574   6.431  10.195 -0.0447  1.1273 -0.6629
 9756TIP3   OH253462   3.905   4.605   9.571 -0.1542 -0.1037  0.1175
 9756TIP3    H153463   3.912   4.700   9.575  0.7203 -0.1481 -0.3138
 9756TIP3    H253464   3.849   4.582   9.645 -0.6386  0.7687  0.0327
 9757TIP3   OH253465   4.574   5.359  10.503 -0.9193  0.1417  0.0736
 9757TIP3    H153466   4.597   5.440  10.458  0.1084 -0.8319 -1.2423
 9757TIP3    H253467   4.552   5.386  10.592  1.9521  1.6063  0.4559
 9758TIP3   OH253468   5.405   6.039  11.351 -0.1692 -0.2053 -0.2193
 9758TIP3    H153469   5.404   6.091  11.271 -1.1654 -0.5575 -0.4474
 9758TIP3    H253470   5.479   5.978  11.339  0.0251  0.1056 -0.6269
 9759TIP3   OH253471   6.380   6.034  12.281  0.2558  0.2934 -0.0156
 9759TIP3    H153472   6.390   6.064  12.372  0.2216  1.7946 -0.4820
 9759TIP3    H253473   6.458   6.067  12.236 -1.0288  2.0541 -1.1205
 9760TIP3   OH253474   1.493   0.831  10.226 -0.5999  0.0866 -0.4311
 9760TIP3    H153475   1.515   0.858  10.137  1.1505  1.9349  0.4738
 9760TIP3    H253476   1.519   0.739  10.231 -0.1431  0.1303 -1.6429
 9761TIP3   OH253477   6.330   4.004  11.418 -0.0549 -0.2438 -0.0549
 9761TIP3    H153478   6.316   4.012  11.512 -2.9298 -0.3046 -0.3884
 9761TIP3    H253479   6.313   3.912  11.398  0.8582 -0.3055 -0.6095
 9762TIP3   OH253480   1.515   3.705  11.601 -0.3844  0.0939 -0.1640
 9762TIP3    H153481   1.589   3.758  11.630 -0.7335  0.1530  0.6408
 9762TIP3    H253482   1.533   3.688  11.508  1.2545 -0.8864  0.2840
 9763TIP3   OH253483   5.291   0.974  10.718 -0.2229  0.2198  0.0854
 9763TIP3    H153484   5.361   0.979  10.784 -1.0317  0.0773  0.9702
 9763TIP3    H253485   5.311   0.896  10.667  0.0242 -0.0693  0.6165
 9764TIP3   OH253486   6.539   3.520  10.382 -0.0928  0.1284  0.4019
 9764TIP3    H153487   6.627   3.547  10.354 -0.0625 -0.6072 -0.2669
 9764TIP3    H253488   6.508   3.591  10.436  0.7038  0.6543  0.1876
 9765TIP3   OH253489   2.700   2.427  11.128 -0.1173 -0.3943 -0.2143
 9765TIP3    H153490   2.715   2.349  11.182  0.6534  1.3266  2.2058
 9765TIP3    H253491   2.759   2.415  11.053  1.0497 -1.5084  0.8260
 9766TIP3   OH253492   5.068   4.925  12.868 -0.0149  0.7907 -0.1434
 9766TIP3    H153493   4.993   4.925  12.927 -0.5054  1.0390 -0.7562
 9766TIP3    H253494   5.084   5.017  12.849 -0.3425  0.6764 -0.9948
 9767TIP3   OH253495   2.773   4.898  10.251 -0.9406  0.0607  0.0473
 9767TIP3    H153496   2.729   4.890  10.335  0.7386  1.9744  1.2017
 9767TIP3    H253497   2.864   4.873  10.269 -0.3905  1.1799 -1.0183
 9768TIP3   OH253498   0.202   6.502  10.274 -0.3240  0.2247  0.1987
 9768TIP3    H153499   0.228   6.485  10.183  0.4186  3.8683 -0.4326
 9768TIP3    H253500   0.285   6.523  10.319 -0.7305 -1.1278  1.6483
 9769TIP3   OH253501   3.947   0.244  10.782  0.1965 -0.3689 -0.2255
 9769TIP3    H153502   4.033   0.285  10.783 -0.4694  1.0936  0.0676
 9769TIP3    H253503   3.932   0.221  10.690  1.3105 -1.5850 -0.1204
 9770TIP3   OH253504   2.209   4.422  10.297  0.5182 -0.1092 -0.5437
 9770TIP3    H153505   2.224   4.328  10.287  1.1569 -0.0830  0.1093
 9770TIP3    H253506   2.263   4.447  10.371  0.8531  0.9041 -1.1161
 9771TIP3   OH253507   0.556   2.489  12.400 -0.3939  0.3068  0.0008
 9771TIP3    H153508   0.637   2.444  12.376  0.3894  0.9775  1.2597
 9771TIP3    H253509   0.579   2.539  12.479 -2.0947  0.3366  0.5174
 9772TIP3   OH253510   2.046   0.064  10.662 -0.6554 -0.3390 -0.3705
 9772TIP3    H153511   2.092   0.002  10.719 -0.7686 -0.7221 -0.6870
 9772TIP3    H253512   2.115   0.116  10.622 -0.4939 -0.9274 -0.8605
 9773TIP3   OH253513   5.504   0.584  10.912 -0.0181  0.1323 -0.0844
 9773TIP3    H153514   5.422   0.626  10.889  1.2630  2.2314 -1.1267
 9773TIP3    H253515   5.479   0.497  10.942 -2.7755  1.3759  1.5959
 9774TIP3   OH253516   1.030   0.895   9.900  0.1372  0.1363  0.1245
 9774TIP3    H153517   1.009   0.869   9.811  2.1466  0.2832 -0.4485
 9774TIP3    H253518   0.977   0.838   9.955  0.2516 -1.2706 -1.1633
 9775TIP3   OH253519   0.273   2.307  11.083  0.1405 -0.2318  0.6826
 9775TIP3    H153520   0.203   2.254  11.120 -0.4016  0.9713  1.4263
 9775TIP3    H253521   0.349   2.289  11.140 -0.2094  0.2462  1.3132
 9776TIP3   OH253522   3.500   5.786   9.732 -0.0376  0.1609 -0.0292
 9776TIP3    H153523   3.534   5.769   9.820 -0.5169  1.5615  0.4617
 9776TIP3    H253524   3.484   5.881   9.731  0.3488  0.2308 -1.7691
 9777TIP3   OH253525   5.482   5.995   9.690 -0.3509 -0.0047 -0.3236
 9777TIP3    H153526   5.431   5.915   9.679 -1.2067  0.4809  0.0184
 9777TIP3    H253527   5.554   5.970   9.748 -0.0022 -0.7697 -1.0588
 9778TIP3   OH253528   4.725   3.736  10.594 -0.1335  0.4309  0.2738
 9778TIP3    H153529   4.687   3.661  10.549  1.0103 -0.6476  1.0340
 9778TIP3    H253530   4.765   3.789  10.525 -0.8677  0.2940 -0.2599
 9779TIP3   OH253531   1.168   2.066   9.950  0.2216 -0.4238 -0.6636
 9779TIP3    H153532   1.175   2.151   9.993  0.2021 -0.7097 -0.0844
 9779TIP3    H253533   1.221   2.008  10.004 -1.0268 -1.1185 -0.1517
 9780TIP3   OH253534   1.165   6.591   9.647 -0.2301  0.3128  0.6623
 9780TIP3    H153535   1.079   6.601   9.606  0.0668  3.2769  0.5692
 9780TIP3    H253536   1.213   6.531   9.590 -1.4177  0.5926 -0.6711
 9781TIP3   OH253537   2.935   4.617  10.147  0.2310  0.4313  0.3023
 9781TIP3    H153538   2.840   4.627  10.157 -0.0718 -0.3720 -1.3298
 9781TIP3    H253539   2.955   4.657  10.062  1.4942  1.2163  0.9306
 9782TIP3   OH253540   4.309   2.736  12.027  0.3821  0.3962 -0.4156
 9782TIP3    H153541   4.364   2.810  11.999  0.3271  1.5125  2.0847
 9782TIP3    H253542   4.323   2.669  11.960  1.5568  2.1438 -2.0440
 9783TIP3   OH253543   2.610   2.414  12.839 -0.2854  0.4072 -0.0323
 9783TIP3    H153544   2.664   2.493  12.846  1.9657 -1.0629  0.2049
 9783TIP3    H253545   2.523   2.442  12.868  1.0331  2.1931  2.5699
 9784TIP3   OH253546   4.595   1.361  11.932  0.0198 -0.1300  0.2081
 9784TIP3    H153547   4.677   1.316  11.954 -1.0536 -2.4494 -0.2348
 9784TIP3    H253548   4.584   1.346  11.838 -0.5303  0.8668  0.0991
 9785TIP3   OH253549   1.139   4.772  11.872  0.4680  0.1511 -0.2058
 9785TIP3    H153550   1.193   4.828  11.815 -0.2843  1.0124 -0.0985
 9785TIP3    H253551   1.125   4.692  11.820  1.2247  0.2240 -0.5312
 9786TIP3   OH253552   3.486   2.105  12.269  0.6325  0.9540 -0.1342
 9786TIP3    H153553   3.497   2.086  12.362  3.5452  1.4786 -0.2941
 9786TIP3    H253554   3.474   2.019  12.228  0.8936  0.5968  0.5312
 9787TIP3   OH253555   2.856   1.024  12.426 -0.1120  0.2008  0.0536
 9787TIP3    H153556   2.877   0.970  12.502  0.5508  0.2048 -0.1159
 9787TIP3    H253557   2.775   0.988  12.391  0.8855 -1.3862 -0.7052
 9788TIP3   OH253558   3.462   5.915  11.276  0.1025  0.0300  0.1965
 9788TIP3    H153559   3.425   5.905  11.363 -0.6210 -0.0567 -0.1159
 9788TIP3    H253560   3.386   5.928  11.219  0.6175  1.0323 -0.2927
 9789TIP3   OH253561   5.163   4.018  11.873 -0.5277 -0.0935  0.7078
 9789TIP3    H153562   5.103   4.089  11.899 -0.6221  0.1692 -0.1827
 9789TIP3    H253563   5.179   4.034  11.780 -0.6478 -1.3255  0.4657
 9790TIP3   OH253564   6.290   1.285  12.746  0.3696 -0.3079 -0.5783
 9790TIP3    H153565   6.298   1.379  12.758 -0.5613 -0.1560 -1.0346
 9790TIP3    H253566   6.206   1.274  12.701 -1.4741 -1.5861  2.7268
 9791TIP3   OH253567   6.264   2.586  10.563 -0.5609 -0.5858 -0.1224
 9791TIP3    H153568   6.211   2.531  10.621 -0.0436  0.5481  1.4775
 9791TIP3    H253569   6.314   2.642  10.622 -0.2976  0.8942 -1.6918
 9792TIP3   OH253570   0.499   3.728   9.652 -0.2312 -0.0001 -0.7073
 9792TIP3    H153571   0.593   3.744   9.656  0.0490 -1.7776  2.3537
 9792TIP3    H253572   0.491   3.637   9.624 -0.7974 -1.0281  2.4886
 9793TIP3   OH253573   2.337   6.462  12.474 -0.5077 -0.4517 -0.3278
 9793TIP3    H153574   2.372   6.419  12.552  1.1561  1.0561 -0.1750
 9793TIP3    H253575   2.388   6.543  12.466 -1.9158  0.3483 -1.9217
 9794TIP3   OH253576   0.075   2.732  11.319 -0.0717 -0.0587  0.0046
 9794TIP3    H153577   0.139   2.784  11.271 -0.7220  0.0871 -0.7265
 9794TIP3    H253578   0.060   2.655  11.265  0.8229 -0.9942  1.0438
 9795TIP3   OH253579   1.205   4.506  11.125 -0.0650  0.0089 -0.1378
 9795TIP3    H153580   1.140   4.534  11.190 -1.0357 -0.2141 -0.9888
 9795TIP3    H253581   1.242   4.588  11.091  0.0090  0.1414  0.2574
 9796TIP3   OH253582   0.987   2.429  10.126  0.1195 -0.3285  0.2361
 9796TIP3    H153583   1.077   2.399  10.141 -0.2876 -1.8455 -0.1674
 9796TIP3    H253584   0.940   2.405  10.206  0.6395  3.2454  1.8143
 9797TIP3   OH253585   5.566   5.891  10.578 -0.4232 -0.0007  0.4070
 9797TIP3    H153586   5.551   5.807  10.536  0.1198  0.5556 -0.9682
 9797TIP3    H253587   5.633   5.933  10.524 -2.2792  2.2471 -0.3028
 9798TIP3   OH253588   4.965   4.183  11.543 -0.8294  0.0379  0.0817
 9798TIP3    H153589   4.888   4.212  11.495 -0.0085  2.5644  0.1409
 9798TIP3    H253590   5.016   4.263  11.558  0.2742 -1.0366  2.7737
 9799TIP3   OH253591   6.104   5.995  11.810 -0.1687  0.0186 -0.2903
 9799TIP3    H153592   6.167   6.023  11.877 -0.4569  1.3993 -0.5588
 9799TIP3    H253593   6.111   6.062  11.742 -0.9298 -0.5775 -0.9717
 9800TIP3   OH253594   0.498   0.721  11.560  0.3072 -0.0133 -0.0714
 9800TIP3    H153595   0.472   0.668  11.635  0.4352  1.6321  1.1904
 9800TIP3    H253596   0.427   0.709  11.497  0.2611 -1.5232  0.2206
 9801TIP3   OH253597   6.252   4.988   9.995  0.4839  0.2588  0.0424
 9801TIP3    H153598   6.231   4.903  10.033  1.2920 -0.2149 -0.5360
 9801TIP3    H253599   6.348   4.994  10.000  0.4271  1.2367  0.2834
 9802TIP3   OH253600   1.787   5.372  12.190  0.0370 -0.4202  0.2103
 9802TIP3    H153601   1.860   5.423  12.224 -0.8860  1.8380 -0.9605
 9802TIP3    H253602   1.710   5.408  12.235 -0.5373 -1.4888  0.1024
 9803TIP3   OH253603   2.292   5.149   9.126 -0.4135 -0.2017 -0.6165
 9803TIP3    H153604   2.370   5.096   9.142  0.0030  0.6610  0.2972
 9803TIP3    H253605   2.324   5.224   9.076 -1.2142 -1.3983 -3.0993
 9804TIP3   OH253606   0.700   0.013  11.479  0.5353  0.4730 -0.2570
 9804TIP3    H153607   0.642   0.078  11.518  0.8775  1.0295 -0.6770
 9804TIP3    H253608   0.651  -0.020  11.404  0.3800  0.2649 -0.0682
 9805TIP3   OH253609   3.622   5.558  11.702 -0.3002 -0.0587  0.4260
 9805TIP3    H153610   3.652   5.595  11.619  0.4797  2.1786  1.6178
 9805TIP3    H253611   3.535   5.523  11.683 -2.1442  4.3899 -0.4404
 9806TIP3   OH253612   4.592   5.396  11.187 -0.3770 -0.6879  0.2086
 9806TIP3    H153613   4.624   5.438  11.266 -0.4449 -0.1660 -0.0357
 9806TIP3    H253614   4.529   5.330  11.218 -2.3229  1.1936  0.5120
 9807TIP3   OH253615   2.784   5.890  11.228  0.1656  0.2583 -0.4214
 9807TIP3    H153616   2.753   5.947  11.158  0.8988  0.4089 -0.6243
 9807TIP3    H253617   2.879   5.892  11.221  0.2034 -1.9707 -1.2247
 9808TIP3   OH253618   5.437   2.417   9.298  0.6663 -0.1109 -0.1892
 9808TIP3    H153619   5.365   2.474   9.326  0.8673 -0.6794  1.6556
 9808TIP3    H253620   5.505   2.432   9.364  1.6595 -0.7011 -1.0573
 9809TIP3   OH253621   1.779   5.698  11.622  0.5408  0.1248 -0.4013
 9809TIP3    H153622   1.692   5.672  11.652  0.3339  0.6423 -0.5442
 9809TIP3    H253623   1.839   5.659  11.685  0.2179 -0.4144 -0.4254
 9810TIP3   OH253624   5.692   5.910   9.924 -0.5591 -0.2153 -0.8377
 9810TIP3    H153625   5.731   5.896   9.838 -2.0565 -0.8598 -1.4485
 9810TIP3    H253626   5.727   5.994   9.954  1.3454 -0.8148 -1.2770
 9811TIP3   OH253627   4.710   0.800  10.608 -0.0727 -0.0531  0.2086
 9811TIP3    H153628   4.707   0.705  10.595 -0.3155 -0.0743  0.3991
 9811TIP3    H253629   4.778   0.831  10.548  1.0313 -0.5215  1.1861
 9812TIP3   OH253630   1.742   0.792  10.582 -0.0026 -0.7745 -0.3978
 9812TIP3    H153631   1.754   0.721  10.645 -0.2781  0.5796  1.2484
 9812TIP3    H253632   1.647   0.798  10.569  0.0889 -1.6648 -1.7455
 9813TIP3   OH253633   4.259   1.902  10.003  0.2399  0.4787 -0.3943
 9813TIP3    H153634   4.312   1.826   9.981  0.2263  0.4007 -0.1567
 9813TIP3    H253635   4.238   1.942   9.918  1.0572  0.7722 -0.4693
 9814TIP3   OH253636   2.585   2.412  10.119 -0.0390  0.2978 -0.7535
 9814TIP3    H153637   2.570   2.492  10.067  1.5411  1.1395  0.0000
 9814TIP3    H253638   2.677   2.419  10.147  0.0276 -1.6249 -0.3585
 9815TIP3   OH253639   1.624   3.088  11.616 -0.6788  0.2360  0.1161
 9815TIP3    H153640   1.660   3.003  11.641  1.3435  0.7589 -0.8619
 9815TIP3    H253641   1.695   3.150  11.633 -0.9818  1.2889 -2.1448
 9816TIP3   OH253642   0.309   5.357  12.045  0.7938 -0.4165 -0.2088
 9816TIP3    H153643   0.268   5.316  11.969 -0.0016 -0.8904  0.4571
 9816TIP3    H253644   0.374   5.293  12.076  1.2249 -0.1593 -0.5726
 9817TIP3   OH253645   1.702   3.758  12.672 -0.2884 -0.2761  1.0381
 9817TIP3    H153646   1.699   3.811  12.593  0.1342  0.0050  1.2056
 9817TIP3    H253647   1.651   3.808  12.736  1.2929  0.6769  1.6255
 9818TIP3   OH253648   3.847   4.596  11.373  0.5768 -0.4883  0.2794
 9818TIP3    H153649   3.860   4.553  11.289 -0.3595  2.1986 -1.3561
 9818TIP3    H253650   3.926   4.648  11.387  0.9134 -1.2362  1.3124
 9819TIP3   OH253651   3.309   5.773  11.786 -0.1570  0.0709  0.4716
 9819TIP3    H153652   3.293   5.694  11.838  0.6802 -0.7939 -0.5400
 9819TIP3    H253653   3.301   5.845  11.849  0.4741 -0.9170  1.7347
 9820TIP3   OH253654   2.678   0.959  11.284  0.3656  0.1829  0.3443
 9820TIP3    H153655   2.668   0.876  11.331  0.3924  0.0544  0.1257
 9820TIP3    H253656   2.741   0.940  11.214 -0.8253 -0.0482 -0.7040
 9821TIP3   OH253657   1.581   6.601  11.613  0.3831  0.2967 -0.4786
 9821TIP3    H153658   1.643   6.601  11.540  2.2554  2.5611  0.9542
 9821TIP3    H253659   1.510   6.657  11.585  0.4137  0.0588 -1.0505
 9822TIP3   OH253660   4.971   6.050   9.707 -0.5849 -0.0427 -0.5737
 9822TIP3    H153661   4.971   6.075   9.615  0.4719 -0.3722 -0.6787
 9822TIP3    H253662   4.888   6.004   9.719 -0.9214  0.3675 -1.2524
 9823TIP3   OH253663   4.789   5.713   9.458 -0.2626  0.4728 -0.1850
 9823TIP3    H153664   4.768   5.627   9.492  0.3196  0.6993  0.7625
 9823TIP3    H253665   4.703   5.753   9.441 -0.5649  0.3204  0.9340
 9824TIP3   OH253666   0.150   0.004  12.499  0.1728  0.4049  0.3458
 9824TIP3    H153667   0.057  -0.010  12.513  0.2519  0.7664  1.3409
 9824TIP3    H253668   0.182  -0.078  12.462 -0.2565 -0.2945  1.4853
 9825TIP3   OH253669   5.900   2.704  11.999 -0.1752  0.0925 -0.0900
 9825TIP3    H153670   5.868   2.617  12.025  0.5520 -0.6059 -1.4153
 9825TIP3    H253671   5.994   2.701  12.016 -0.0778  0.4622 -0.5662
 9826TIP3   OH253672   2.121   4.083   9.949 -0.2865 -0.2306  0.3605
 9826TIP3    H153673   2.143   3.998   9.988  1.7844 -0.3243 -0.8671
 9826TIP3    H253674   2.134   4.146  10.020 -2.8610 -0.9442  1.6014
 9827TIP3   OH253675   1.959   2.551  11.731 -0.3067  0.2989  0.2264
 9827TIP3    H153676   1.938   2.458  11.722  0.1304  0.2397 -0.2325
 9827TIP3    H253677   1.920   2.591  11.653 -0.2275  0.4521  0.2664
 9828TIP3   OH253678   6.549   2.587  11.128  0.5229  0.5436  0.1745
 9828TIP3    H153679   6.534   2.493  11.116  1.5535  0.4370 -0.4111
 9828TIP3    H253680   6.462   2.623  11.149 -0.2702 -0.2442 -1.5556
 9829TIP3   OH253681   4.139   1.981   9.785 -0.1269  0.0884  0.5235
 9829TIP3    H153682   4.048   1.969   9.812  0.0057 -2.0346  0.2157
 9829TIP3    H253683   4.152   1.917   9.715  1.4649  0.7134  0.1996
 9830TIP3   OH253684   5.310   1.686  10.984 -0.3345 -0.4078  0.0776
 9830TIP3    H153685   5.235   1.696  11.042 -0.6523 -0.8557 -0.2479
 9830TIP3    H253686   5.335   1.775  10.961  1.1263 -0.1058  2.5467
 9831TIP3   OH253687   2.862   3.147   9.876 -1.2285 -0.0325 -0.0996
 9831TIP3    H153688   2.829   3.188   9.956 -0.0170  1.4980 -0.3485
 9831TIP3    H253689   2.894   3.220   9.823  1.5379 -1.2858 -0.3245
 9832TIP3   OH253690   1.093   0.332  10.448 -0.1849 -0.0643 -0.0960
 9832TIP3    H153691   1.151   0.353  10.375  0.0148 -1.2388 -0.2985
 9832TIP3    H253692   1.123   0.389  10.519  2.8243 -2.1994  0.5440
 9833TIP3   OH253693   0.148   6.211  10.858 -0.3270 -1.3152  0.1976
 9833TIP3    H153694   0.115   6.299  10.839 -1.5087 -1.4505  1.4873
 9833TIP3    H253695   0.124   6.159  10.781  0.8986 -0.4279 -0.8389
 9834TIP3   OH253696   1.005   6.217  13.426 -0.3219 -0.5211 -0.0774
 9834TIP3    H153697   0.927   6.162  13.424 -2.3748  2.1833 -0.3021
 9834TIP3    H253698   1.019   6.242  13.335  0.5648 -0.6335  0.0208
 9835TIP3   OH253699   4.110   4.611   9.945  0.0807  0.1892  0.3505
 9835TIP3    H153700   4.133   4.534   9.893 -0.8692  0.3865 -0.3899
 9835TIP3    H253701   4.171   4.679   9.917 -0.6298  0.3925 -0.7963
 9836TIP3   OH253702   2.504   5.511  11.221 -0.4829  0.0161  0.2033
 9836TIP3    H153703   2.571   5.545  11.279 -0.1173 -0.5424  0.1222
 9836TIP3    H253704   2.440   5.469  11.279 -1.2101  1.2760  0.3411
 9837TIP3   OH253705   5.635   5.565  12.882  0.3084 -0.3024 -0.2818
 9837TIP3    H153706   5.658   5.622  12.809 -0.6586 -1.8541 -1.8906
 9837TIP3    H253707   5.604   5.624  12.950  1.7810  1.2388 -0.8702
 9838TIP3   OH253708   0.420   4.879  11.285 -0.0867 -0.4487  0.2304
 9838TIP3    H153709   0.467   4.962  11.292 -2.3699  0.9018  0.6683
 9838TIP3    H253710   0.405   4.867  11.191 -1.5165  0.7547  0.2702
 9839TIP3   OH253711   6.574   4.201  10.445 -0.7109  0.1546 -0.0695
 9839TIP3    H153712   6.552   4.294  10.440  0.1240  0.2939 -1.4564
 9839TIP3    H253713   6.634   4.186  10.372  0.1241 -1.2195  0.8486
 9840TIP3   OH253714   2.081   5.985  11.027 -0.5407 -0.3636 -0.3484
 9840TIP3    H153715   2.047   6.015  10.943 -1.1836 -2.6299 -0.9605
 9840TIP3    H253716   2.029   5.908  11.048  2.2818 -2.3319  0.0436
 9841TIP3   OH253717   3.306   5.585  10.441  0.2803  0.0166 -0.4169
 9841TIP3    H153718   3.240   5.653  10.454 -0.0958 -0.8073  3.0339
 9841TIP3    H253719   3.389   5.632  10.434 -0.1230  0.9007  0.4932
 9842TIP3   OH253720   0.257   5.455  12.392 -0.7879  0.4224 -0.4769
 9842TIP3    H153721   0.193   5.444  12.321 -1.2001  0.1604 -0.0729
 9842TIP3    H253722   0.325   5.511  12.355 -0.3503 -0.7301 -1.4891
 9843TIP3   OH253723   3.189   2.154   9.518  0.2868  0.1121 -0.3387
 9843TIP3    H153724   3.236   2.202   9.587  2.2668 -1.7980 -0.2702
 9843TIP3    H253725   3.106   2.202   9.509  1.8644  3.2285  0.0609
 9844TIP3   OH253726   2.943   3.426  11.778  0.0714  0.2257  0.0353
 9844TIP3    H153727   2.969   3.463  11.862  2.0680  0.1600 -0.5035
 9844TIP3    H253728   2.868   3.478  11.750 -1.4122 -0.5032  2.3658
 9845TIP3   OH253729   2.127   2.432  10.871  0.1552 -0.4895 -0.4339
 9845TIP3    H153730   2.105   2.380  10.793  0.9263  0.2887 -1.1995
 9845TIP3    H253731   2.153   2.368  10.937  0.4299 -1.1168 -1.1375
 9846TIP3   OH253732   1.146   5.182  12.450 -0.1727  0.0724  0.3951
 9846TIP3    H153733   1.105   5.268  12.441 -0.7251 -0.0783  1.3257
 9846TIP3    H253734   1.078   5.120  12.425  0.0213 -0.1174  0.3318
 9847TIP3   OH253735   3.357   0.854  11.005  0.1128  0.4096  0.2380
 9847TIP3    H153736   3.335   0.947  11.010 -3.3897 -0.0120 -2.9541
 9847TIP3    H253737   3.442   0.851  10.960 -0.0406  2.0488 -0.2132
 9848TIP3   OH253738   1.834   2.356  11.368  0.1241  0.5081  0.1521
 9848TIP3    H153739   1.885   2.283  11.402  2.7285  1.2855 -1.7728
 9848TIP3    H253740   1.781   2.317  11.298  0.1351  0.1518  0.3387
 9849TIP3   OH253741   0.538   2.185   9.343  0.1270 -0.5532  0.4033
 9849TIP3    H153742   0.578   2.133   9.413 -1.3726 -0.2744  1.5172
 9849TIP3    H253743   0.448   2.199   9.372  0.4941  2.8487  0.2725
 9850TIP3   OH253744   3.944   0.916  11.075  0.6776 -0.1614  0.1788
 9850TIP3    H153745   3.917   0.934  11.164  0.5478 -1.5411  0.4474
 9850TIP3    H253746   3.999   0.838  11.082 -0.6164 -1.2488 -1.0985
 9851TIP3   OH253747   3.837   4.327  11.220  0.1643 -0.4281 -0.5030
 9851TIP3    H153748   3.866   4.263  11.156 -1.1249 -0.3191 -1.2419
 9851TIP3    H253749   3.743   4.311  11.230  0.2401 -0.1224  1.0044
 9852TIP3   OH253750   2.683   2.306   9.362 -0.2124 -0.2767  0.0720
 9852TIP3    H153751   2.597   2.332   9.395 -0.8156 -1.8239 -0.1970
 9852TIP3    H253752   2.669   2.291   9.269  0.7650  1.1077 -0.3165
 9853TIP3   OH253753   3.351   0.145   9.950 -0.0704  0.5756 -0.2482
 9853TIP3    H153754   3.434   0.179   9.983 -0.3347  0.3955  0.6216
 9853TIP3    H253755   3.354   0.051   9.970 -0.7066  0.6610  0.2796
 9854TIP3   OH253756   3.847   0.084  12.487  0.2399  0.7017  0.2534
 9854TIP3    H153757   3.785   0.143  12.530  1.6845  1.3163  1.6296
 9854TIP3    H253758   3.921   0.141  12.464 -0.1336  0.2375 -2.4539
 9855TIP3   OH253759   0.037   5.972  12.429  0.1361 -0.2560 -0.2132
 9855TIP3    H153760   0.076   6.002  12.347 -0.7867  0.2558 -0.4791
 9855TIP3    H253761   0.001   5.886  12.408 -3.0671  1.2255 -1.3482
 9856TIP3   OH253762   1.040   5.197   9.653 -0.3108  0.1815  0.2754
 9856TIP3    H153763   1.084   5.114   9.672  0.0749  0.3124 -0.0508
 9856TIP3    H253764   0.954   5.187   9.694 -1.1818 -1.3021 -1.7506
 9857TIP3   OH253765   5.892   2.067   9.777 -0.3825  0.2965 -0.7129
 9857TIP3    H153766   5.878   2.160   9.791 -0.9145 -0.1217  2.0442
 9857TIP3    H253767   5.970   2.046   9.828 -0.2181 -0.7782 -1.3631
 9858TIP3   OH253768   6.612   4.598  11.128  0.0043  0.6676 -0.6381
 9858TIP3    H153769   6.600   4.606  11.033  3.3574 -0.8207 -1.3469
 9858TIP3    H253770   6.598   4.505  11.146 -1.7218  1.1222  0.6071
 9859TIP3   OH253771   3.918   2.690  11.887  0.1603  0.1952  0.5871
 9859TIP3    H153772   3.978   2.740  11.832 -0.5141 -0.1339 -0.4597
 9859TIP3    H253773   3.930   2.599  11.859 -1.3429  0.2004 -0.1383
 9860TIP3   OH253774   3.804   1.014  11.332 -0.0923 -0.3340 -0.2182
 9860TIP3    H153775   3.842   1.043  11.415  0.5142  0.7544 -0.8551
 9860TIP3    H253776   3.806   1.092  11.276 -1.3627 -0.8025 -0.9534
 9861TIP3   OH253777   2.742   0.088  11.541 -0.1851  0.3005  0.0778
 9861TIP3    H153778   2.700   0.158  11.491 -0.0918  0.5577  0.3561
 9861TIP3    H253779   2.699   0.091  11.626 -0.5655 -0.3424 -0.0851
 9862TIP3   OH253780   1.125   6.147  12.124 -0.0143  0.0889  0.5708
 9862TIP3    H153781   1.211   6.118  12.155 -0.1903  0.1665  1.1496
 9862TIP3    H253782   1.144   6.198  12.046  0.5221  0.5825  1.0123
 9863TIP3   OH253783   5.180   5.906   9.820 -0.2350 -0.1008  0.0385
 9863TIP3    H153784   5.118   5.944   9.757 -0.1300 -1.1287 -0.7039
 9863TIP3    H253785   5.211   5.981   9.871 -1.7564  0.4929  0.1372
 9864TIP3   OH253786   3.348   3.082  12.706  0.1860  0.3113  0.2771
 9864TIP3    H153787   3.317   3.146  12.642 -0.5763 -0.2313  0.0848
 9864TIP3    H253788   3.412   3.029  12.659 -0.1099  0.1398  0.0683
 9865TIP3   OH253789   2.935   1.232   9.930  0.0839  0.0134  0.6696
 9865TIP3    H153790   2.978   1.181   9.861 -0.3774  0.4964  0.0204
 9865TIP3    H253791   2.989   1.216  10.008 -1.0615 -2.9572  0.9890
 9866TIP3   OH253792   2.714   3.589  11.095  0.3164 -0.9438 -0.4876
 9866TIP3    H153793   2.631   3.568  11.051 -0.4769 -0.1502  0.5655
 9866TIP3    H253794   2.728   3.515  11.155 -1.0778  0.1137  1.2726
 9867TIP3   OH253795   0.060   0.486  10.684 -0.4783 -0.0263  0.2958
 9867TIP3    H153796   0.092   0.450  10.601  0.7723  1.4295  0.0924
 9867TIP3    H253797   0.011   0.564  10.659  1.8955  1.7968  0.9624
 9868TIP3   OH253798   2.762   5.605  11.066  0.4260  0.0666 -0.3891
 9868TIP3    H153799   2.793   5.514  11.063  0.5336  0.0954 -0.1866
 9868TIP3    H253800   2.760   5.626  11.159  2.0027  0.8149 -0.4896
 9869TIP3   OH253801   1.858   0.335   9.789 -0.2197  0.6349  0.1314
 9869TIP3    H153802   1.831   0.414   9.742  1.4974  1.2948  0.1500
 9869TIP3    H253803   1.935   0.363   9.838  0.7618 -1.1863 -0.2875
 9870TIP3   OH253804   0.495   5.088   9.761 -0.4424 -0.1695 -0.1622
 9870TIP3    H153805   0.421   5.103   9.820 -1.1199  0.1919 -1.0869
 9870TIP3    H253806   0.540   5.173   9.758 -0.1517 -0.3091  0.1705
 9871TIP3   OH253807   4.968   4.045  12.460  0.0769 -0.3037  0.0321
 9871TIP3    H153808   4.892   4.091  12.497 -0.7248 -1.8004  0.3427
 9871TIP3    H253809   4.951   4.043  12.366  1.1101  1.7298 -0.2414
 9872TIP3   OH253810   0.308   4.216  13.191  0.0976  0.2481 -0.2926
 9872TIP3    H153811   0.334   4.140  13.242 -1.6130  0.4651  1.0256
 9872TIP3    H253812   0.352   4.206  13.107  0.8689 -1.5469  0.2862
 9873TIP3   OH253813   3.579   6.022  12.695  0.0316 -0.0581  0.2949
 9873TIP3    H153814   3.578   6.030  12.600 -0.7469  0.3150  0.3309
 9873TIP3    H253815   3.520   6.090  12.726  0.9857  0.4361  1.1010
 9874TIP3   OH253816   1.079   1.155   9.990 -0.0475 -0.0931 -0.3173
 9874TIP3    H153817   1.045   1.066   9.976  0.8612 -0.3030 -1.3065
 9874TIP3    H253818   1.169   1.151   9.959  0.2155  1.0059  0.2781
 9875TIP3   OH253819   2.780   3.532   9.690 -0.0815  0.4911  0.4152
 9875TIP3    H153820   2.795   3.545   9.596  0.4982 -0.5781  0.3351
 9875TIP3    H253821   2.685   3.540   9.701 -0.3100 -0.6265 -0.5007
 9876TIP3   OH253822   5.683   5.293  10.134  0.2344 -0.5182 -0.2894
 9876TIP3    H153823   5.701   5.251  10.050  4.3283  0.8464 -0.3406
 9876TIP3    H253824   5.761   5.345  10.152 -1.8501  1.9705  2.7983
 9877TIP3   OH253825   2.565   4.696  10.560  0.2598  0.7027  0.5399
 9877TIP3    H153826   2.568   4.786  10.526  2.2579  0.5524  0.1633
 9877TIP3    H253827   2.654   4.680  10.591  0.0780 -1.3244  0.1320
 9878TIP3   OH253828   6.499   4.952  10.376  0.2866 -0.0102 -0.3476
 9878TIP3    H153829   6.543   4.919  10.455 -0.7922 -2.1593 -0.5771
 9878TIP3    H253830   6.571   4.977  10.318  1.1174  0.6978  0.9227
 9879TIP3   OH253831   0.030   3.988  10.038 -0.3289 -0.1756  0.1525
 9879TIP3    H153832  -0.014   3.914  10.078  1.2049 -0.9028  0.5742
 9879TIP3    H253833   0.001   4.064  10.089  0.1827 -0.8569  1.4912
 9880TIP3   OH253834   4.862   2.102   9.981 -0.3158 -0.2267 -0.7597
 9880TIP3    H153835   4.783   2.063   9.945  0.1646  0.6284 -2.8876
 9880TIP3    H253836   4.933   2.059   9.934  0.5949 -1.4382  1.5643
 9881TIP3   OH253837   5.107   0.926  13.033 -0.0126 -0.2057  0.0220
 9881TIP3    H153838   5.110   0.867  13.108  1.0182 -0.7868 -0.4600
 9881TIP3    H253839   5.069   0.873  12.963 -1.4520  0.4861  0.2429
 9882TIP3   OH253840   5.107   1.083  10.020  0.7504 -0.1423  0.3635
 9882TIP3    H153841   5.084   1.019   9.953  0.2428  0.1957  0.2032
 9882TIP3    H253842   5.036   1.077  10.085 -0.1916  1.3672 -0.4564
 9883TIP3   OH253843   5.180   6.356  12.855 -0.3861 -0.1237 -0.0427
 9883TIP3    H153844   5.174   6.261  12.867  0.2844 -0.0767  0.8309
 9883TIP3    H253845   5.208   6.389  12.941  1.3197  0.6490 -0.8427
 9884TIP3   OH253846   6.103   1.391  10.918 -0.1231 -0.1036 -0.2656
 9884TIP3    H153847   6.060   1.416  11.000  1.9581 -1.2127  1.2645
 9884TIP3    H253848   6.042   1.330  10.877 -0.3991 -1.0273  1.4273
 9885TIP3   OH253849   5.494   6.268  12.386  0.0783 -0.1929  0.4517
 9885TIP3    H153850   5.419   6.271  12.327 -0.6827 -0.7615  1.3586
 9885TIP3    H253851   5.479   6.190  12.439  0.3444  0.7106  1.9059
 9886TIP3   OH253852   0.630   2.222  13.152  0.2498  0.0045  0.5470
 9886TIP3    H153853   0.562   2.193  13.212 -1.4729 -1.0454 -1.7780
 9886TIP3    H253854   0.587   2.288  13.097  0.8559 -1.1310 -1.3851
 9887TIP3   OH253855   5.457   2.409  11.531  0.6392  0.1557 -0.4335
 9887TIP3    H153856   5.523   2.340  11.526  0.8366  0.3286 -0.2408
 9887TIP3    H253857   5.391   2.374  11.591  1.8898  1.0589  1.5988
 9888TIP3   OH253858   3.967   4.025  12.124  0.4077  0.0584  0.8312
 9888TIP3    H153859   3.950   3.977  12.043  0.5007  1.2881  0.0483
 9888TIP3    H253860   3.979   3.958  12.190  2.0295 -1.0625 -0.5010
 9889TIP3   OH253861   3.823   0.553   9.367  0.2835  0.1545  0.2982
 9889TIP3    H153862   3.791   0.620   9.306 -0.9341  0.3906  1.1513
 9889TIP3    H253863   3.902   0.591   9.406 -0.0808  0.8692  0.3602
 9890TIP3   OH253864   0.020   2.372  11.395 -0.3333  0.4341 -0.2660
 9890TIP3    H153865   0.010   2.281  11.423  2.7267  0.0426 -0.2100
 9890TIP3    H253866   0.026   2.422  11.476 -1.2948  0.6504 -0.3052
 9891TIP3   OH253867   1.524   5.209  11.681 -0.1803 -0.0224  0.3225
 9891TIP3    H153868   1.524   5.295  11.725 -1.7146 -0.3948  1.1210
 9891TIP3    H253869   1.516   5.229  11.588  1.3957  0.7353  0.3111
 9892TIP3   OH253870   2.089   1.514  10.666  0.0961  0.2946  0.4924
 9892TIP3    H153871   2.084   1.594  10.719  1.4239 -0.0198  1.1267
 9892TIP3    H253872   2.163   1.530  10.606  0.5929 -0.5741  0.8533
 9893TIP3   OH253873   0.437   6.522  12.033  0.2339  0.3738 -0.4550
 9893TIP3    H153874   0.409   6.611  12.054  2.4802  1.2089 -0.7683
 9893TIP3    H253875   0.502   6.500  12.100 -0.9664 -1.4671  0.2165
 9894TIP3   OH253876   2.623   1.702  11.008 -0.4491 -0.3131  0.1542
 9894TIP3    H153877   2.691   1.656  10.958  1.8619  1.0449  1.8219
 9894TIP3    H253878   2.606   1.645  11.083  0.0144  0.0120  0.5189
 9895TIP3   OH253879   3.297   0.421   9.938  0.1505  0.6910 -0.7352
 9895TIP3    H153880   3.335   0.342   9.900 -0.2504  0.5728 -0.8983
 9895TIP3    H253881   3.261   0.469   9.863 -3.3599 -0.9776 -0.3164
 9896TIP3   OH253882   0.126   0.264  10.409  0.2527  0.9756 -0.6661
 9896TIP3    H153883   0.166   0.234  10.491 -3.0428 -2.9501 -0.1641
 9896TIP3    H253884   0.183   0.230  10.340  0.1719 -0.7300  0.0451
 9897TIP3   OH253885   6.419   2.174  11.165  0.0563  0.3467  0.1614
 9897TIP3    H153886   6.512   2.148  11.163 -0.1333 -0.5255  1.3613
 9897TIP3    H253887   6.385   2.147  11.080  0.7325 -0.0119 -0.0089
 9898TIP3   OH253888   4.462   0.529  10.774  0.2129  0.4531  0.3492
 9898TIP3    H153889   4.421   0.612  10.798 -3.2003 -1.1745  0.6408
 9898TIP3    H253890   4.498   0.495  10.856 -1.8165 -0.0887  1.0598
 9899TIP3   OH253891   5.392   4.225  11.204  0.1425  0.2188  0.4494
 9899TIP3    H153892   5.386   4.139  11.246  0.9350  0.7234  1.6381
 9899TIP3    H253893   5.484   4.249  11.212 -0.1667  1.4071  0.5741
 9900TIP3   OH253894   6.119   0.997   9.963  0.0000 -0.0816 -0.2914
 9900TIP3    H153895   6.086   0.947   9.888 -0.3765  0.7551 -0.6993
 9900TIP3    H253896   6.112   1.088   9.935  1.5198  0.1756  0.0915
 9901TIP3   OH253897   5.362   1.191  10.539 -0.5132  0.0622  0.2475
 9901TIP3    H153898   5.328   1.123  10.597 -0.0983 -0.3916 -0.0288
 9901TIP3    H253899   5.290   1.211  10.479 -1.5527  1.7594  1.9457
 9902TIP3   OH253900   6.065   6.230  12.976 -0.3562 -1.1483  0.0493
 9902TIP3    H153901   6.114   6.195  12.902  1.4752  1.8657 -0.3186
 9902TIP3    H253902   5.986   6.268  12.937  0.6122  0.4476 -0.4128
 9903TIP3   OH253903   5.176   5.815  10.822 -0.0857  0.6261  0.1451
 9903TIP3    H153904   5.162   5.860  10.739  1.3200 -1.6307 -1.4103
 9903TIP3    H253905   5.162   5.723  10.802  3.8369 -0.4295  1.4575
 9904TIP3   OH253906   2.125   3.028  12.594  0.0574 -0.0977 -0.2251
 9904TIP3    H153907   2.049   3.061  12.546 -1.2689  0.2971  2.0461
 9904TIP3    H253908   2.114   2.933  12.593 -0.3486 -0.0537 -0.1039
 9905TIP3   OH253909   0.105   4.844  12.114 -0.0317 -0.8518 -0.4374
 9905TIP3    H153910   0.017   4.862  12.082  0.4376  1.4623 -0.6446
 9905TIP3    H253911   0.150   4.802  12.041  0.0107  1.1648 -1.6405
 9906TIP3   OH253912   0.817   5.181   9.892 -0.2044  0.2227 -0.1227
 9906TIP3    H153913   0.728   5.160   9.922 -0.2892 -0.9816 -1.1160
 9906TIP3    H253914   0.850   5.244   9.956 -1.7200  0.5826  0.3442
 9907TIP3   OH253915   3.122   3.328  10.238  0.3682 -0.0136 -0.2795
 9907TIP3    H153916   3.211   3.322  10.271  0.9457  0.7176 -1.6238
 9907TIP3    H253917   3.130   3.315  10.143 -0.9953 -0.2604 -0.3868
 9908TIP3   OH253918   3.506   4.914  10.461  0.1445  0.1706  0.2459
 9908TIP3    H153919   3.557   4.993  10.478  0.0746  0.2748 -0.0133
 9908TIP3    H253920   3.559   4.843  10.496 -0.0998  0.3923  1.0961
 9909TIP3   OH253921   5.443   6.610  10.111  0.7699 -0.0793  0.0122
 9909TIP3    H153922   5.428   6.547  10.040 -1.3708 -1.8016  1.8586
 9909TIP3    H253923   5.392   6.687  10.085 -0.4980 -0.9221 -0.0970
 9910TIP3   OH253924   1.703   4.214  11.251  0.5361 -0.3227  0.3032
 9910TIP3    H153925   1.653   4.179  11.325  0.3781 -1.8087 -0.4672
 9910TIP3    H253926   1.657   4.295  11.227  1.2219  0.7916  2.4693
 9911TIP3   OH253927   1.549   4.255  10.441  0.4328  0.1205 -0.1928
 9911TIP3    H153928   1.500   4.326  10.400 -0.1330  0.5414  1.1866
 9911TIP3    H253929   1.520   4.176  10.395 -2.7588  0.1346  1.5736
 9912TIP3   OH253930   1.408   3.823  10.289  0.9100  0.6864  0.3040
 9912TIP3    H153931   1.434   3.830  10.381  1.2668  1.0165  0.1812
 9912TIP3    H253932   1.397   3.914  10.260  3.2370  0.7405 -0.6624
 9913TIP3   OH253933   0.957   2.075  11.734 -0.0127  0.0483  0.1778
 9913TIP3    H153934   0.948   2.163  11.769  0.4612 -0.4126  1.5238
 9913TIP3    H253935   1.051   2.065  11.716 -0.1378 -0.0035 -0.4720
 9914TIP3   OH253936   5.684   2.741  10.771  0.1256 -0.2794 -0.7569
 9914TIP3    H153937   5.624   2.682  10.817 -2.3846  1.0586 -2.0837
 9914TIP3    H253938   5.770   2.723  10.809 -0.8686 -3.1951  0.3954
 9915TIP3   OH253939   6.579   2.786  12.057 -0.1548  0.3890 -0.2547
 9915TIP3    H153940   6.648   2.788  11.991  0.5205 -0.9459  0.3709
 9915TIP3    H253941   6.500   2.762  12.008  0.6769 -2.4018 -0.3749
 9916TIP3   OH253942   2.081   0.496  10.224  0.3844 -0.3828  0.1590
 9916TIP3    H153943   2.140   0.476  10.296 -0.7136 -1.4275  0.8005
 9916TIP3    H253944   1.995   0.507  10.265  0.3491  2.8665 -0.5239
 9917TIP3   OH253945   3.242   2.583  12.047  0.3324  0.0444  0.0286
 9917TIP3    H153946   3.265   2.659  11.994 -0.8445 -0.3534 -1.0851
 9917TIP3    H253947   3.273   2.508  11.997  0.6895 -0.2697  0.7027
 9918TIP3   OH253948   5.450   5.121  12.366 -0.0588 -0.4432 -0.1043
 9918TIP3    H153949   5.424   5.186  12.432  1.7941  0.7976 -0.5177
 9918TIP3    H253950   5.500   5.171  12.302 -1.7025 -1.6291 -2.4640
 9919TIP3   OH253951   2.110   2.616   9.642 -0.3939  0.2030  0.1183
 9919TIP3    H153952   2.037   2.572   9.684 -1.2453  1.2797 -0.1708
 9919TIP3    H253953   2.139   2.681   9.706  1.1230 -0.9950  0.7127
 9920TIP3   OH253954   4.619   2.097  11.616  0.3011  0.5711  0.3373
 9920TIP3    H153955   4.559   2.025  11.631  0.0975  0.5623 -0.4521
 9920TIP3    H253956   4.700   2.055  11.586  0.1905  0.6663 -0.0987
 9921TIP3   OH253957   2.869   4.137  13.079 -0.3743  0.1916 -0.4998
 9921TIP3    H153958   2.824   4.138  13.164  0.7983  0.0625  0.1416
 9921TIP3    H253959   2.809   4.183  13.020 -1.2303  0.2430  0.3838
 9922TIP3   OH253960   5.019   5.735  11.895 -0.0962 -0.1307  0.0906
 9922TIP3    H153961   4.983   5.820  11.871  2.4586  0.6865 -1.2261
 9922TIP3    H253962   4.978   5.674  11.834 -0.1352  0.5555 -0.5868
 9923TIP3   OH253963   4.707   0.919   9.816  0.1514  0.2036 -0.1644
 9923TIP3    H153964   4.786   0.939   9.867 -0.4942  1.5332  0.3626
 9923TIP3    H253965   4.741   0.888   9.732  1.2259 -0.7070  0.5790
 9924TIP3   OH253966   4.411   0.046  11.916 -0.4048  0.5496 -0.1058
 9924TIP3    H153967   4.384   0.117  11.974 -1.6993 -0.2931  0.3614
 9924TIP3    H253968   4.504   0.062  11.901 -0.6881  2.4360 -0.1616
 9925TIP3   OH253969   4.126   2.092  10.788 -0.2445  0.3497  0.0766
 9925TIP3    H153970   4.159   2.142  10.863  1.7607  0.6779 -0.9660
 9925TIP3    H253971   4.129   2.153  10.715  0.5879 -0.7793 -0.8655
 9926TIP3   OH253972   2.984   5.530  10.031  0.2570 -0.1624 -0.0704
 9926TIP3    H153973   3.072   5.513   9.998  0.7574 -2.5723  2.1653
 9926TIP3    H253974   2.997   5.582  10.110 -0.4483  0.4372 -0.3325
 9927TIP3   OH253975   1.910   5.455   9.849  0.2879 -0.1554  0.3606
 9927TIP3    H153976   1.984   5.398   9.833 -0.1976 -0.2066 -2.0818
 9927TIP3    H253977   1.924   5.530   9.792 -1.7732 -0.4384 -0.6377
 9928TIP3   OH253978   2.800   5.096  11.153  0.2010 -0.2126 -0.5181
 9928TIP3    H153979   2.870   5.039  11.121  0.8475 -0.2330  0.8805
 9928TIP3    H253980   2.741   5.106  11.078  0.5843 -1.9163 -1.0843
 9929TIP3   OH253981   4.091   4.251  12.034  0.6587 -0.0920  0.3673
 9929TIP3    H153982   4.106   4.202  11.953 -0.6638 -2.6921  1.5340
 9929TIP3    H253983   4.040   4.190  12.088  0.7909  1.8525  2.8330
 9930TIP3   OH253984   1.200   0.176  10.777 -0.5819  0.1906 -0.2542
 9930TIP3    H153985   1.266   0.234  10.738 -0.3271  0.0955  0.0337
 9930TIP3    H253986   1.231   0.161  10.866 -2.2808  2.1803  0.7545
 9931TIP3   OH253987   5.083   5.770   9.557  0.0755 -0.4041  0.0448
 9931TIP3    H153988   5.056   5.800   9.644  1.1847  0.4203  0.1234
 9931TIP3    H253989   5.001   5.768   9.507 -0.3972  0.4013  0.7417
 9932TIP3   OH253990   3.411   3.377   9.968 -0.3739  0.6216  0.2328
 9932TIP3    H153991   3.449   3.290   9.981  0.9155  0.8369 -1.7255
 9932TIP3    H253992   3.483   3.430   9.936 -1.6754  1.8056 -0.8803
 9933TIP3   OH253993   5.314   1.905  11.211 -0.9341  0.2804  0.0621
 9933TIP3    H153994   5.323   1.972  11.143 -1.7726  0.1136 -0.2278
 9933TIP3    H253995   5.400   1.863  11.214 -0.5041  1.1280  0.0061
 9934TIP3   OH253996   6.446   0.814   9.656 -0.3699 -0.0755  0.4316
 9934TIP3    H153997   6.402   0.777   9.733 -1.1359 -0.7864 -0.3182
 9934TIP3    H253998   6.411   0.903   9.649  0.1470  0.1971  1.2370
 9935TIP3   OH253999   5.257   1.363  10.029  0.6651  0.3660 -0.0506
 9935TIP3    H154000   5.209   1.300   9.975 -0.9951  1.5927 -0.0741
 9935TIP3    H254001   5.315   1.407   9.967 -0.3295  0.8938 -0.6423
 9936TIP3   OH254002   4.164   5.481  10.878  0.0241 -0.5415  0.4375
 9936TIP3    H154003   4.129   5.398  10.910 -0.2418 -0.2157  1.0042
 9936TIP3    H254004   4.241   5.497  10.933 -1.0746  0.5845  1.7394
 9937TIP3   OH254005   4.365   5.551  11.555 -0.5878  0.4538  0.0017
 9937TIP3    H154006   4.347   5.465  11.519  3.2911 -0.7999  0.6253
 9937TIP3    H254007   4.360   5.610  11.480 -0.8162 -0.7236 -0.9405
 9938TIP3   OH254008   4.337   0.369  10.050 -0.0975  0.2045  0.0338
 9938TIP3    H154009   4.282   0.396   9.977  0.2369 -1.1233 -0.7307
 9938TIP3    H254010   4.426   0.381  10.019  0.1335  2.6163  1.3636
 9939TIP3   OH254011   0.877   0.056  10.136  0.0361  0.3526 -0.1283
 9939TIP3    H154012   0.878  -0.029  10.093  0.6520  0.1792  0.2142
 9939TIP3    H254013   0.949   0.052  10.199 -0.1722  0.9877  0.1611
 9940TIP3   OH254014   2.997   3.244  11.583  0.2311 -0.1645  0.5517
 9940TIP3    H154015   2.973   3.308  11.649 -0.3386  0.5133 -0.2820
 9940TIP3    H254016   3.053   3.181  11.629  0.3996  0.6558  1.5024
 9941TIP3   OH254017   4.484   2.377   9.698 -0.4157 -0.1480 -0.1579
 9941TIP3    H154018   4.416   2.383   9.631  0.4372  0.1409 -1.0329
 9941TIP3    H254019   4.483   2.463   9.742  0.1412  0.2853 -0.9570
 9942TIP3   OH254020   2.374   3.146  12.260 -0.2270  0.1366  0.1721
 9942TIP3    H154021   2.354   3.151  12.354  0.4231 -1.9526  0.4636
 9942TIP3    H254022   2.302   3.192  12.218 -0.7026  0.8360  1.6675
 9943TIP3   OH254023   0.313   0.132  13.232 -0.3901 -0.4266 -0.7619
 9943TIP3    H154024   0.232   0.093  13.200 -0.8969 -0.3901  0.4092
 9943TIP3    H254025   0.315   0.110  13.325  0.4420  0.4194 -0.5605
 9944TIP3   OH254026   1.394   6.048   9.984 -0.7276  0.1317  0.0468
 9944TIP3    H154027   1.482   6.085   9.981 -0.8262  0.3182 -0.8183
 9944TIP3    H254028   1.407   5.954   9.981 -0.5619  0.1617 -0.1964
 9945TIP3   OH254029   3.528   0.817   9.329  0.2672  0.9950 -0.8238
 9945TIP3    H154030   3.488   0.899   9.358  1.8578  1.3635  0.4163
 9945TIP3    H254031   3.541   0.829   9.235  1.1324  2.4722 -0.5493
 9946TIP3   OH254032   4.683   0.175  10.290  0.3607  0.3954  0.3823
 9946TIP3    H154033   4.675   0.177  10.385 -0.4570 -0.6430  0.3584
 9946TIP3    H254034   4.601   0.135  10.260  1.0208 -0.2131 -0.6866
 9947TIP3   OH254035   0.389   3.296  11.878 -0.1148 -0.9729 -0.2859
 9947TIP3    H154036   0.480   3.320  11.859  0.1592 -1.9505 -0.2323
 9947TIP3    H254037   0.337   3.363  11.833  0.6283 -0.3282 -0.2110
 9948TIP3   OH254038   2.827   5.045   9.708  0.5995  0.3213  0.0813
 9948TIP3    H154039   2.901   5.105   9.719  0.7941  0.1410 -0.2115
 9948TIP3    H254040   2.765   5.071   9.776 -0.3514  2.3943 -1.4444
 9949TIP3   OH254041   6.195   4.539   9.776  0.1961 -0.1282  0.5317
 9949TIP3    H154042   6.149   4.591   9.710  0.0544 -0.0148  0.7219
 9949TIP3    H254043   6.288   4.557   9.760  0.2184 -0.8874 -0.3005
 9950TIP3   OH254044   5.608   1.487   9.399  0.1599 -0.3589 -0.2162
 9950TIP3    H154045   5.636   1.573   9.368  0.6091 -0.3990  0.0781
 9950TIP3    H254046   5.668   1.426   9.358 -0.2032 -0.5441 -0.4801
 9951TIP3   OH254047   3.768   5.088   9.773  0.3161 -0.4050 -0.3702
 9951TIP3    H154048   3.792   5.180   9.785 -2.3834  0.1912  1.2390
 9951TIP3    H254049   3.769   5.076   9.678 -1.5006  2.0211 -0.8112
 9952TIP3   OH254050   0.655   2.175  10.460 -0.2949  0.1674 -0.2200
 9952TIP3    H154051   0.682   2.263  10.485 -1.3118  0.4775 -0.1864
 9952TIP3    H254052   0.732   2.139  10.416  1.3880 -0.1869  2.6949
 9953TIP3   OH254053   0.814   2.438  12.343 -0.5794 -0.0638 -0.1805
 9953TIP3    H154054   0.839   2.489  12.265  2.5687 -0.1639  0.6206
 9953TIP3    H254055   0.821   2.347  12.314  2.0736 -0.1576  0.4600
 9954TIP3   OH254056   4.531   4.455  12.555 -0.3956  0.0586  0.0518
 9954TIP3    H154057   4.530   4.443  12.460  1.7687 -0.2677  0.0271
 9954TIP3    H254058   4.530   4.366  12.591 -1.8586  0.1845  0.3806
 9955TIP3   OH254059   1.176   1.524  13.174 -0.0568 -0.1819 -0.2667
 9955TIP3    H154060   1.244   1.556  13.116  1.1023 -0.4282  0.9005
 9955TIP3    H254061   1.100   1.579  13.156  0.4759  0.1567 -1.5290
 9956TIP3   OH254062   6.539   5.274  10.268 -0.4843 -0.3025  0.4646
 9956TIP3    H154063   6.456   5.230  10.290 -0.6991 -0.2421 -0.1899
 9956TIP3    H254064   6.551   5.339  10.337 -0.2368 -1.2835  1.3744
 9957TIP3   OH254065   1.911   2.570   9.858  0.1280  0.7010 -0.7061
 9957TIP3    H154066   1.879   2.486   9.889  0.4253  0.7655 -0.2253
 9957TIP3    H254067   1.858   2.635   9.904  0.7444  0.8014 -0.1282
 9958TIP3   OH254068   2.689   3.549  10.343 -0.0714 -0.2041  0.5173
 9958TIP3    H154069   2.734   3.481  10.393  0.1945  0.3283  1.0154
 9958TIP3    H254070   2.718   3.537  10.253  1.1533  0.1860  0.8445
 9959TIP3   OH254071   5.436   4.039  10.746  0.2241  0.0189  0.2342
 9959TIP3    H154072   5.430   4.109  10.681 -1.1580 -0.8353 -0.6103
 9959TIP3    H254073   5.511   3.986  10.718 -1.6288 -1.6124 -2.0719
 9960TIP3   OH254074   1.332   2.868  10.420  0.1043  0.0052 -0.0054
 9960TIP3    H154075   1.255   2.812  10.412 -0.0406  0.3320 -1.0352
 9960TIP3    H254076   1.404   2.808  10.439 -0.1420 -0.4628 -0.5592
 9961TIP3   OH254077   1.925   1.898  10.787  0.9667  0.8826  0.9940
 9961TIP3    H154078   2.004   1.848  10.809 -0.4873 -1.8252  0.4534
 9961TIP3    H254079   1.868   1.887  10.863  0.4590  1.4121  0.6977
 9962TIP3   OH254080   4.589   3.279  10.889 -0.6719 -0.2069  0.1848
 9962TIP3    H154081   4.677   3.257  10.922 -0.1250  1.6967  0.1636
 9962TIP3    H254082   4.537   3.294  10.968 -0.7260 -0.4722  0.1991
 9963TIP3   OH254083   3.596   6.439  11.133  0.1959 -0.1433 -0.4318
 9963TIP3    H154084   3.605   6.451  11.228  0.4589 -1.0863 -0.3293
 9963TIP3    H254085   3.641   6.357  11.115  1.2493  0.6461 -1.5619
 9964TIP3   OH254086   1.330   2.158   9.320  0.3699 -0.2245 -0.6312
 9964TIP3    H154087   1.340   2.117   9.234 -0.7845  1.0717 -1.4246
 9964TIP3    H254088   1.385   2.236   9.317  0.8145 -0.5026  0.0410
 9965TIP3   OH254089   4.406   1.936  11.801  0.3942  0.2621 -0.2087
 9965TIP3    H154090   4.322   1.974  11.825  0.3000 -1.2919  2.4594
 9965TIP3    H254091   4.469   1.978  11.860  1.4667  1.0816 -1.8605
 9966TIP3   OH254092   1.197   0.908  10.276  0.2540 -0.5846 -0.2639
 9966TIP3    H154093   1.198   1.003  10.278 -2.0690 -0.5195  1.0764
 9966TIP3    H254094   1.289   0.883  10.262  0.8145  1.8111 -1.3569
 9967TIP3   OH254095   2.713   2.256  12.647  0.2592  0.2290 -0.2625
 9967TIP3    H154096   2.696   2.174  12.694 -0.9113 -0.5023 -1.8392
 9967TIP3    H254097   2.673   2.323  12.702  1.2404 -0.2274  1.0627
 9968TIP3   OH254098   2.885   5.094  11.871  0.3501  0.5369 -0.0837
 9968TIP3    H154099   2.866   5.040  11.794  0.3295  1.7021 -0.9382
 9968TIP3    H254100   2.811   5.080  11.930 -0.0068  0.1891 -0.6071
 9969TIP3   OH254101   0.109   1.183  12.805  0.2565 -0.0437 -0.0965
 9969TIP3    H154102   0.035   1.190  12.745 -0.1437 -1.3772  0.2016
 9969TIP3    H254103   0.070   1.185  12.892  0.8048  1.5442  0.1320
 9970TIP3   OH254104   4.909   3.801  12.822 -0.0188  0.0589 -0.2211
 9970TIP3    H154105   4.852   3.757  12.758 -1.2473 -1.4716  1.7901
 9970TIP3    H254106   4.850   3.860  12.870  0.0834 -1.2313  1.6081
 9971TIP3   OH254107   2.641   2.182  11.210 -0.2651  0.3218 -0.2017
 9971TIP3    H154108   2.685   2.101  11.184 -1.6856 -0.7024  0.4094
 9971TIP3    H254109   2.552   2.172  11.176 -0.3462  1.8747 -0.5462
 9972TIP3   OH254110   6.054   6.605  11.241  0.3058  0.1842  0.0861
 9972TIP3    H154111   5.998   6.575  11.169  1.6937  0.5872 -1.2133
 9972TIP3    H254112   6.083   6.692  11.214  1.2901  0.1250  0.8760
 9973TIP3   OH254113   3.008   0.311  10.896 -0.5454 -0.1959  0.1500
 9973TIP3    H154114   3.009   0.264  10.979 -0.6050 -0.4442  0.0130
 9973TIP3    H254115   2.918   0.340  10.885 -0.1989  1.2511  0.9526
 9974TIP3   OH254116   5.069   0.163  10.596 -0.1506 -0.2252 -0.0676
 9974TIP3    H154117   4.999   0.104  10.624 -2.0468  1.4877 -0.9363
 9974TIP3    H254118   5.082   0.223  10.671  2.3772 -2.1129  1.1617
 9975TIP3   OH254119   2.090   5.235  12.494 -0.6804 -0.1075 -0.1611
 9975TIP3    H154120   2.117   5.266  12.408 -0.7078  1.3513  0.3238
 9975TIP3    H254121   2.168   5.243  12.549 -1.0529  0.4854  0.3097
 9976TIP3   OH254122   1.388   4.736  10.673 -0.5766 -0.5195 -0.0288
 9976TIP3    H154123   1.334   4.658  10.684 -2.7932  0.8321 -0.5538
 9976TIP3    H254124   1.384   4.755  10.579  1.5157 -0.7928 -0.2230
 9977TIP3   OH254125   6.246   4.865  11.913  0.5476  0.5279 -0.2355
 9977TIP3    H154126   6.168   4.920  11.903 -0.3313 -0.8650 -1.2757
 9977TIP3    H254127   6.277   4.851  11.824  0.9237 -0.4387  0.0400
 9978TIP3   OH254128   5.961   4.196  11.081 -0.4390  0.2040 -0.1169
 9978TIP3    H154129   5.873   4.166  11.106 -0.7186 -0.7813 -2.1140
 9978TIP3    H254130   6.014   4.117  11.082  0.4566  0.7904  1.0433
 9979TIP3   OH254131   6.210   4.838  13.747 -0.4332  0.5878  0.0980
 9979TIP3    H154132   6.141   4.867  13.688  2.3295 -0.1035 -3.8763
 9979TIP3    H254133   6.197   4.744  13.755  0.7969  0.1978 -1.9281
 9980TIP3   OH254134   1.197   2.914  13.203  0.6908  0.1273  0.0693
 9980TIP3    H154135   1.121   2.858  13.189  1.0099 -0.2791 -0.0637
 9980TIP3    H254136   1.258   2.859  13.252  0.9862  0.3735 -0.0219
 9981TIP3   OH254137   5.041   2.669  11.298 -0.0858 -0.0702 -0.0275
 9981TIP3    H154138   5.098   2.636  11.229  0.1677  1.2304 -0.4798
 9981TIP3    H254139   4.975   2.722  11.252 -0.2953  0.2952  0.6705
 9982TIP3   OH254140   1.859   3.942  11.102 -0.8326  0.0050  0.1081
 9982TIP3    H154141   1.847   4.020  11.155  0.5806  0.5439 -0.3211
 9982TIP3    H254142   1.919   3.887  11.153 -2.1818 -1.0430  0.6274
 9983TIP3   OH254143   2.042   1.268  10.025  0.0686  0.5405 -0.2048
 9983TIP3    H154144   2.070   1.185  10.063  1.1165  1.1795  0.4557
 9983TIP3    H254145   2.120   1.304   9.983 -0.2177  1.4380 -0.0099
 9984TIP3   OH254146   3.862   4.447  10.169 -0.0274 -0.0305 -0.1966
 9984TIP3    H154147   3.876   4.445  10.075 -1.3654  2.4090 -0.5223
 9984TIP3    H254148   3.946   4.420  10.206  0.8464 -0.0538 -2.0750
 9985TIP3   OH254149   4.817   6.592  10.062 -0.2554  0.0945  0.2441
 9985TIP3    H154150   4.733   6.570  10.102 -0.0731 -2.8817 -0.7648
 9985TIP3    H254151   4.807   6.569   9.970  1.5645 -0.0734  0.0511
 9986TIP3   OH254152   2.463   5.892  10.163 -0.6809  0.1713 -0.1524
 9986TIP3    H154153   2.534   5.912  10.224  0.3980 -1.3750 -0.8423
 9986TIP3    H254154   2.439   5.977  10.126  0.3645  0.8063  0.5650
 9987TIP3   OH254155   0.795   1.569  10.025  0.8331 -0.2079 -0.0035
 9987TIP3    H154156   0.750   1.486  10.012 -0.6483  0.0837  2.5679
 9987TIP3    H254157   0.881   1.545  10.059  1.6596 -0.7095 -2.3280
 9988TIP3   OH254158   1.515   0.176  10.838  0.6025 -0.1179 -0.7762
 9988TIP3    H154159   1.521   0.231  10.760 -0.2504  0.8655 -0.1695
 9988TIP3    H254160   1.511   0.238  10.911  4.2539 -0.9434  0.3709
 9989TIP3   OH254161   2.547   5.980  12.158 -0.3019 -0.0257  0.0497
 9989TIP3    H154162   2.493   5.969  12.079 -0.9778 -2.5719  0.7527
 9989TIP3    H254163   2.597   6.060  12.142 -1.0752  0.0447 -2.5529
 9990TIP3   OH254164   5.679   0.146  12.725 -0.3216 -0.3016  0.1216
 9990TIP3    H154165   5.614   0.081  12.751 -0.5241  0.2846  1.1049
 9990TIP3    H254166   5.638   0.231  12.743 -0.5036  0.1777 -2.1841
 9991TIP3   OH254167   2.776   1.796  10.049 -0.0999 -0.5927 -0.0833
 9991TIP3    H154168   2.868   1.782  10.028  0.1631 -0.3080  0.8272
 9991TIP3    H254169   2.756   1.882  10.013  0.1599 -0.3917  0.2517
 9992TIP3   OH254170   1.703   6.036  10.766  0.8212 -0.3927 -0.7074
 9992TIP3    H154171   1.633   6.070  10.710  1.1686  0.3779 -0.6947
 9992TIP3    H254172   1.658   5.984  10.832 -0.2412  3.1889  1.6948
 9993TIP3   OH254173   3.044   1.621  11.289 -0.0916 -0.4123 -0.6695
 9993TIP3    H154174   3.121   1.603  11.344 -0.7951 -0.3346  0.3790
 9993TIP3    H254175   3.053   1.713  11.266 -0.2254 -0.2060  0.0593
 9994TIP3   OH254176   2.979   5.474  11.332 -0.0230  0.3673 -0.5662
 9994TIP3    H154177   2.927   5.411  11.284  0.1983  0.0341 -0.3724
 9994TIP3    H254178   3.058   5.426  11.357  0.4875  0.9269 -1.0583
 9995TIP3   OH254179   0.618   1.037  11.480  0.3091  0.5267  0.0340
 9995TIP3    H154180   0.536   1.084  11.495  0.8768  2.1647 -1.5758
 9995TIP3    H254181   0.599   0.947  11.504 -1.5179  1.1471  1.0982
 9996TIP3   OH254182   3.839   1.019  11.852 -0.0696  0.3041  0.0968
 9996TIP3    H154183   3.913   0.987  11.800 -0.1236  2.1535 -1.2241
 9996TIP3    H254184   3.765   0.968  11.821  0.2390  0.0924 -0.3124
 9997TIP3   OH254185   4.627   2.037  12.512 -0.0998 -0.0231 -0.1129
 9997TIP3    H154186   4.591   1.974  12.450  0.1054  0.1412 -0.4024
 9997TIP3    H254187   4.716   2.052  12.482  0.0590 -0.0750  0.3278
 9998TIP3   OH254188   2.176   3.813  10.517  0.1106  0.1853  0.6673
 9998TIP3    H154189   2.246   3.878  10.517 -0.7635  1.2048  2.7510
 9998TIP3    H254190   2.222   3.729  10.507  1.4476  0.9501  0.1566
 9999TIP3   OH254191   0.852   2.842  10.424 -0.4813 -0.1360 -0.4629
 9999TIP3    H154192   0.875   2.890  10.344 -1.4906  0.7105 -0.2570
 9999TIP3    H254193   0.925   2.781  10.436  0.6017  1.0159 -0.9839
10000TIP3   OH254194   3.033   4.674   9.391  0.3324 -0.3163 -0.5106
10000TIP3    H154195   3.091   4.750   9.401  0.4950 -0.5623  0.4854
10000TIP3    H254196   2.945   4.710   9.398  0.3752 -0.0592 -1.2113
10001TIP3   OH254197   5.768   5.718  11.665  0.0472  0.7475  0.2073
10001TIP3    H154198   5.745   5.782  11.598  0.9079  0.4859 -0.3563
10001TIP3    H254199   5.850   5.751  11.703  0.1696  0.3142  0.3362
10002TIP3   OH254200   1.553   2.261  12.656  0.3145 -0.2400  0.0649
10002TIP3    H154201   1.485   2.193  12.659  0.2045 -0.1469 -0.2498
10002TIP3    H254202   1.545   2.306  12.740 -2.5277  2.1582 -1.3068
10003TIP3   OH254203   5.117   4.696   9.879  0.0195 -0.4456  0.2887
10003TIP3    H154204   5.148   4.719   9.791 -0.8009  0.5975  0.2546
10003TIP3    H254205   5.183   4.733   9.937 -0.1751  0.1256  0.1531
10004TIP3   OH254206   0.096   2.121  11.786 -0.3738  0.6942 -0.8427
10004TIP3    H154207   0.170   2.061  11.796 -0.0456  1.3096  0.7120
10004TIP3    H254208   0.020   2.064  11.778  0.2131  0.0518 -2.2267
10005TIP3   OH254209   0.203   6.097  12.616 -0.1937 -0.2521 -0.8250
10005TIP3    H154210   0.299   6.101  12.620 -0.1654 -0.8238 -0.8780
10005TIP3    H254211   0.184   6.053  12.533 -0.5045 -0.1323 -0.8188
10006TIP3   OH254212   5.493   1.480  11.735 -0.2119  0.1360 -0.5082
10006TIP3    H154213   5.483   1.422  11.659 -1.8131 -1.7124  1.0095
10006TIP3    H254214   5.504   1.567  11.697 -1.2189 -0.6813 -2.8746
10007TIP3   OH254215   6.226   4.892  10.301 -0.1293 -0.6096 -0.0497
10007TIP3    H154216   6.184   4.901  10.386 -1.5707 -1.4578 -0.6291
10007TIP3    H254217   6.319   4.903  10.319 -0.5617  1.4107  1.2780
10008TIP3   OH254218   2.785   2.455  12.467  0.1758 -0.0630  0.0103
10008TIP3    H154219   2.728   2.524  12.500 -2.6810 -1.6777 -1.1785
10008TIP3    H254220   2.768   2.380  12.523 -0.1883 -1.0587 -1.3661
10009TIP3   OH254221   1.491   0.189   9.979 -0.0544  0.0225  0.1537
10009TIP3    H154222   1.474   0.189  10.073  2.8605  2.1686  0.8167
10009TIP3    H254223   1.552   0.117   9.966  1.4371  1.2054  0.3941
10010TIP3   OH254224   5.264   2.343  10.391  0.2412 -0.1782 -0.4949
10010TIP3    H154225   5.223   2.427  10.410 -0.0945 -0.5418  0.4224
10010TIP3    H254226   5.259   2.335  10.296  0.5518  0.9726 -0.6246
10011TIP3   OH254227   4.129   4.556  10.213  0.0491 -0.0655  0.2741
10011TIP3    H154228   4.124   4.601  10.129  2.6618  0.4379  0.3028
10011TIP3    H254229   4.081   4.613  10.273 -0.0283  0.6818 -0.4698
10012TIP3   OH254230   1.986   6.043  10.768 -0.0319  0.3939  0.1733
10012TIP3    H154231   2.000   5.961  10.721 -3.0074 -0.9513  1.3488
10012TIP3    H254232   1.893   6.062  10.756 -0.1840  1.7450  2.7064
10013TIP3   OH254233   2.657   1.816  11.859 -0.0486  0.3862 -0.1810
10013TIP3    H154234   2.697   1.861  11.785  1.0069 -2.3046 -1.3739
10013TIP3    H254235   2.730   1.795  11.917 -0.4081 -0.3705  0.0110
10014TIP3   OH254236   0.791   4.901  11.848  0.0170  0.0112  0.3204
10014TIP3    H154237   0.831   4.815  11.859 -0.6298 -0.3604 -0.2063
10014TIP3    H254238   0.864   4.963  11.861  0.5624 -0.6180  0.3152
10015TIP3   OH254239   1.389   1.852  10.361  0.4034  0.4766 -0.7511
10015TIP3    H154240   1.408   1.918  10.427 -0.8874 -0.1985  0.3300
10015TIP3    H254241   1.380   1.770  10.410 -1.9328  0.1825 -1.5455
10016TIP3   OH254242   1.947   5.517  11.758 -0.3799 -0.0488  0.1932
10016TIP3    H154243   1.879   5.457  11.789 -1.0000  1.0050  0.9353
10016TIP3    H254244   2.005   5.529  11.834 -0.7490  0.9401  0.3372
10017TIP3   OH254245   0.790   5.782  11.408  0.0384  0.2757 -0.2049
10017TIP3    H154246   0.797   5.687  11.409  1.8749  0.3749  0.8058
10017TIP3    H254247   0.764   5.805  11.498 -1.1664  0.7119 -0.6425
10018TIP3   OH254248   0.286   4.713  11.937 -0.0532 -0.0736  0.2636
10018TIP3    H154249   0.258   4.632  11.894  1.6875 -0.7432  0.2880
10018TIP3    H254250   0.318   4.768  11.866  1.0605 -0.4241  0.4680
10019TIP3   OH254251   0.532   4.485  10.321 -0.4024 -0.5691  0.2411
10019TIP3    H154252   0.492   4.569  10.343 -0.7008 -0.7224  0.2990
10019TIP3    H254253   0.563   4.496  10.231  1.4078  0.2771  0.9161
10020TIP3   OH254254   4.892   2.722  10.194 -0.2707 -0.3506 -0.3361
10020TIP3    H154255   4.886   2.813  10.163 -2.1951 -0.5620 -0.6588
10020TIP3    H254256   4.882   2.730  10.289  0.3051 -0.1725 -0.2848
10021TIP3   OH254257   5.313   6.511  12.630  0.3216 -0.6121 -0.1696
10021TIP3    H154258   5.275   6.456  12.699  0.3980  0.6948  0.9793
10021TIP3    H254259   5.245   6.514  12.562 -0.5705 -0.4295  0.6912
10022TIP3   OH254260   4.619   6.618  10.522 -0.4741  0.2423  0.0899
10022TIP3    H154261   4.575   6.550  10.573  0.3364 -1.0126 -0.8091
10022TIP3    H254262   4.698   6.576  10.489  0.3380  1.8081 -0.0576
10023TIP3   OH254263   5.250   3.544  11.156 -0.5790 -0.1546 -0.3436
10023TIP3    H154264   5.324   3.501  11.112  0.8874  1.0603  0.8394
10023TIP3    H254265   5.226   3.616  11.097  0.7680  0.8908  0.3228
10024TIP3   OH254266   5.783   2.536  12.542  0.7303  0.3865  0.0912
10024TIP3    H154267   5.804   2.617  12.588  1.8068 -0.2276  0.7079
10024TIP3    H254268   5.690   2.545  12.521  0.6916  1.5304  0.6501
10025TIP3   OH254269   5.623   4.680  10.126  0.1325 -0.0086 -0.0286
10025TIP3    H154270   5.600   4.705  10.215  0.4339  0.4410 -0.0768
10025TIP3    H254271   5.716   4.699  10.118 -0.2730  1.8189 -1.0503
10026TIP3   OH254272   4.412   1.585  12.422  0.3086  0.5317 -0.6997
10026TIP3    H154273   4.461   1.608  12.501  0.3311 -0.8509 -0.2918
10026TIP3    H254274   4.330   1.634  12.430  0.4633  0.6898 -0.0051
10027TIP3   OH254275   0.340   6.018  12.055 -0.3709  0.3549  0.7472
10027TIP3    H154276   0.407   6.003  11.988 -1.3327 -1.5705  0.1648
10027TIP3    H254277   0.257   6.008  12.009 -1.0538  0.1242  1.9876
10028TIP3   OH254278   5.709   5.233  11.890 -0.8792 -0.0800 -0.8583
10028TIP3    H154279   5.713   5.145  11.853  0.9934  0.0571 -1.0832
10028TIP3    H254280   5.683   5.288  11.817 -2.5674 -0.4860 -0.5921
10029TIP3   OH254281   0.405   1.599  12.529 -0.1686  0.7899  0.2861
10029TIP3    H154282   0.317   1.562  12.531 -0.0995  0.6051  2.7746
10029TIP3    H254283   0.401   1.675  12.587  1.5814  0.0309  1.5116
10030TIP3   OH254284   2.787   4.503   9.707 -0.0867  1.1930 -0.3944
10030TIP3    H154285   2.870   4.465   9.737  0.3822  1.4235 -1.3501
10030TIP3    H254286   2.799   4.597   9.714 -1.8544  1.3381  3.6040
10031TIP3   OH254287   6.218   5.035   9.726 -0.1654  0.4148  0.2773
10031TIP3    H154288   6.141   5.085   9.700 -0.9524 -0.3983  0.9576
10031TIP3    H254289   6.232   5.058   9.818 -0.9002 -1.0026  0.7781
10032TIP3   OH254290   2.173   0.803  12.011  0.9906  0.4564  0.5643
10032TIP3    H154291   2.108   0.873  12.007  1.0279  0.4661  0.0832
10032TIP3    H254292   2.198   0.799  12.104  0.1326  0.2919  0.7977
10033TIP3   OH254293   4.375   2.128   9.809  0.0373  0.2674 -0.3075
10033TIP3    H154294   4.399   2.220   9.798  0.3387  0.2650  0.2892
10033TIP3    H254295   4.299   2.116   9.752  0.3361  0.7410 -0.8209
10034TIP3   OH254296   3.319   6.504   9.531  0.2308  0.0176  0.4055
10034TIP3    H154297   3.264   6.437   9.572  0.4627 -0.8469 -0.6712
10034TIP3    H254298   3.261   6.580   9.522 -1.5394 -1.5151 -2.6351
10035TIP3   OH254299   3.275   3.043  10.004  0.4261 -0.3568  0.2672
10035TIP3    H154300   3.255   3.011  10.092 -0.7796 -2.3268 -0.6391
10035TIP3    H254301   3.194   3.082   9.973 -0.1178 -2.2916 -0.9636
10036TIP3   OH254302   1.885   1.051  10.801  0.1119  0.3715 -0.3002
10036TIP3    H154303   1.796   1.020  10.785  0.6566 -1.8687  0.5627
10036TIP3    H254304   1.903   1.024  10.891  1.3538  1.6064 -0.1545
10037TIP3   OH254305   5.198   5.519  10.804 -0.2959 -0.1296 -0.0990
10037TIP3    H154306   5.284   5.484  10.827 -0.1994  0.1622 -0.0064
10037TIP3    H254307   5.148   5.517  10.886 -1.0102 -2.0393 -0.5216
10038TIP3   OH254308   6.254   1.565  11.288 -0.4019  0.0353 -0.6592
10038TIP3    H154309   6.182   1.507  11.310  0.4174 -0.3253  1.3037
10038TIP3    H254310   6.333   1.513  11.306  0.3482  0.9566 -1.1838
10039TIP3   OH254311   2.377   5.436   9.678 -0.1755 -0.7360  0.5464
10039TIP3    H154312   2.390   5.358   9.624  0.3372 -0.7881  0.7432
10039TIP3    H254313   2.445   5.431   9.745 -0.0668 -0.0616  0.4955
10040TIP3   OH254314   6.043   0.077  10.843  0.0342 -0.0127  0.5504
10040TIP3    H154315   6.113   0.050  10.902 -0.7334 -0.7125  1.1677
10040TIP3    H254316   6.035   0.005  10.780  0.1664  0.2672  0.2087
10041TIP3   OH254317   3.779   5.375   9.784 -0.7786  0.2135 -0.0260
10041TIP3    H154318   3.689   5.343   9.790 -0.2932 -1.6502 -1.4864
10041TIP3    H254319   3.787   5.440   9.854 -3.2414  0.4446  0.1276
10042TIP3   OH254320   0.648   1.662  11.837  0.1162  0.5019  0.0068
10042TIP3    H154321   0.726   1.710  11.810 -1.3883  1.9322 -2.0893
10042TIP3    H254322   0.607   1.634  11.755 -1.0168 -1.1779  1.0741
10043TIP3   OH254323   2.388   4.075  10.826 -0.1099  0.1381  0.4204
10043TIP3    H154324   2.332   4.045  10.898  1.0361 -0.5793  1.0249
10043TIP3    H254325   2.445   4.141  10.867  0.1228  0.1862  0.0161
10044TIP3   OH254326   3.662   2.345  11.656 -0.1998 -0.1235  0.5411
10044TIP3    H154327   3.755   2.339  11.637 -0.4089  1.0949 -1.0461
10044TIP3    H254328   3.645   2.438  11.666 -1.1180 -0.3784  1.6000
10045TIP3   OH254329   4.563   3.793   9.882 -0.3109 -0.5835 -0.1475
10045TIP3    H154330   4.496   3.736   9.919  0.7842 -2.0643 -0.3702
10045TIP3    H254331   4.621   3.735   9.833  1.5617  0.5087  0.6194
10046TIP3   OH254332   0.374   4.083   9.632  0.4889 -0.0330 -0.3082
10046TIP3    H154333   0.322   4.030   9.691  0.2463  1.5554  0.9710
10046TIP3    H254334   0.465   4.063   9.654  0.4013  0.7814  0.8582
10047TIP3   OH254335   0.231   1.787  11.829 -0.0395  0.5017  0.2405
10047TIP3    H154336   0.309   1.800  11.776  1.9419 -0.9493  2.6118
10047TIP3    H254337   0.188   1.711  11.791  0.9091 -0.0332  0.2238
10048TIP3   OH254338   2.952   2.243  11.195  0.7529 -0.2650 -1.1311
10048TIP3    H154339   2.997   2.323  11.167  0.9401 -0.3212 -0.9951
10048TIP3    H254340   2.958   2.245  11.291 -1.2438  0.7330 -0.9857
10049TIP3   OH254341   0.147   1.764  11.189 -0.3808  0.1271 -0.2808
10049TIP3    H154342   0.137   1.823  11.114  0.9970  1.2241  0.3361
10049TIP3    H254343   0.236   1.729  11.181  0.3512  1.3848  1.5368
10050TIP3   OH254344   2.357   0.873  10.816  0.3976  0.0689 -0.1175
10050TIP3    H154345   2.341   0.858  10.909  0.5452  0.4783 -0.0226
10050TIP3    H254346   2.445   0.911  10.813 -0.4277  2.1078 -0.2194
10051TIP3   OH254347   5.062   6.050  11.139 -0.1604  0.1865  0.5804
10051TIP3    H154348   5.076   6.139  11.172  1.6480  0.2960 -0.3184
10051TIP3    H254349   5.076   5.994  11.215  0.5373  0.6043  0.7746
10052TIP3   OH254350   0.046   4.580  11.492 -0.0506  0.6737  0.3169
10052TIP3    H154351   0.034   4.487  11.510  1.9124  0.4996  1.0287
10052TIP3    H254352   0.028   4.589  11.399 -1.3361 -0.1994  0.4623
10053TIP3   OH254353   1.034   6.578  10.694  0.1989  0.2359 -0.0400
10053TIP3    H154354   1.081   6.659  10.715  1.7685 -0.6651  0.1049
10053TIP3    H254355   1.078   6.545  10.615 -0.0078 -0.7821  0.2581
10054TIP3   OH254356   2.751   2.888  10.699 -0.1542 -0.2432 -0.8667
10054TIP3    H154357   2.826   2.834  10.721 -0.7963 -1.2395 -1.0523
10054TIP3    H254358   2.703   2.897  10.782  1.6001  2.8600  0.0187
10055TIP3   OH254359   2.097   3.092  10.352  0.7649  0.4274 -0.1413
10055TIP3    H154360   2.030   3.147  10.392  0.5763  1.1607 -1.4006
10055TIP3    H254361   2.137   3.045  10.425 -1.0230  0.0662  0.6631
10056TIP3   OH254362   0.581   6.166   9.362  0.1633 -0.3652 -0.4121
10056TIP3    H154363   0.666   6.177   9.406  0.1532  1.5416 -0.7701
10056TIP3    H254364   0.601   6.113   9.285  1.0504  0.0677 -0.4990
10057TIP3   OH254365   0.376   1.040  12.030 -0.0839 -0.9422  0.2629
10057TIP3    H154366   0.466   1.070  12.033 -0.5586  0.8802 -1.2204
10057TIP3    H254367   0.362   0.993  12.112  1.4379  1.0159  1.7094
10058TIP3   OH254368   0.177   5.800  10.639 -0.6350 -0.4925  0.1606
10058TIP3    H154369   0.251   5.762  10.592 -1.1732  0.1975 -1.3189
10058TIP3    H254370   0.134   5.726  10.682 -0.5821 -1.2913 -1.1203
10059TIP3   OH254371   3.090   4.117  11.885 -0.1286  0.6334 -0.1017
10059TIP3    H154372   3.177   4.099  11.922 -0.6143  0.4013  0.9570
10059TIP3    H254373   3.076   4.210  11.901 -0.3818  0.5113  0.4162
10060TIP3   OH254374   4.249   3.280  11.295 -0.2669  0.0347 -0.2875
10060TIP3    H154375   4.273   3.255  11.384 -0.0863 -0.2273 -0.4105
10060TIP3    H254376   4.156   3.305  11.301 -0.0996  0.5784  0.0846
10061TIP3   OH254377   3.390   0.018  10.701  0.0044 -0.3105 -0.2214
10061TIP3    H154378   3.408  -0.062  10.752  0.2905  0.8829  1.6548
10061TIP3    H254379   3.304   0.002  10.663 -0.0748 -1.4112  0.3494
10062TIP3   OH254380   2.592   2.078  10.722 -0.2064 -0.1342 -0.6701
10062TIP3    H154381   2.685   2.102  10.718  0.2980 -1.4380  1.4293
10062TIP3    H254382   2.592   1.983  10.718 -1.5609 -0.1211 -1.6124
10063TIP3   OH254383   1.036   5.744  10.811  0.1840 -1.0527  0.1928
10063TIP3    H154384   1.114   5.729  10.758 -1.3161 -2.0458 -1.8710
10063TIP3    H254385   0.985   5.663  10.802 -1.1460 -0.3966  1.4136
10064TIP3   OH254386   0.410   2.904  12.742 -0.0130 -0.0156  0.6540
10064TIP3    H154387   0.359   2.896  12.662  0.9637 -0.7963  0.0825
10064TIP3    H254388   0.347   2.889  12.813 -0.6066 -0.8262 -0.0289
10065TIP3   OH254389   5.788   1.023   9.836  0.2801 -0.4129 -0.0124
10065TIP3    H154390   5.821   1.113   9.831 -2.0374  0.5505  0.6494
10065TIP3    H254391   5.736   1.022   9.916 -2.4496 -1.3380 -1.6769
10066TIP3   OH254392   1.244   2.205   9.603 -0.4081 -0.3569  0.3837
10066TIP3    H154393   1.331   2.181   9.635 -0.0912  1.4240  0.9691
10066TIP3    H254394   1.242   2.172   9.513  0.8884 -0.3757  0.3443
10067TIP3   OH254395   0.228   0.986   9.802 -0.3803 -0.7144  0.4101
10067TIP3    H154396   0.165   1.057   9.813  0.8303  0.4910 -0.1802
10067TIP3    H254397   0.243   0.981   9.708  0.2865 -1.0860  0.5271
10068TIP3   OH254398   4.265   6.595  11.623  0.2824  0.2438  0.0475
10068TIP3    H154399   4.251   6.631  11.536 -0.5023  0.2447  0.1664
10068TIP3    H254400   4.260   6.671  11.682  1.4049  0.3306  0.0466
10069TIP3   OH254401   3.612   2.045   9.516 -0.1559 -0.1161 -0.0793
10069TIP3    H154402   3.535   1.990   9.506  0.2284 -0.5580 -0.6558
10069TIP3    H254403   3.662   2.004   9.587  0.1507 -0.5357 -0.5367
10070TIP3   OH254404   0.796   0.589  13.066 -0.7924 -0.2520 -0.2286
10070TIP3    H154405   0.756   0.560  12.985  0.1840 -0.4621 -0.6483
10070TIP3    H254406   0.885   0.616  13.041 -1.4233  2.5929  0.2140
10071TIP3   OH254407   0.408   6.221  12.899 -0.4011  0.2624  0.1835
10071TIP3    H154408   0.331   6.236  12.953 -0.9055 -0.1269 -0.4162
10071TIP3    H254409   0.470   6.176  12.957 -1.1461 -0.6624  0.2857
10072TIP3   OH254410   1.885   6.335  11.434  0.3611  0.3975 -0.0115
10072TIP3    H154411   1.866   6.241  11.426 -2.3167  0.7383  1.0950
10072TIP3    H254412   1.945   6.341  11.508  0.3208 -0.4284  0.1028
10073TIP3   OH254413   5.293   5.163  10.931 -0.3197  0.1252  0.1367
10073TIP3    H154414   5.311   5.141  10.840  0.9580 -0.7950  0.5754
10073TIP3    H254415   5.198   5.162  10.938 -0.4345  0.0470 -1.1320
10074TIP3   OH254416   5.998   4.711  11.453  0.2573 -0.7785  0.1922
10074TIP3    H154417   6.088   4.713  11.486  0.2245  1.1482  0.2545
10074TIP3    H254418   5.992   4.628  11.405  1.6795 -1.5001  1.1816
10075TIP3   OH254419   6.397   3.086   9.674  0.3897  0.0865  0.0043
10075TIP3    H154420   6.481   3.096   9.630 -0.1653  1.0068 -0.9017
10075TIP3    H254421   6.341   3.153   9.634 -0.6775 -0.2876  0.8183
10076TIP3   OH254422   5.776   1.737  10.544 -0.4616 -0.4214  0.0623
10076TIP3    H154423   5.871   1.728  10.540 -0.3415  0.9421 -1.0246
10076TIP3    H254424   5.744   1.676  10.477  0.0290  2.6783 -3.3580
10077TIP3   OH254425   5.847   4.869   9.877  0.0025 -0.1160  0.1664
10077TIP3    H154426   5.761   4.828   9.888  0.0989 -0.1628  0.7628
10077TIP3    H254427   5.832   4.962   9.895  0.1290 -0.1672  0.5445
10078TIP3   OH254428   0.667   3.974   9.725  0.0989  0.0677 -0.5242
10078TIP3    H154429   0.695   4.005   9.639 -1.5208 -1.3896 -1.6677
10078TIP3    H254430   0.721   3.897   9.741  0.9192  0.7657  0.1451
10079TIP3   OH254431   0.756   6.177  13.960 -0.8517  1.0097  0.0221
10079TIP3    H154432   0.848   6.195  13.979 -0.6590 -1.0418  1.3392
10079TIP3    H254433   0.755   6.151  13.868 -0.1402  1.1915 -0.0412
10080TIP3   OH254434   2.429   2.002   9.508  0.1906 -0.7598  0.2292
10080TIP3    H154435   2.398   1.993   9.598 -0.0965 -0.8209  0.1249
10080TIP3    H254436   2.524   1.990   9.514  0.1106 -1.3007  0.4496
10081TIP3   OH254437   4.345   3.683  11.971 -0.2681  0.4429  0.2658
10081TIP3    H154438   4.283   3.615  11.945  1.8409 -1.4174 -0.1200
10081TIP3    H254439   4.368   3.727  11.890  0.8728 -0.6145 -0.0042
10082TIP3   OH254440   5.587   0.420  12.480  0.1141 -0.2445  0.1681
10082TIP3    H154441   5.569   0.444  12.571 -1.8508  0.5061 -0.3729
10082TIP3    H254442   5.638   0.493  12.445  2.4940 -1.3453  1.0897
10083TIP3   OH254443   4.037   6.386   9.975 -0.5383  0.0282 -0.0106
10083TIP3    H154444   4.081   6.471   9.971 -2.9683  1.4621  1.2907
10083TIP3    H254445   4.027   6.360   9.883  1.1366  0.6023 -0.3952
10084TIP3   OH254446   4.535   5.886  12.328 -0.3748 -0.1763  0.3585
10084TIP3    H154447   4.518   5.798  12.362 -0.6033 -0.7210 -1.1023
10084TIP3    H254448   4.579   5.931  12.401  0.1431 -1.6207  0.9957
10085TIP3   OH254449   0.273   2.446  11.590 -0.2811  0.2629 -0.2168
10085TIP3    H154450   0.233   2.462  11.505 -0.7988  3.1516  0.4898
10085TIP3    H254451   0.273   2.531  11.634  1.4652 -0.7894  2.0559
10086TIP3   OH254452   1.317   6.027  13.018 -0.0332  0.2700  0.0452
10086TIP3    H154453   1.307   6.034  13.113 -2.0417 -0.3834 -0.0699
10086TIP3    H254454   1.320   6.118  12.987 -0.4284  0.4975  0.6616
10087TIP3   OH254455   5.373   5.795  12.377  0.7557  0.1522 -0.1573
10087TIP3    H154456   5.305   5.856  12.350 -0.8112 -1.6352 -0.4518
10087TIP3    H254457   5.414   5.767  12.295  0.2859 -0.4790 -0.1866
10088TIP3   OH254458   6.181   3.162   9.883 -0.2681 -0.2680  0.2587
10088TIP3    H154459   6.267   3.192   9.912 -0.1389 -0.6507  0.2838
10088TIP3    H254460   6.200   3.084   9.830 -0.6528 -0.8374  0.9380
10089TIP3   OH254461   0.376   4.184  11.411 -0.1657 -0.0036  0.1698
10089TIP3    H154462   0.324   4.161  11.334  0.7777  0.5919 -0.6791
10089TIP3    H254463   0.357   4.115  11.475 -0.4455 -0.9020 -0.8510
10090TIP3   OH254464   4.653   4.072  11.613 -0.0347  0.0019 -0.0544
10090TIP3    H154465   4.693   4.116  11.688 -0.7942 -0.3133  0.5532
10090TIP3    H254466   4.726   4.032  11.566  0.9982  3.5340 -1.8042
10091TIP3   OH254467   1.188   3.433  12.110  0.4754 -0.2254 -0.1775
10091TIP3    H154468   1.269   3.448  12.159  0.3625 -0.2788  0.0251
10091TIP3    H254469   1.209   3.359  12.052 -0.3593 -2.3980  2.0948
10092TIP3   OH254470   1.349   1.040  11.081  0.1628  0.1337 -0.0127
10092TIP3    H154471   1.299   0.962  11.055 -0.9692  0.6110  0.6371
10092TIP3    H254472   1.429   1.005  11.119  0.0629 -0.6882 -0.5225
10093TIP3   OH254473   5.289   1.289  11.078 -0.5882  0.0405  0.2292
10093TIP3    H154474   5.352   1.346  11.121 -0.7506  1.1738 -0.9530
10093TIP3    H254475   5.235   1.254  11.149  1.9497 -1.7766  1.3906
10094TIP3   OH254476   0.961   3.972  10.898 -0.3345 -0.7491  0.3275
10094TIP3    H154477   1.043   4.022  10.902 -0.2669 -0.8830  0.6645
10094TIP3    H254478   0.954   3.944  10.807 -0.0203 -0.7063  0.2900
10095TIP3   OH254479   6.282   5.331  12.367  0.2562  0.6457 -0.1034
10095TIP3    H154480   6.326   5.328  12.282  0.5106 -0.7449  0.0569
10095TIP3    H254481   6.317   5.409  12.410 -1.5853  2.7560 -2.1456
10096TIP3   OH254482   0.602   4.916  13.011  0.1605 -0.5788 -0.5153
10096TIP3    H154483   0.673   4.980  13.003 -0.4595  0.2261  0.2278
10096TIP3    H254484   0.644   4.832  12.991  0.7884  0.1348 -2.4441
10097TIP3   OH254485   5.722   2.603  10.126 -0.5087 -0.3720 -0.2364
10097TIP3    H154486   5.719   2.561  10.212 -0.4407 -0.3457 -0.2207
10097TIP3    H254487   5.780   2.678  10.138 -0.9503 -0.0353 -0.1562
10098TIP3   OH254488   0.571   1.971  11.811  0.2127 -0.3047  0.2575
10098TIP3    H154489   0.495   1.985  11.754  0.2005  0.0922  0.3673
10098TIP3    H254490   0.581   1.876  11.814 -0.8827 -0.4177  1.0223
10099TIP3   OH254491   4.651   0.528  10.605 -0.4204 -0.0194  0.0720
10099TIP3    H154492   4.594   0.518  10.681  0.3684 -1.1210  0.5560
10099TIP3    H254493   4.737   0.498  10.635  0.0793  0.2218 -1.0462
10100TIP3   OH254494   3.346   4.698  13.207  0.2226 -0.2447  0.6057
10100TIP3    H154495   3.418   4.651  13.166 -0.7486 -1.6882  0.4846
10100TIP3    H254496   3.286   4.630  13.237  0.6561  0.7255  4.0800
10101TIP3   OH254497   6.263   0.581  12.427 -0.6483  0.6302 -0.5161
10101TIP3    H154498   6.260   0.674  12.406 -1.6992  0.5837 -0.6218
10101TIP3    H254499   6.171   0.553  12.425 -0.5215 -0.0460  1.0771
10102TIP3   OH254500   6.341   0.124  19.595  0.1236  0.6917  0.2002
10102TIP3    H154501   6.424   0.171  19.604  0.2090  0.4945  0.4575
10102TIP3    H254502   6.293   0.173  19.528  0.2201  1.1312  0.4460
10103TIP3   OH254503   1.327   0.988  12.113  0.2274 -0.3042 -0.1974
10103TIP3    H154504   1.277   0.938  12.178 -1.3814  0.8969 -0.4699
10103TIP3    H254505   1.264   1.008  12.044  0.4908  2.9183  0.3335
10104TIP3   OH254506   0.121   1.535  12.372  0.2985 -0.0547  0.0605
10104TIP3    H154507   0.136   1.525  12.278  0.0118 -1.6606  0.1494
10104TIP3    H254508   0.117   1.445  12.405  2.2414  0.4816  1.9294
10105TIP3   OH254509   3.678   0.869  11.009 -0.1405 -0.4717 -0.1858
10105TIP3    H154510   3.770   0.880  11.032 -0.5494 -0.7709  1.7499
10105TIP3    H254511   3.646   0.959  10.997  0.3267 -0.3514 -0.5352
10106TIP3   OH254512   2.924   2.554  10.591  0.1515  0.3926 -0.0462
10106TIP3    H154513   2.869   2.628  10.565 -0.9486 -0.5574 -0.5071
10106TIP3    H254514   2.864   2.480  10.597  0.9143 -0.1473  2.0681
10107TIP3   OH254515   2.112   5.919  11.630 -0.1625 -0.8336  0.1242
10107TIP3    H154516   2.183   5.979  11.608 -0.9635  0.9014  2.0450
10107TIP3    H254517   2.066   5.906  11.547  0.4355  0.6751 -0.4850
10108TIP3   OH254518   2.619   5.120  12.019  0.5996 -0.1007 -0.3253
10108TIP3    H154519   2.542   5.112  12.075  0.7435 -0.7242 -0.2099
10108TIP3    H254520   2.641   5.213  12.022  0.3749 -0.0624  0.3353
10109TIP3   OH254521   2.009   0.981   9.769  0.4997 -0.0106  0.1608
10109TIP3    H154522   1.930   0.927   9.770 -1.6890  2.7661  3.1969
10109TIP3    H254523   1.977   1.068   9.744  2.4764  1.2956  1.8444
10110TIP3   OH254524   4.815   5.952  11.835  0.2734 -0.2332  0.2968
10110TIP3    H154525   4.803   5.946  11.930  0.3541  0.3791  0.3468
10110TIP3    H254526   4.726   5.952  11.800  0.2292  0.0765  0.4061
10111TIP3   OH254527   2.681   3.831  10.383  0.2574  0.2186 -0.1379
10111TIP3    H154528   2.668   3.737  10.371 -0.2936  0.2504  0.1640
10111TIP3    H254529   2.700   3.865  10.296 -0.8217  0.0164 -0.4742
10112TIP3   OH254530   5.291   4.605  12.713  0.0045 -0.4821 -0.1383
10112TIP3    H154531   5.322   4.569  12.796 -0.6185 -0.9756 -0.1100
10112TIP3    H254532   5.335   4.553  12.646  1.7847  0.9805 -0.1695
10113TIP3   OH254533   3.032   4.866  10.303  0.0472 -0.1635 -0.6818
10113TIP3    H154534   3.071   4.813  10.233  0.7744  0.3204 -0.6635
10113TIP3    H254535   3.081   4.948  10.299  0.5663 -0.3709  0.8170
10114TIP3   OH254536   2.622   3.473  12.326 -0.6550 -0.0767 -0.0835
10114TIP3    H154537   2.637   3.439  12.238 -0.6450  1.3535 -0.6575
10114TIP3    H254538   2.710   3.495  12.358 -0.4987 -1.8658  0.8620
10115TIP3   OH254539   1.281   0.671  10.047 -0.3665 -0.5298  0.3796
10115TIP3    H154540   1.242   0.698  10.130 -1.2860 -3.4685  1.0180
10115TIP3    H254541   1.221   0.605  10.013  0.5291 -0.1383 -2.1451
10116TIP3   OH254542   1.690   2.377  11.929 -0.1107  0.0866  0.4046
10116TIP3    H154543   1.604   2.405  11.899  0.9775  1.6850 -1.4589
10116TIP3    H254544   1.694   2.407  12.020 -1.2720  0.5786  0.3081
10117TIP3   OH254545   3.682   4.259  10.185  0.1852 -0.1020  0.0143
10117TIP3    H154546   3.735   4.232  10.110 -0.4311 -1.5545  0.0573
10117TIP3    H254547   3.726   4.337  10.219  2.7248 -1.6128  0.4683
10118TIP3   OH254548   2.764   0.289  12.158  0.4408  0.4294  0.3679
10118TIP3    H154549   2.844   0.331  12.191 -0.0928  2.2339 -0.4899
10118TIP3    H254550   2.725   0.355  12.100 -0.9444 -0.9553 -0.3312
10119TIP3   OH254551   4.680   3.321  11.360 -0.1228 -0.0190 -0.1114
10119TIP3    H154552   4.672   3.325  11.265  1.0170  0.7602 -0.1958
10119TIP3    H254553   4.688   3.228  11.380 -0.6118 -0.2014 -0.7549
10120TIP3   OH254554   3.307   6.093  10.001 -0.0495 -0.4038 -0.6039
10120TIP3    H154555   3.345   6.077   9.915  1.5646  0.7563 -0.1431
10120TIP3    H254556   3.336   6.019  10.054  0.3564 -0.2684 -0.6336
10121TIP3   OH254557   0.749   5.112  12.678 -0.0829  1.1257 -0.1710
10121TIP3    H154558   0.676   5.052  12.664 -0.5722  1.6716 -0.0152
10121TIP3    H254559   0.757   5.120  12.773  0.2348  1.0025 -0.1865
10122TIP3   OH254560   4.563   2.001   9.360  0.2355 -0.2433 -0.2215
10122TIP3    H154561   4.488   2.061   9.363 -0.0818 -0.6750  1.9166
10122TIP3    H254562   4.639   2.059   9.351 -0.1351  0.4245  0.8168
10123TIP3   OH254563   3.983   2.991  10.771  0.4338 -0.1076 -0.4099
10123TIP3    H154564   4.018   2.932  10.837 -1.5443 -0.6427  0.2129
10123TIP3    H254565   4.002   3.079  10.804 -0.1624 -0.3759  0.6507
10124TIP3   OH254566   0.095   3.878  12.533 -0.7063  0.4360  0.1279
10124TIP3    H154567   0.018   3.827  12.505 -0.4889  0.6496 -0.8945
10124TIP3    H254568   0.080   3.965  12.497  1.7137 -0.3848 -3.4022
10125TIP3   OH254569   0.029   0.556  10.377 -0.3902 -0.0024  0.1546
10125TIP3    H154570  -0.058   0.592  10.357 -0.4742 -0.2636  0.0478
10125TIP3    H254571   0.042   0.488  10.311  0.1050  0.3761 -0.1441
10126TIP3   OH254572   2.138   4.565  12.683  0.0828 -0.2269  0.4589
10126TIP3    H154573   2.047   4.534  12.684  0.1875 -0.5490  0.2102
10126TIP3    H254574   2.134   4.654  12.717 -0.2186 -0.5354  1.2599
10127TIP3   OH254575   3.766   3.003  10.082  0.7617  0.2593  0.4618
10127TIP3    H154576   3.728   2.952  10.011 -0.0771  2.3160 -0.6569
10127TIP3    H254577   3.828   3.062  10.038  2.1624 -0.1694  1.7701
10128TIP3   OH254578   3.590   6.402  10.182 -0.2552  0.3523  0.2585
10128TIP3    H154579   3.610   6.492  10.209  0.2252  0.4756 -0.4842
10128TIP3    H254580   3.638   6.347  10.244 -1.9949  0.5307  1.8932
10129TIP3   OH254581   2.974   0.399  12.288 -0.9311 -0.4485  0.1291
10129TIP3    H154582   3.069   0.401  12.282 -0.8627 -0.2186  1.1287
10129TIP3    H254583   2.953   0.457  12.361 -1.9706  1.1791 -1.3727
10130TIP3   OH254584   5.929   4.803  12.083 -0.2973  0.5633  0.1995
10130TIP3    H154585   5.963   4.892  12.084  0.1403  0.4192 -0.7773
10130TIP3    H254586   5.984   4.756  12.146  1.0191  0.4484 -1.0015
10131TIP3   OH254587   1.507   0.899  10.500  0.4303  0.2706  0.4184
10131TIP3    H154588   1.516   0.899  10.405  0.9632  1.3075  0.4608
10131TIP3    H254589   1.502   0.992  10.524  0.8693  0.0377  1.4557
10132TIP3   OH254590   4.800   0.040  11.656 -0.2996 -0.5478 -0.2201
10132TIP3    H154591   4.870   0.035  11.592 -1.0430 -0.6503 -1.0471
10132TIP3    H254592   4.741  -0.032  11.633  0.4880 -1.9750  1.9056
10133TIP3   OH254593   5.066   2.159  11.757 -0.5436 -0.2164  0.1704
10133TIP3    H154594   5.057   2.082  11.813  1.4453 -1.7493 -1.4658
10133TIP3    H254595   5.014   2.138  11.679 -1.5252  0.9577  0.4770
10134TIP3   OH254596   0.957   6.335  13.180  0.5249  0.6003 -0.4765
10134TIP3    H154597   0.952   6.405  13.246  3.4728  0.6142 -0.1446
10134TIP3    H254598   1.003   6.375  13.107  0.9357 -0.5778 -0.8757
10135TIP3   OH254599   5.358   2.765  11.922  0.0173  0.2290 -0.8407
10135TIP3    H154600   5.324   2.681  11.893  3.7991 -1.3854 -1.1493
10135TIP3    H254601   5.309   2.785  12.002 -1.5043 -1.8605 -1.1997
10136TIP3   OH254602   0.763   0.171   9.718  0.8575 -0.1244  0.3306
10136TIP3    H154603   0.788   0.237   9.654  1.7722 -1.8273 -1.1586
10136TIP3    H254604   0.808   0.198   9.799  1.4388  0.9125 -0.3131
10137TIP3   OH254605   6.546   4.463  12.436  0.0896 -0.4339  0.3134
10137TIP3    H154606   6.490   4.386  12.433 -1.3352  0.5130  1.0014
10137TIP3    H254607   6.564   4.484  12.345 -0.6910 -0.7638  0.0800
10138TIP3   OH254608   2.675   3.788  11.902 -0.3340  0.3192 -0.0389
10138TIP3    H154609   2.722   3.715  11.862 -1.0721  0.9115 -2.1142
10138TIP3    H254610   2.737   3.861  11.898 -0.2887  0.2946  0.2197
10139TIP3   OH254611   4.882   3.626  10.204  0.1057  0.0509  0.0561
10139TIP3    H154612   4.935   3.636  10.125 -2.5208 -0.0366 -1.8604
10139TIP3    H254613   4.935   3.570  10.262  1.4141 -1.4085 -2.3799
10140TIP3   OH254614   4.021   2.621   9.585  0.0111 -0.2673  0.5092
10140TIP3    H154615   3.987   2.707   9.561  0.7482 -0.2515 -0.5412
10140TIP3    H254616   4.110   2.638   9.615  0.7806 -0.8245 -1.3154
10141TIP3   OH254617   0.079   4.495  10.312  0.1600  0.0184  0.2686
10141TIP3    H154618   0.085   4.446  10.230 -2.4458  0.0343 -0.0236
10141TIP3    H254619   0.117   4.581  10.292  0.4638 -0.3130 -0.6077
10142TIP3   OH254620   2.030   4.219  13.511 -0.4095 -0.2843 -0.4151
10142TIP3    H154621   2.035   4.235  13.417 -1.0004 -0.9690 -0.5681
10142TIP3    H254622   1.978   4.139  13.519  1.2123 -1.2902  0.4091
10143TIP3   OH254623   0.084   5.789  10.348 -0.5444  0.0349 -0.3535
10143TIP3    H154624   0.050   5.810  10.435 -0.3653  0.6815 -0.4332
10143TIP3    H254625   0.017   5.821  10.287 -1.8296 -2.5808 -0.4247
10144TIP3   OH254626   1.138   6.137  10.159  0.3005 -0.1710 -0.0177
10144TIP3    H154627   1.176   6.197  10.095  1.1011 -0.4709  0.1657
10144TIP3    H254628   1.044   6.148  10.148  0.4267  0.6994 -0.3802
10145TIP3   OH254629   5.149   4.257   9.692 -0.3984  0.2394  0.0020
10145TIP3    H154630   5.088   4.183   9.695  0.4487 -0.4448  1.0293
10145TIP3    H254631   5.110   4.322   9.751 -0.8259  0.3774 -0.4231
10146TIP3   OH254632   5.737   2.088  12.388 -0.4004 -0.3170  0.5347
10146TIP3    H154633   5.676   2.097  12.461 -0.0867  0.3052  0.7330
10146TIP3    H254634   5.765   2.177  12.369 -0.2640 -0.5020 -0.1688
10147TIP3   OH254635   4.665   1.899  10.513 -0.6383  0.2071  0.9683
10147TIP3    H154636   4.735   1.959  10.541 -0.7708  0.4136  0.8561
10147TIP3    H254637   4.702   1.811  10.527 -0.1242  0.3144  0.3159
10148TIP3   OH254638   5.788   0.353   9.953 -0.1293  0.3899  0.6052
10148TIP3    H154639   5.842   0.428   9.978 -1.0155  0.9281  0.9985
10148TIP3    H254640   5.702   0.374   9.990 -0.5757 -0.4791  0.0764
10149TIP3   OH254641   4.939   4.861   9.565 -0.7395 -0.1943  0.1712
10149TIP3    H154642   5.015   4.808   9.541 -1.0541 -1.0012  0.8947
10149TIP3    H254643   4.864   4.803   9.551 -1.2451  0.6493 -0.7022
10150TIP3   OH254644   4.501   5.254  11.602  0.4252  0.2685  0.2820
10150TIP3    H154645   4.461   5.171  11.626  1.1515 -0.1682  0.0151
10150TIP3    H254646   4.439   5.294  11.541  1.1076 -1.1443 -1.4100
10151TIP3   OH254647   4.156   2.727  10.445  0.4868 -0.5046  0.6034
10151TIP3    H154648   4.210   2.695  10.372 -0.5898  1.4773 -1.1739
10151TIP3    H254649   4.218   2.770  10.503  1.0263  0.6255 -0.7499
10152TIP3   OH254650   2.799   0.929   9.696 -0.5941 -0.3942  0.1647
10152TIP3    H154651   2.890   0.957   9.685 -0.3897 -1.1073 -0.0372
10152TIP3    H254652   2.781   0.876   9.619 -1.5328  0.5964 -0.3257
10153TIP3   OH254653   2.895   5.247  10.429  0.3722  0.0071  0.0386
10153TIP3    H154654   2.865   5.301  10.356  0.1393 -1.3691 -0.9337
10153TIP3    H254655   2.973   5.202  10.396  0.1338 -0.8047  0.5343
10154TIP3   OH254656   2.442   0.700   9.839 -0.0971 -0.7872  0.7948
10154TIP3    H154657   2.371   0.755   9.805 -0.3491 -0.8370  1.2372
10154TIP3    H254658   2.460   0.734   9.926  2.4307  1.1095 -0.3469
10155TIP3   OH254659   2.696   0.800   9.481 -0.0924 -0.4515 -0.4662
10155TIP3    H154660   2.729   0.782   9.393 -0.9870  1.2316 -1.1848
10155TIP3    H254661   2.601   0.792   9.473 -0.3273  1.5302 -0.1514
10156TIP3   OH254662   6.305   6.395  11.925 -0.3949 -0.0545 -0.7456
10156TIP3    H154663   6.297   6.381  11.831  0.1130 -3.8407 -0.3914
10156TIP3    H254664   6.215   6.395  11.957 -0.5046 -0.7930 -1.0383
10157TIP3   OH254665   0.214   1.964   9.588  0.3520  0.5514  0.8154
10157TIP3    H154666   0.129   1.990   9.624  0.0676  0.0198  0.5265
10157TIP3    H254667   0.195   1.890   9.531  0.8029  1.3725 -0.4378
10158TIP3   OH254668   3.355   6.533  10.406  0.3919  0.2403  0.1404
10158TIP3    H154669   3.313   6.447  10.405 -0.8650  0.8105 -1.7779
10158TIP3    H254670   3.299   6.587  10.462 -0.6885  0.6138 -1.2439
10159TIP3   OH254671   1.580   3.683  11.343  0.1443  0.3119  0.1629
10159TIP3    H154672   1.672   3.671  11.366  0.0279  2.0853  1.7556
10159TIP3    H254673   1.581   3.750  11.274 -0.0178  1.8176  1.5701
10160TIP3   OH254674   4.213   1.667   9.709  0.0172 -0.5335 -0.3023
10160TIP3    H154675   4.308   1.661   9.718 -0.1054 -1.0455  0.7847
10160TIP3    H254676   4.198   1.676   9.615  1.1410 -0.3398 -0.4708
10161TIP3   OH254677   5.745   2.471  10.379  0.2874  0.2171 -0.0471
10161TIP3    H154678   5.668   2.448  10.431  0.0810 -0.2480 -0.5501
10161TIP3    H254679   5.766   2.561  10.406  1.2623 -0.5856  2.1474
10162TIP3   OH254680   0.616   6.050  12.252 -0.3585 -0.7362 -0.2119
10162TIP3    H154681   0.565   5.999  12.189 -0.6533  0.0266 -0.5996
10162TIP3    H254682   0.685   6.090  12.200 -0.1787 -0.6607  0.0801
10163TIP3   OH254683   3.774   4.807   9.947 -0.6493  0.1500  0.3087
10163TIP3    H154684   3.689   4.849   9.955 -0.0083  2.6894 -3.5665
10163TIP3    H254685   3.837   4.879   9.954  0.8499 -0.8900 -1.5043
10164TIP3   OH254686   4.300   5.361  12.243  0.0529 -0.1659 -0.3612
10164TIP3    H154687   4.344   5.401  12.318 -0.4640 -0.9095  0.3493
10164TIP3    H254688   4.217   5.330  12.277 -1.5719  2.1640 -1.9188
10165TIP3   OH254689   6.271   5.955  10.841  0.5557 -0.1259  0.3739
10165TIP3    H154690   6.337   6.017  10.873  0.4488  0.2401 -0.1030
10165TIP3    H254691   6.214   6.008  10.785  0.3739 -0.6299  0.0797
10166TIP3   OH254692   0.366   5.576  11.476 -0.1701  0.3120  0.2214
10166TIP3    H154693   0.389   5.593  11.568 -0.3849  2.8209 -0.1016
10166TIP3    H254694   0.450   5.565  11.432 -0.0001  0.3363  0.5308
10167TIP3   OH254695   2.650   3.584  12.801 -0.0448  0.6356 -0.0757
10167TIP3    H154696   2.741   3.613  12.802 -1.1356  4.6194 -0.2529
10167TIP3    H254697   2.620   3.596  12.891 -0.0292 -2.3583  0.4077
10168TIP3   OH254698   0.752   0.595  11.527 -0.0956  0.3252 -0.2046
10168TIP3    H154699   0.775   0.535  11.599 -0.8417  0.8803  0.5192
10168TIP3    H254700   0.659   0.579  11.512  0.0160  0.3470 -0.9350
10169TIP3   OH254701   2.058   3.234  12.824  0.0808  0.8638 -0.2465
10169TIP3    H154702   2.075   3.272  12.738 -0.0286 -0.9367 -1.1197
10169TIP3    H254703   2.100   3.148  12.821 -1.3306  0.0804  0.8661
10170TIP3   OH254704   1.142   6.098  10.738 -0.6369 -0.3091 -0.3997
10170TIP3    H154705   1.197   6.176  10.743  0.1389 -0.7797 -1.1346
10170TIP3    H254706   1.055   6.127  10.764 -0.5264  0.9626 -1.3592
10171TIP3   OH254707   4.425   6.120  12.568 -0.2335 -0.9534 -0.1060
10171TIP3    H154708   4.396   6.036  12.604 -1.1386 -0.7922 -0.4554
10171TIP3    H254709   4.439   6.175  12.645  0.6820 -1.5140  0.1443
10172TIP3   OH254710   3.055   0.813  11.375  0.1815 -0.1362 -0.5009
10172TIP3    H154711   3.117   0.791  11.445 -1.3081  0.2548  1.0095
10172TIP3    H254712   3.105   0.800  11.294  2.7977  1.7538  0.6399
10173TIP3   OH254713   5.213   2.423  12.254 -0.2993  0.2028  0.0125
10173TIP3    H154714   5.304   2.450  12.253 -0.4400  0.6720 -0.2870
10173TIP3    H254715   5.164   2.499  12.223 -0.9417  0.5650  1.7724
10174TIP3   OH254716   4.058   3.247  11.597 -0.0603 -0.2809  0.1050
10174TIP3    H154717   4.002   3.275  11.525 -1.0168  1.2070  1.3640
10174TIP3    H254718   4.147   3.271  11.570 -0.4636  0.7096 -0.3839
10175TIP3   OH254719   4.631   0.566  11.424 -0.2555 -0.3814  0.3733
10175TIP3    H154720   4.616   0.618  11.345  1.2038  0.1134  0.3942
10175TIP3    H254721   4.654   0.479  11.392 -1.0033 -0.5586  0.2991
10176TIP3   OH254722   1.208   4.064  11.218 -0.0327  0.5760 -0.3917
10176TIP3    H154723   1.257   4.025  11.290  1.3082  1.6833 -0.6592
10176TIP3    H254724   1.170   4.144  11.256  0.8668  1.2836 -0.9343
10177TIP3   OH254725   6.595   4.270  10.122  0.4703  0.1397  0.5479
10177TIP3    H154726   6.632   4.288  10.036  0.6715 -2.0398  0.1206
10177TIP3    H254727   6.504   4.299  10.116  0.6365  0.5135 -0.2101
10178TIP3   OH254728   1.276   4.040  12.493 -0.4693  0.1051  0.0078
10178TIP3    H154729   1.246   4.112  12.548 -1.7768 -0.1687 -0.3168
10178TIP3    H254730   1.275   4.076  12.404 -1.9176 -0.5409 -0.2527
10179TIP3   OH254731   2.084   2.258  11.129  0.0865 -0.5872  0.1804
10179TIP3    H154732   2.087   2.300  11.215  0.5361 -1.0114  0.3796
10179TIP3    H254733   2.116   2.169  11.145 -0.3342 -0.8325 -0.3324
10180TIP3   OH254734   5.519   3.518   9.834 -0.0913 -0.1758 -0.5118
10180TIP3    H154735   5.581   3.590   9.823  0.4455 -0.4015  0.8115
10180TIP3    H254736   5.548   3.452   9.771 -1.3081  1.1827 -2.5956
10181TIP3   OH254737   5.814   1.319   9.815  0.3029 -0.2952 -0.4454
10181TIP3    H154738   5.743   1.371   9.776  1.3442  0.8667 -0.8914
10181TIP3    H254739   5.868   1.384   9.860 -0.0337 -1.4301  1.6843
10182TIP3   OH254740   5.755   0.621  10.740  0.3857 -0.3864 -0.5576
10182TIP3    H154741   5.676   0.612  10.793 -0.2393 -0.7089 -1.5188
10182TIP3    H254742   5.742   0.561  10.667  0.5698  1.1174 -1.8740
10183TIP3   OH254743   4.869   6.558  12.706  0.2310 -0.0217  0.7143
10183TIP3    H154744   4.829   6.474  12.730 -0.5576  0.2812  0.4794
10183TIP3    H254745   4.811   6.624  12.743  1.3873  0.4272  1.7625
10184TIP3   OH254746   0.221   5.836  12.224 -0.6309 -0.8942 -1.0940
10184TIP3    H154747   0.246   5.760  12.172 -0.2411 -0.3534 -1.7076
10184TIP3    H254748   0.251   5.911  12.173 -0.4006 -0.3458 -0.1755
10185TIP3   OH254749   2.349   0.354  12.405  0.1018  0.3824 -0.3171
10185TIP3    H154750   2.311   0.385  12.487 -0.3587 -2.0929  0.4756
10185TIP3    H254751   2.277   0.357  12.342  0.1736  1.2535 -0.3714
10186TIP3   OH254752   1.502   0.899  12.364 -0.0587  0.1144 -0.8903
10186TIP3    H154753   1.432   0.926  12.305 -0.8472 -0.3771 -0.1944
10186TIP3    H254754   1.566   0.856  12.307 -0.0275  1.0959 -1.6199
10187TIP3   OH254755   5.417   0.326  10.944  0.2345  0.7808  0.7459
10187TIP3    H154756   5.324   0.326  10.969  0.3616  1.3969  1.2467
10187TIP3    H254757   5.458   0.266  11.006  0.5322  2.2313  2.0359
10188TIP3   OH254758   5.030   4.706  11.427  0.0478  0.2671  0.8016
10188TIP3    H154759   5.102   4.757  11.390  0.6135  0.0798  1.6277
10188TIP3    H254760   5.063   4.673  11.510 -0.1754 -1.7221  0.1772
10189TIP3   OH254761   0.962   3.866  11.676 -0.0788 -0.0789 -0.0799
10189TIP3    H154762   0.935   3.942  11.624  1.1042  1.5130  1.5130
10189TIP3    H254763   0.887   3.848  11.732 -0.2296  0.1391 -0.2081
10190TIP3   OH254764   3.746   4.739  11.874 -0.0862 -0.2228  0.3275
10190TIP3    H154765   3.789   4.744  11.960  0.6186 -0.1446 -0.0231
10190TIP3    H254766   3.813   4.768  11.812 -0.0421 -1.8332 -0.4229
10191TIP3   OH254767   1.138   3.779  13.137 -0.2042 -0.3074 -0.4364
10191TIP3    H154768   1.132   3.698  13.085  2.5930  0.2593 -1.8135
10191TIP3    H254769   1.231   3.800  13.138 -0.8034  2.7595  0.1211
10192TIP3   OH254770   5.804   1.580  10.946  0.0414  0.4505 -0.3949
10192TIP3    H154771   5.771   1.531  11.022 -0.2355  0.1049 -0.7293
10192TIP3    H254772   5.868   1.641  10.982 -1.6151  1.7864  0.4156
10193TIP3   OH254773   5.833   2.474  11.007  0.6486  0.0578  0.6362
10193TIP3    H154774   5.852   2.438  10.921 -1.8812 -1.8115  0.7548
10193TIP3    H254775   5.894   2.429  11.066  0.6090 -0.6208  0.1647
10194TIP3   OH254776   1.112   1.401  13.703  0.6830 -0.1078 -0.0350
10194TIP3    H154777   1.138   1.488  13.733  0.1915  0.2188 -0.5423
10194TIP3    H254778   1.017   1.399  13.714  0.8515 -1.1480  1.4274
10195TIP3   OH254779   5.151   3.738  10.323 -0.1688 -0.1142 -0.3234
10195TIP3    H154780   5.139   3.706  10.413 -0.8042  1.7952  0.3027
10195TIP3    H254781   5.237   3.704  10.297 -0.2071 -1.1214  0.8071
10196TIP3   OH254782   5.200   4.060  11.585 -0.4813 -0.7792 -0.3070
10196TIP3    H154783   5.105   4.064  11.576 -0.4345 -0.6363 -0.7744
10196TIP3    H254784   5.227   3.991  11.524 -0.1701  0.0721 -1.1632
10197TIP3   OH254785   4.466   5.709  10.769 -0.1269  0.2983  0.2736
10197TIP3    H154786   4.530   5.774  10.739  1.0557 -1.0601 -0.2832
10197TIP3    H254787   4.517   5.652  10.828 -0.5540 -1.3579 -0.8967
10198TIP3   OH254788   1.664   3.076   9.828  0.2791 -0.8146 -0.4256
10198TIP3    H154789   1.690   3.155   9.875 -1.9081  0.4071 -1.1500
10198TIP3    H254790   1.596   3.037   9.883 -1.5791  0.0869 -1.9515
10199TIP3   OH254791   1.767   1.858  11.805 -0.4371 -0.0500 -0.0283
10199TIP3    H154792   1.724   1.938  11.835 -0.9773 -0.3958  0.1410
10199TIP3    H254793   1.846   1.852  11.858  0.8990  1.6505 -1.7090
10200TIP3   OH254794   1.581   4.900  11.971  0.0789 -0.0740 -0.0182
10200TIP3    H154795   1.623   4.814  11.964  2.0504  0.7705  0.5397
10200TIP3    H254796   1.653   4.962  11.957 -1.2570  1.4865 -0.1883
10201TIP3   OH254797   4.983   4.215  11.849 -0.7226  0.0732 -0.5592
10201TIP3    H154798   4.958   4.307  11.844 -1.1032  0.0284  0.3278
10201TIP3    H254799   4.998   4.189  11.758  0.0551  1.1848 -0.7653
10202TIP3   OH254800   5.935   2.833  10.103  0.1420 -0.2720 -0.0996
10202TIP3    H154801   6.003   2.772  10.074  0.3751  0.0957 -0.3255
10202TIP3    H254802   5.963   2.860  10.191  1.7878  2.0139 -1.2170
10203TIP3   OH254803   6.320   1.876  10.763 -0.1981 -0.5426  0.7396
10203TIP3    H154804   6.372   1.842  10.836  0.6661 -2.8903 -0.8332
10203TIP3    H254805   6.247   1.814  10.754  0.4218 -1.0846 -1.1126
10204TIP3   OH254806   5.822   3.600  12.354  0.3075  0.2737 -0.0658
10204TIP3    H154807   5.805   3.530  12.291 -3.8520  1.3975 -0.4759
10204TIP3    H254808   5.849   3.554  12.434  1.0452 -1.4803 -1.2529
10205TIP3   OH254809   3.124   5.666  13.057 -0.0200 -0.2174 -0.0329
10205TIP3    H154810   3.051   5.614  13.091 -1.3011  1.6514  0.2262
10205TIP3    H254811   3.142   5.730  13.126  2.3285 -1.0158  0.1746
10206TIP3   OH254812   0.258   0.181  10.937 -0.0777 -0.1236 -0.4553
10206TIP3    H154813   0.324   0.116  10.961  1.2240  1.5004  0.5840
10206TIP3    H254814   0.267   0.250  11.002 -0.6778  1.6052 -2.1125
10207TIP3   OH254815   2.300   2.686  12.089 -0.4846  0.0117 -0.3876
10207TIP3    H154816   2.209   2.670  12.064 -0.8549  1.4219  0.0167
10207TIP3    H254817   2.295   2.723  12.177  0.5672 -1.0171  0.1386
10208TIP3   OH254818   2.992   5.832  11.476 -0.0844  0.2157 -0.3705
10208TIP3    H154819   2.989   5.924  11.451  1.5875  0.7292  1.1565
10208TIP3    H254820   3.079   5.802  11.447 -0.1469 -0.5581  0.2080
10209TIP3   OH254821   3.561   0.897  11.341 -0.2934 -0.3052  0.2702
10209TIP3    H154822   3.650   0.915  11.309 -0.8909 -1.2301 -2.1199
10209TIP3    H254823   3.517   0.982  11.339 -0.2856 -0.3107 -1.4362
10210TIP3   OH254824   0.029   0.244  11.370 -0.2654 -0.1791  0.3283
10210TIP3    H154825   0.116   0.225  11.406  0.4993  0.9143 -0.8594
10210TIP3    H254826   0.027   0.197  11.286 -1.2698 -1.1103  0.8570
10211TIP3   OH254827   5.851   3.805  11.380 -0.0358  0.0393  1.0165
10211TIP3    H154828   5.892   3.760  11.454 -0.9421  0.9674  2.1332
10211TIP3    H254829   5.779   3.855  11.419 -1.0709 -0.0909 -0.6194
10212TIP3   OH254830   6.123   2.580  10.329 -0.0006 -0.0531 -0.7184
10212TIP3    H154831   6.194   2.576  10.393  1.0576  0.0777 -1.8460
10212TIP3    H254832   6.044   2.559  10.379  0.5759  1.4440  0.9213
10213TIP3   OH254833   0.706   1.765  10.234  0.0346 -0.1520 -0.0064
10213TIP3    H154834   0.738   1.837  10.180  0.0446 -0.1499  0.0019
10213TIP3    H254835   0.712   1.688  10.177 -1.3701  0.0862 -0.5076
10214TIP3   OH254836   4.133   2.188  10.480 -0.5714 -0.5431  0.1924
10214TIP3    H154837   4.121   2.111  10.425 -0.1815 -0.2043 -0.3856
10214TIP3    H254838   4.185   2.248  10.426 -1.3345  0.3414  0.4063
10215TIP3   OH254839   1.656   6.382  12.752  0.2662 -0.3537 -0.0669
10215TIP3    H154840   1.697   6.375  12.838  1.0088  0.7188 -0.3117
10215TIP3    H254841   1.578   6.437  12.767  0.0095 -0.7428  0.0389
10216TIP3   OH254842   0.452   5.141  11.598  0.2843 -0.1629  0.0335
10216TIP3    H154843   0.536   5.097  11.611 -0.9007 -2.1625  1.5717
10216TIP3    H254844   0.403   5.083  11.541 -0.2839  0.6827 -0.3515
10217TIP3   OH254845   0.181   5.279  11.447  0.2274 -0.1346  0.6935
10217TIP3    H154846   0.263   5.327  11.441  1.1181 -1.6055  0.5883
10217TIP3    H254847   0.128   5.312  11.375  0.5861  1.0484  0.9464
10218TIP3   OH254848   4.874   6.455  10.417 -0.2462  0.2773  0.1845
10218TIP3    H154849   4.876   6.501  10.501 -0.7355 -0.5090  0.6457
10218TIP3    H254850   4.799   6.395  10.425 -0.0038 -0.1461 -0.6315
10219TIP3   OH254851   4.014   3.849  11.336  0.2080 -0.5162 -0.0028
10219TIP3    H154852   4.028   3.801  11.417 -2.4768  0.0016  0.8728
10219TIP3    H254853   3.983   3.783  11.273  0.2159 -0.5717  0.0516
10220TIP3   OH254854   6.466   3.995  11.952 -0.2445  0.4814 -0.4526
10220TIP3    H154855   6.487   3.911  11.911 -1.6642 -0.2101  0.1717
10220TIP3    H254856   6.499   3.986  12.042 -0.6710  0.4667 -0.2959
10221TIP3   OH254857   0.587   4.055  12.650 -0.2736 -0.4235  0.2988
10221TIP3    H154858   0.643   3.982  12.623  0.7127  1.2701 -2.7939
10221TIP3    H254859   0.626   4.088  12.730  2.9372  0.2743 -1.3817
10222TIP3   OH254860   1.907   0.190  10.292 -0.7026 -0.3608 -0.3326
10222TIP3    H154861   1.973   0.173  10.359 -0.5630 -1.3616 -0.7103
10222TIP3    H254862   1.957   0.200  10.211 -1.0264 -1.5022 -0.6886
10223TIP3   OH254863   0.686   2.517  10.196  0.2316  0.4749 -0.3412
10223TIP3    H154864   0.675   2.507  10.290  0.0648  1.0096 -0.3038
10223TIP3    H254865   0.656   2.433  10.160 -1.8240  1.0290 -0.0676
10224TIP3   OH254866   1.204   1.292  12.468  0.5749  0.6608 -0.3257
10224TIP3    H154867   1.253   1.211  12.455 -1.0533 -0.7752  1.7564
10224TIP3    H254868   1.236   1.327  12.551 -0.8690  0.4193  0.3765
10225TIP3   OH254869   1.799   2.081   9.354 -0.0084  0.5316 -0.0441
10225TIP3    H154870   1.881   2.112   9.315  0.7730  1.0263  1.8648
10225TIP3    H254871   1.796   2.125   9.439 -0.3821 -2.3105  1.5225
10226TIP3   OH254872   3.162   1.265  12.990 -0.3303 -0.8252 -0.4289
10226TIP3    H154873   3.072   1.251  13.021  0.2551 -1.1284  1.2408
10226TIP3    H254874   3.181   1.356  13.012 -0.1724 -0.8065 -0.6417
10227TIP3   OH254875   6.344   2.785  11.438  0.3181 -0.4455  0.2712
10227TIP3    H154876   6.334   2.804  11.345  0.6443 -1.3313  0.0409
10227TIP3    H254877   6.256   2.762  11.468  0.2202 -0.1973  0.1745
10228TIP3   OH254878   4.610   1.174   9.820  0.1625  0.3261 -0.5272
10228TIP3    H154879   4.653   1.242   9.768 -0.9745  0.3125 -1.5502
10228TIP3    H254880   4.643   1.092   9.784  1.7753  0.3001  0.9183
10229TIP3   OH254881   0.023   2.752  11.755 -0.5465  0.3408 -0.6694
10229TIP3    H154882  -0.018   2.740  11.669 -0.3084 -0.4670 -0.6817
10229TIP3    H254883   0.063   2.667  11.774 -1.3715  0.2337  0.6643
10230TIP3   OH254884   1.104   3.820  10.331 -0.2312 -0.1708 -0.3021
10230TIP3    H154885   1.069   3.799  10.244  0.2430 -2.6976  0.0355
10230TIP3    H254886   1.071   3.750  10.387 -1.1748  1.8172  1.7890
10231TIP3   OH254887   4.675   4.699  12.236  0.6696  0.0682 -0.0082
10231TIP3    H154888   4.652   4.606  12.238 -2.5280  0.7200 -0.4944
10231TIP3    H254889   4.674   4.722  12.143 -0.0480  0.8811  0.1894
10232TIP3   OH254890   5.371   2.142  12.232  0.0421  0.2879  0.3075
10232TIP3    H154891   5.306   2.085  12.272  0.4673  0.2287  0.9182
10232TIP3    H254892   5.377   2.217  12.290  0.4625  0.3327  0.2091
10233TIP3   OH254893   4.999   3.207  11.537 -0.8041 -0.1373  0.1981
10233TIP3    H154894   5.017   3.301  11.535  0.2978 -0.3525 -0.3953
10233TIP3    H254895   4.933   3.198  11.606 -2.0323  1.2430 -0.7300
10234TIP3   OH254896   5.681   0.569  11.293 -0.2228 -0.0785 -0.4559
10234TIP3    H154897   5.637   0.629  11.233  1.4473  0.4769 -1.1748
10234TIP3    H254898   5.662   0.605  11.380  1.1794  1.8758 -0.8869
10235TIP3   OH254899   6.027   5.047  11.959 -0.4051 -0.2010 -0.2005
10235TIP3    H154900   6.106   5.100  11.969  0.0620 -1.1274  1.6146
10235TIP3    H254901   5.964   5.104  11.916  0.4368  1.4334  0.6631
10236TIP3   OH254902   1.523   0.899   9.769  0.4308 -0.4082  0.4476
10236TIP3    H154903   1.614   0.926   9.773  0.5280 -0.6640  0.0683
10236TIP3    H254904   1.497   0.915   9.678 -0.3834  1.1528  0.9200
10237TIP3   OH254905   0.450   1.439  10.135 -0.4808 -0.5398 -0.1682
10237TIP3    H154906   0.509   1.388  10.079  1.7704 -0.4301  1.9532
10237TIP3    H254907   0.477   1.529  10.122  0.0105 -0.5061  0.9813
10238TIP3   OH254908   0.802   2.030  10.784  0.3785 -0.2170  0.6537
10238TIP3    H154909   0.831   1.969  10.715 -1.3228 -0.8100  0.4243
10238TIP3    H254910   0.708   2.040  10.770  0.5206  2.1483  0.9789
10239TIP3   OH254911   6.384   4.805   9.775 -0.2785 -0.5165 -0.5039
10239TIP3    H154912   6.455   4.814   9.713  0.8606  0.6108  0.9005
10239TIP3    H254913   6.324   4.876   9.754  0.7208  0.6395  0.4159
10240TIP3   OH254914   3.660   3.095  11.100  0.0236 -0.0924  0.5808
10240TIP3    H154915   3.643   3.181  11.061 -0.1286 -0.5592 -0.4116
10240TIP3    H254916   3.755   3.089  11.104  0.0328  0.2320  0.9178
10241TIP3   OH254917   1.789   1.709  11.185 -0.3464  0.5493  0.1364
10241TIP3    H154918   1.804   1.804  11.185  2.0754  0.2824 -2.1664
10241TIP3    H254919   1.814   1.681  11.273 -0.6957  1.9861  0.7201
10242TIP3   OH254920   3.645   5.376  10.999  0.2557 -0.1795  0.0018
10242TIP3    H154921   3.580   5.405  10.934 -1.7443 -0.4373  1.7711
10242TIP3    H254922   3.695   5.455  11.019  0.4234  0.0665 -1.3134
10243TIP3   OH254923   4.876   2.857  11.184  0.5547  0.2921  0.1503
10243TIP3    H154924   4.924   2.848  11.102 -1.1388 -0.6797 -0.7979
10243TIP3    H254925   4.806   2.920  11.164  1.1077  1.3644  1.3770
10244TIP3   OH254926   5.294   4.309  11.626 -0.2992 -0.2873  0.2586
10244TIP3    H154927   5.325   4.303  11.716  0.2764 -1.8652 -0.0160
10244TIP3    H254928   5.262   4.222  11.605 -0.8284  0.1676 -0.9301
10245TIP3   OH254929   4.973   1.523   9.824 -0.4882  0.1207  0.7090
10245TIP3    H154930   5.060   1.487   9.810 -0.7318  0.2810 -1.7337
10245TIP3    H254931   4.918   1.446   9.842 -0.0265 -0.0980  1.1773
10246TIP3   OH254932   2.616   1.789   9.480 -0.1194  0.1943 -0.4950
10246TIP3    H154933   2.611   1.696   9.458  1.5058 -0.1793  0.5476
10246TIP3    H254934   2.706   1.814   9.455 -0.0042  1.0567  0.7425
10247TIP3   OH254935   2.804   1.747  11.382 -0.0829  0.1164  0.0188
10247TIP3    H154936   2.799   1.659  11.345 -1.8888 -0.7391  2.0468
10247TIP3    H254937   2.866   1.740  11.454 -0.7069  0.3024  0.5924
10248TIP3   OH254938   4.166   6.188   9.681  1.0131 -0.2779  0.5325
10248TIP3    H154939   4.113   6.268   9.671  1.5763  0.2487  1.5855
10248TIP3    H254940   4.103   6.116   9.670  0.1150  0.3292  1.4947
10249TIP3   OH254941   3.204   4.092  10.436 -0.1014  0.2601  0.6186
10249TIP3    H154942   3.293   4.118  10.414  0.0925  1.3029  2.4526
10249TIP3    H254943   3.150   4.168  10.411 -0.6549 -0.7032 -1.3260
10250TIP3   OH254944   5.493   0.200  10.498  0.2418 -0.3474  0.1402
10250TIP3    H154945   5.542   0.217  10.578  0.2454 -2.7549  0.7278
10250TIP3    H254946   5.423   0.140  10.525 -0.5692 -0.1604 -1.4205
10251TIP3   OH254947   0.489   4.622   9.544  0.3317 -0.1389 -0.5493
10251TIP3    H154948   0.446   4.548   9.587  0.2166  0.3224  0.1459
10251TIP3    H254949   0.418   4.668   9.499 -0.2240  1.3922  1.6923
10252TIP3   OH254950   3.152   0.815  12.211  0.4804  0.7518 -0.0072
10252TIP3    H154951   3.182   0.809  12.302 -1.7672 -0.2663  0.7432
10252TIP3    H254952   3.064   0.777  12.212 -0.0433  1.7117 -2.4192
10253TIP3   OH254953   2.808   5.653  10.658 -0.3471 -0.0810  0.2022
10253TIP3    H154954   2.730   5.601  10.674 -0.3731 -0.1492 -0.1397
10253TIP3    H254955   2.800   5.728  10.717 -0.3769 -0.3919  0.5932
10254TIP3   OH254956   3.136   5.231  11.796 -0.4563  0.0769 -0.8495
10254TIP3    H154957   3.072   5.183  11.848 -0.6611 -0.1790 -1.3279
10254TIP3    H254958   3.089   5.253  11.715  0.5171 -1.4960 -1.8851
10255TIP3   OH254959   2.190   4.918  10.641 -0.5040 -0.2374 -0.0415
10255TIP3    H154960   2.281   4.906  10.668 -0.5605  0.4825  0.4852
10255TIP3    H254961   2.194   4.986  10.574 -0.6274 -0.4475 -0.2669
10256TIP3   OH254962   2.945   1.469   9.313  0.2099  0.3018 -0.3971
10256TIP3    H154963   3.040   1.477   9.303  0.6753  0.7714  3.1819
10256TIP3    H254964   2.925   1.513   9.396 -2.9568 -1.0352 -0.2943
10257TIP3   OH254965   3.456   1.632  12.062 -0.2173 -0.0032 -0.1296
10257TIP3    H154966   3.474   1.548  12.105 -1.4474 -0.9524 -1.3903
10257TIP3    H254967   3.361   1.642  12.068 -0.1805  0.8466 -0.8123
10258TIP3   OH254968   6.075   2.013  10.717 -0.0763 -0.4697  0.3062
10258TIP3    H154969   6.157   2.007  10.668  0.1948  1.2431  0.4871
10258TIP3    H254970   6.007   2.004  10.650  0.2717 -0.4964 -0.0508
10259TIP3   OH254971   2.290   0.263  12.770 -0.1521  0.4266  0.2470
10259TIP3    H154972   2.300   0.352  12.737 -3.1327  0.6130 -0.4132
10259TIP3    H254973   2.218   0.269  12.833  0.8386 -1.2106  1.6271
10260TIP3   OH254974   6.222   3.631  11.032 -0.4486  0.2571  0.3199
10260TIP3    H154975   6.145   3.586  10.998  0.2375 -0.7923  0.0894
10260TIP3    H254976   6.190   3.678  11.110 -1.6811  1.3537 -0.8027
10261TIP3   OH254977   6.093   2.067  12.430  0.0411  0.0363  0.1529
10261TIP3    H154978   6.091   1.982  12.475  0.0813 -0.6684 -1.1361
10261TIP3    H254979   6.093   2.131  12.501 -2.1305 -0.9790  1.1857
10262TIP3   OH254980   1.454   5.536  12.506  0.0573 -0.1345 -0.0528
10262TIP3    H154981   1.473   5.627  12.482  2.3497 -0.4203  0.4541
10262TIP3    H254982   1.379   5.542  12.565  0.6770  1.5190  0.6152
10263TIP3   OH254983   5.665   4.394  12.626 -0.1176  0.1104  0.0623
10263TIP3    H154984   5.744   4.347  12.599 -1.1013 -1.7268  0.2018
10263TIP3    H254985   5.635   4.347  12.704 -1.3415  0.7896  0.0215
10264TIP3   OH254986   2.314   6.557  10.817  0.3809  0.1813 -0.4748
10264TIP3    H154987   2.393   6.538  10.767  0.2126  1.5945 -1.3189
10264TIP3    H254988   2.278   6.471  10.838  1.1294 -0.4550 -1.6953
10265TIP3   OH254989   1.764   4.143  12.383  0.3219  0.3352  0.2998
10265TIP3    H154990   1.767   4.230  12.342  0.1318 -0.0036 -0.4509
10265TIP3    H254991   1.847   4.135  12.429  1.1212  0.2187 -1.1003
10266TIP3   OH254992   0.244   1.437   9.865  0.3565  0.2665  0.2408
10266TIP3    H154993   0.242   1.377   9.940 -0.3511  0.3352  0.2843
10266TIP3    H254994   0.226   1.523   9.902  1.6109  0.5572  0.2113
10267TIP3   OH254995   3.063   4.325  10.532  0.5145  0.0999  0.0952
10267TIP3    H154996   3.102   4.337  10.619 -0.3707 -0.9969  0.6671
10267TIP3    H254997   3.060   4.413  10.495 -4.5311  1.9075  3.5647
10268TIP3   OH254998   4.477   2.651  10.546  0.4243 -0.0220 -0.5065
10268TIP3    H154999   4.564   2.611  10.549  0.0008 -1.1358 -1.9278
10268TIP3    H255000   4.416   2.577  10.538 -0.8241  0.6160  1.9944
10269TIP3   OH255001   1.387   1.609  13.022  0.3450  0.0192 -0.1058
10269TIP3    H155002   1.414   1.691  13.065 -0.3171  0.9503 -1.4034
10269TIP3    H255003   1.461   1.550  13.035  0.4475  0.4700  1.7011
10270TIP3   OH255004   5.790   3.928  13.097  0.7583  0.6539 -0.1327
10270TIP3    H155005   5.811   3.969  13.181 -0.0310  1.6780 -0.4142
10270TIP3    H255006   5.701   3.896  13.108  1.1407 -0.4535 -0.1343
10271TIP3   OH255007   5.349   0.762  11.569  0.8181 -0.9770 -0.0422
10271TIP3    H155008   5.259   0.750  11.537  0.0098 -0.2102  1.8026
10271TIP3    H255009   5.363   0.689  11.629 -0.2450  1.1285  3.0161
10272TIP3   OH255010   0.831   4.610  11.889  0.3457 -0.2415  0.3292
10272TIP3    H155011   0.864   4.520  11.888  2.8072  0.5345  1.8344
10272TIP3    H255012   0.773   4.614  11.965 -0.9017 -0.8472 -0.5507
10273TIP3   OH255013   6.619   4.834   9.908 -0.0351  0.0841 -0.0091
10273TIP3    H155014   6.558   4.802   9.842  0.5594  1.4486 -1.2746
10273TIP3    H255015   6.571   4.903   9.954  0.2923  0.6913 -0.5552
10274TIP3   OH255016   0.557   4.322  12.557 -0.1766  0.1946  0.1425
10274TIP3    H155017   0.570   4.333  12.462  0.1356  0.8789  0.2608
10274TIP3    H255018   0.540   4.228  12.567  1.9804 -0.3103 -0.3626
10275TIP3   OH255019   5.785   2.133  11.694  0.3822  0.6771 -0.0342
10275TIP3    H155020   5.854   2.163  11.635  0.1384 -1.2495 -1.4269
10275TIP3    H255021   5.742   2.212  11.724  0.8956  1.7692 -2.0189
10276TIP3   OH255022   2.855   1.867  10.508  0.3326 -0.0474  0.2828
10276TIP3    H155023   2.888   1.797  10.453 -1.3044 -1.4481  0.9691
10276TIP3    H255024   2.881   1.843  10.597  0.0925  0.4136  0.4853
10277TIP3   OH255025   1.116   2.980  12.688 -0.0276 -0.1315  0.0184
10277TIP3    H155026   1.033   2.937  12.707  0.0361 -0.0695  0.4415
10277TIP3    H255027   1.179   2.908  12.682 -0.1440 -0.1974 -0.5152
10278TIP3   OH255028   5.477   3.239  10.093  0.0358 -0.6749 -0.1446
10278TIP3    H155029   5.430   3.262  10.173 -1.6923 -2.4440 -0.5714
10278TIP3    H255030   5.530   3.164  10.116  0.8249 -0.1720 -0.2765
10279TIP3   OH255031   3.904   3.157  11.180 -0.5768 -0.0928  0.1235
10279TIP3    H155032   3.999   3.149  11.169 -0.1710  1.7790  1.7318
10279TIP3    H255033   3.891   3.245  11.214 -2.7139 -1.0203  1.9648
10280TIP3   OH255034   2.550   2.927  12.134 -0.2180  0.2420 -0.2186
10280TIP3    H155035   2.608   3.000  12.156 -0.9470  0.5939  0.6218
10280TIP3    H255036   2.468   2.947  12.180 -0.4339 -1.1108  0.0293
10281TIP3   OH255037   0.807   1.154  13.609  0.4912 -0.0045 -0.0613
10281TIP3    H155038   0.761   1.086  13.558  0.8960  0.1137 -0.5881
10281TIP3    H255039   0.846   1.106  13.682 -1.6119  0.0764  1.2138
10282TIP3   OH255040   6.247   2.902  11.652 -0.0775 -0.1644  0.3974
10282TIP3    H155041   6.323   2.884  11.598 -0.5029 -1.4600  0.1934
10282TIP3    H255042   6.248   2.997  11.665  1.4675 -0.1472  0.2719
10283TIP3   OH255043   3.240   5.014  10.003 -0.1847  0.1168 -0.0728
10283TIP3    H155044   3.307   5.010   9.935  0.0685  1.7658  0.0442
10283TIP3    H255045   3.287   4.997  10.084 -0.0799  0.3051 -0.0930
10284TIP3   OH255046   1.800   1.979  11.251  0.1359  0.6770  0.2653
10284TIP3    H155047   1.744   2.037  11.199 -2.2735 -1.2211  0.5540
10284TIP3    H255048   1.759   1.977  11.337  2.3443  1.3940  1.4178
10285TIP3   OH255049   6.333   4.025  12.398 -0.3525 -0.0568 -0.1170
10285TIP3    H155050   6.256   4.074  12.369  0.8421  0.2179 -3.1864
10285TIP3    H255051   6.407   4.073  12.360  0.9408 -3.6576 -2.7300
10286TIP3   OH255052   1.739   5.859   9.948  1.3039  0.2148 -0.0241
10286TIP3    H155053   1.708   5.900  10.029  2.4205 -1.6575  1.4301
10286TIP3    H255054   1.659   5.835   9.902  0.6462  1.4014  0.4406
10287TIP3   OH255055   0.710   3.276  10.875  0.3528  0.1594  0.3801
10287TIP3    H155056   0.737   3.357  10.917  1.4165 -0.5757  1.1891
10287TIP3    H255057   0.774   3.264  10.804  0.0649  0.1462  0.1237
10288TIP3   OH255058   1.436   1.049  11.469 -0.5175 -0.0011 -0.1186
10288TIP3    H155059   1.459   0.990  11.541 -1.2878 -0.3979 -0.1903
10288TIP3    H255060   1.350   1.019  11.439  0.1818 -0.4395 -1.8221
10289TIP3   OH255061   1.213   3.987   9.950 -0.2021  0.1838  0.3531
10289TIP3    H155062   1.190   3.909  10.001  0.2718  0.9392  1.7599
10289TIP3    H255063   1.306   3.998   9.964 -0.3584  1.2991  0.5825
10290TIP3   OH255064   4.726   0.153  12.748 -0.6006 -0.4051 -0.2657
10290TIP3    H155065   4.778   0.234  12.748  1.0238 -1.3227 -2.6200
10290TIP3    H255066   4.637   0.182  12.730 -0.4496  0.9963  1.0438
10291TIP3   OH255067   1.902   5.154  11.136  0.3145  1.0950 -0.5468
10291TIP3    H155068   1.976   5.100  11.110  2.0269  3.2119 -0.3858
10291TIP3    H255069   1.917   5.173  11.229 -0.6874  1.1717 -0.3843
10292TIP3   OH255070   4.283   3.168  10.401 -0.1571  0.3396  0.3567
10292TIP3    H155071   4.341   3.208  10.466  1.9299 -1.1429 -0.4693
10292TIP3    H255072   4.286   3.074  10.422 -1.3805  0.1087 -0.4235
10293TIP3   OH255073   1.272   2.598  10.838  0.3857 -0.7564 -0.1009
10293TIP3    H155074   1.275   2.582  10.933  1.8577 -0.8001 -0.1384
10293TIP3    H255075   1.363   2.602  10.811 -0.0109 -1.0713 -1.5914
10294TIP3   OH255076   2.344   1.484   9.718  0.4039  0.6801 -0.5080
10294TIP3    H155077   2.388   1.563   9.687 -1.2642  1.0079 -2.2522
10294TIP3    H255078   2.322   1.436   9.638 -2.0633  0.3762  0.2594
10295TIP3   OH255079   5.337   1.686   9.725  0.0745  0.5803  0.4557
10295TIP3    H155080   5.387   1.690   9.807 -0.8640  2.7357  0.9930
10295TIP3    H255081   5.382   1.748   9.667 -0.0440  0.0473 -0.2107
10296TIP3   OH255082   6.447   0.485   9.736 -0.3683 -0.1541 -0.3761
10296TIP3    H155083   6.391   0.418   9.695 -1.1749  0.9645 -1.1479
10296TIP3    H255084   6.488   0.530   9.662 -0.2762  0.5821  0.1162
10297TIP3   OH255085   2.926   0.587  11.908  0.1308  0.0594 -0.3358
10297TIP3    H155086   2.890   0.583  11.819 -0.1730  2.2182 -0.3697
10297TIP3    H255087   2.851   0.610  11.963  0.2453 -1.5844  0.5594
10298TIP3   OH255088   6.326   4.327  10.091  0.5424  0.4292  0.1415
10298TIP3    H155089   6.251   4.387  10.086  0.7087  0.5519 -1.8495
10298TIP3    H255090   6.308   4.261  10.023  2.7406  1.1179 -1.2051
10299TIP3   OH255091   6.349   3.335  12.182  0.3482 -0.1278 -0.1271
10299TIP3    H155092   6.301   3.416  12.195  0.2800 -0.1988  0.0663
10299TIP3    H255093   6.414   3.334  12.252 -0.0391 -0.5242  0.2343
10300TIP3   OH255094   6.088   1.395  12.066 -0.5259  0.4196 -0.0212
10300TIP3    H155095   6.080   1.444  12.148 -1.0639 -0.9052  0.7676
10300TIP3    H255096   6.142   1.319  12.089 -1.0001 -0.1658 -0.7801
10301TIP3   OH255097   0.459   0.219  11.202  0.1120 -0.0017  0.4598
10301TIP3    H155098   0.519   0.262  11.263 -1.7099  2.3917  0.6976
10301TIP3    H255099   0.516   0.167  11.145  2.0952 -0.2752  2.5606
10302TIP3   OH255100   4.178   3.970  12.763 -0.1311 -0.1405  0.1200
10302TIP3    H155101   4.147   3.941  12.678 -0.5594 -0.6931  0.4564
10302TIP3    H255102   4.116   3.933  12.826 -0.0021  0.5213  0.6534
10303TIP3   OH255103   1.870   2.993  11.261 -0.2361  0.0261  0.0093
10303TIP3    H155104   1.786   2.952  11.284 -0.7436  1.5977  1.1074
10303TIP3    H255105   1.867   3.079  11.302  2.3012 -0.1875  0.8111
10304TIP3   OH255106   4.041   6.513  10.930  0.4835 -0.0193 -0.3099
10304TIP3    H155107   4.022   6.597  10.971  1.8343  0.2622 -0.2097
10304TIP3    H255108   4.102   6.470  10.990 -1.1795 -1.6430  0.2858
10305TIP3   OH255109   5.059   2.912   9.622  0.0063 -0.3043 -0.1838
10305TIP3    H155110   5.059   2.927   9.716 -1.7049  1.2445 -0.3649
10305TIP3    H255111   5.148   2.935   9.594  0.1059  0.6882  0.8691
10306TIP3   OH255112   2.336   6.272  11.611  0.2838  0.0075 -0.3952
10306TIP3    H155113   2.361   6.180  11.606 -0.6997 -0.2438 -0.7715
10306TIP3    H255114   2.399   6.317  11.554  0.2269 -0.5444 -0.9016
10307TIP3   OH255115   1.497   1.527  11.762  0.1218  0.0030 -0.1119
10307TIP3    H155116   1.588   1.544  11.736  0.1370 -0.2969 -0.2630
10307TIP3    H255117   1.468   1.459  11.701 -0.0033 -0.3448  0.3360
10308TIP3   OH255118   6.401   0.127  12.136  0.0185 -0.1413  0.7117
10308TIP3    H155119   6.406   0.220  12.160 -0.5746 -0.0683  0.5714
10308TIP3    H255120   6.492   0.098  12.135  0.2961  0.7068 -0.2838
10309TIP3   OH255121   6.098   6.430  10.771 -0.0399  0.3427  0.3344
10309TIP3    H155122   6.104   6.412  10.865 -0.9683  2.2481  0.8006
10309TIP3    H255123   6.006   6.415  10.750 -0.0011  0.7203 -0.1045
10310TIP3   OH255124   0.347   5.558  13.081  0.2432  0.5632  0.0956
10310TIP3    H155125   0.297   5.632  13.048  1.0817  0.5858 -1.2355
10310TIP3    H255126   0.420   5.597  13.128  1.0260  0.6329 -1.1281
10311TIP3   OH255127   5.986   3.128  10.073 -0.3123 -0.3992  0.2226
10311TIP3    H155128   6.023   3.131   9.985 -1.3333 -0.0104 -0.2191
10311TIP3    H255129   5.962   3.036  10.086  0.2526 -0.5414  0.2820
10312TIP3   OH255130   1.594   2.029   9.161 -0.6662 -0.5853 -0.0818
10312TIP3    H155131   1.569   1.941   9.190  0.9467 -0.8783  0.5269
10312TIP3    H255132   1.681   2.043   9.199 -0.6952  1.1011 -0.5438
10313TIP3   OH255133   3.785   5.615  11.011  0.0314  0.9213 -0.1830
10313TIP3    H155134   3.855   5.679  11.024 -1.1532  2.4265 -0.8396
10313TIP3    H255135   3.716   5.643  11.071 -0.3263 -0.0600 -0.1239
10314TIP3   OH255136   2.108   3.177  10.083 -0.1281  0.3214 -0.0753
10314TIP3    H155137   2.184   3.140  10.039 -0.2831 -0.2552  0.1387
10314TIP3    H255138   2.097   3.124  10.161  0.0880  1.2830  0.6280
10315TIP3   OH255139   1.349   3.412  10.350  0.1369 -0.2397  0.7084
10315TIP3    H155140   1.416   3.480  10.338  1.7718 -1.6955  1.2842
10315TIP3    H255141   1.346   3.367  10.265  2.0727 -2.0206  1.4904
10316TIP3   OH255142   6.358   4.995  11.670 -0.5178  0.4393  0.6096
10316TIP3    H155143   6.315   5.066  11.622  0.7861  1.2467  0.5870
10316TIP3    H255144   6.430   4.968  11.614 -0.3637 -0.1905  1.0995
10317TIP3   OH255145   2.026   6.278   9.834  0.5091  0.2122 -0.2566
10317TIP3    H155146   2.023   6.369   9.863  1.0475  1.3229 -3.2517
10317TIP3    H255147   2.101   6.240   9.879  1.2151  1.7241 -0.1040
10318TIP3   OH255148   5.555   5.628   9.798 -0.0039 -0.8593 -0.3039
10318TIP3    H155149   5.582   5.681   9.873 -0.5003 -0.5048 -0.3742
10318TIP3    H255150   5.482   5.677   9.758  1.7043  0.1819 -2.4034
10319TIP3   OH255151   4.806   3.269  11.091 -0.3386  0.7725  0.1337
10319TIP3    H155152   4.838   3.353  11.122  1.0624  0.1157  0.5399
10319TIP3    H255153   4.884   3.214  11.084 -1.1452 -0.3237 -0.6858
10320TIP3   OH255154   1.049   1.134   9.458 -0.2151 -0.3026  0.2171
10320TIP3    H155155   1.104   1.176   9.524 -0.6875 -0.2211  0.5607
10320TIP3    H255156   0.960   1.161   9.480 -0.2473  1.1298 -1.4463
10321TIP3   OH255157   6.541   3.399  11.333 -0.2987 -0.1635 -0.7046
10321TIP3    H155158   6.572   3.416  11.244  1.1576  2.9430  0.2841
10321TIP3    H255159   6.451   3.429  11.333 -0.0322  0.6476 -0.9207
10322TIP3   OH255160   3.977   4.447  12.221 -0.8422  0.0866  0.0713
10322TIP3    H155161   3.996   4.514  12.156 -0.8670  0.8625  0.8564
10322TIP3    H255162   4.032   4.372  12.196  1.2802  1.3395  0.7680
10323TIP3   OH255163   0.674   0.701  10.776 -0.2661  0.2956 -0.7565
10323TIP3    H155164   0.761   0.723  10.811 -0.3936  2.5808 -1.6930
10323TIP3    H255165   0.628   0.662  10.849  1.5833 -1.1750 -0.2791
10324TIP3   OH255166   0.151   5.094  13.041  0.4400  0.4061 -0.2918
10324TIP3    H155167   0.187   5.171  13.084  0.5912  0.8464 -1.1846
10324TIP3    H255168   0.180   5.020  13.095 -1.6527  1.0738  1.9344
10325TIP3   OH255169   0.292   0.243  12.480  0.2104  0.5327 -0.0785
10325TIP3    H155170   0.227   0.173  12.483 -1.4582  1.9915 -0.1619
10325TIP3    H255171   0.247   0.319  12.519  2.9673  0.8309  2.9321
10326TIP3   OH255172   3.535   0.209   9.484 -0.2448 -0.1044  0.4274
10326TIP3    H155173   3.571   0.148   9.548  0.1229  0.6417  0.9428
10326TIP3    H255174   3.469   0.158   9.437 -1.6807 -0.2322  2.4648
10327TIP3   OH255175   0.164   4.134  12.011 -0.3514 -0.0373 -0.4622
10327TIP3    H155176   0.174   4.125  12.106  1.6689  1.0301 -0.5048
10327TIP3    H255177   0.161   4.229  11.997 -0.6408 -0.1920 -1.4674
10328TIP3   OH255178   0.724   0.298  10.611  0.2401 -0.4659 -0.6267
10328TIP3    H155179   0.807   0.296  10.658  0.9894 -0.7204 -1.9123
10328TIP3    H255180   0.665   0.246  10.665  0.5497  0.7173  0.9196
10329TIP3   OH255181   0.843   5.029  12.247 -0.6773  0.5002 -0.2854
10329TIP3    H155182   0.857   5.095  12.315 -1.5479  0.5389 -0.1242
10329TIP3    H255183   0.782   4.967  12.287  2.1416 -1.9662  0.6132
10330TIP3   OH255184   0.636   1.538  11.364  0.2512 -0.4022  0.8473
10330TIP3    H155185   0.700   1.489  11.313 -0.7684  0.3068 -1.1965
10330TIP3    H255186   0.552   1.508  11.331 -0.4578  0.0146  2.2249
10331TIP3   OH255187   3.020   0.185  11.555  0.1264 -0.2151  0.0603
10331TIP3    H155188   2.940   0.145  11.521  0.6221 -0.1039 -1.2964
10331TIP3    H255189   3.004   0.195  11.649 -1.1284 -0.9327 -0.0574
10332TIP3   OH255190   4.809   2.081  12.334  0.0518 -0.2054  0.3064
10332TIP3    H155191   4.818   2.013  12.268  0.5093  0.2684 -0.1321
10332TIP3    H255192   4.896   2.123  12.337  0.2547 -0.6817  1.7241
10333TIP3   OH255193   1.058   3.630  11.515  0.2726  0.0916 -0.2415
10333TIP3    H155194   1.053   3.697  11.582 -1.4227  2.4284 -2.4940
10333TIP3    H255195   1.030   3.674  11.435  0.1359 -3.0585 -2.0994
10334TIP3   OH255196   5.174   1.241  11.913  0.1386  0.8252  0.5119
10334TIP3    H155197   5.147   1.305  11.979 -1.4489 -0.5903  1.3212
10334TIP3    H255198   5.161   1.284  11.829 -0.2628  1.7759  1.0580
10335TIP3   OH255199   0.248   4.743   9.819  1.0575 -0.0857  0.1462
10335TIP3    H155200   0.194   4.681   9.769  0.5450  0.2308  0.3028
10335TIP3    H255201   0.190   4.776   9.887  1.8248 -0.6824  1.1037
10336TIP3   OH255202   0.395   0.071  12.980 -0.2346 -0.2763 -0.3997
10336TIP3    H155203   0.449   0.146  12.954  0.2316 -0.5677 -0.2967
10336TIP3    H255204   0.384   0.082  13.075 -1.5603  0.5462 -0.6254
10337TIP3   OH255205   6.617   2.034  10.199  0.3567 -0.5581  0.2181
10337TIP3    H155206   6.682   1.978  10.157 -0.3783 -2.5318  1.5239
10337TIP3    H255207   6.534   1.987  10.186 -0.0554 -0.6408  2.7632
10338TIP3   OH255208   2.094   3.510  10.850  0.0768  0.3372 -0.1464
10338TIP3    H155209   2.101   3.498  10.945 -0.8142 -0.1970 -0.1417
10338TIP3    H255210   2.127   3.599  10.835 -0.5496  0.7432  0.7625
10339TIP3   OH255211   2.116   5.888  10.406 -0.2203  0.3224 -0.3742
10339TIP3    H155212   2.175   5.945  10.358  0.3512 -1.0112 -1.3265
10339TIP3    H255213   2.139   5.901  10.498  0.0611  1.4127 -0.5897
10340TIP3   OH255214   5.287   0.983   9.636  0.1962 -0.3398 -1.0684
10340TIP3    H155215   5.319   1.005   9.548  2.7961  2.6270  0.4077
10340TIP3    H255216   5.271   1.068   9.678 -0.0753 -1.6013  1.6059
10341TIP3   OH255217   0.683   1.884  12.685 -0.2077 -0.3918  0.1872
10341TIP3    H155218   0.667   1.793  12.711 -2.0793 -0.8014 -2.0004
10341TIP3    H255219   0.745   1.877  12.612 -0.9358 -0.0172 -0.4864
10342TIP3   OH255220   3.354   5.360  11.965  0.8522  0.5097 -0.2557
10342TIP3    H155221   3.324   5.451  11.966  0.0100  0.2917 -1.7769
10342TIP3    H255222   3.275   5.310  11.943  1.3687 -0.5644  0.2881
10343TIP3   OH255223   5.961   2.404  10.753  0.3027 -0.3815  0.1085
10343TIP3    H155224   5.975   2.408  10.658  2.0175 -0.0081  0.3423
10343TIP3    H255225   5.980   2.313  10.776 -0.8475 -0.6557  0.0030
10344TIP3   OH255226   0.162   3.773  12.186  0.2637  0.1735  0.0010
10344TIP3    H155227   0.100   3.712  12.145 -1.0282  1.0646  0.5712
10344TIP3    H255228   0.186   3.732  12.268 -1.2400  0.7416  0.7722
10345TIP3   OH255229   4.466   5.019  20.439 -0.0182  0.4037  0.2865
10345TIP3    H155230   4.508   5.086  20.385  0.2075  0.4777  0.5526
10345TIP3    H255231   4.496   4.936  20.402 -0.0269  0.4533  0.1674
10346TIP3   OH255232   1.324   4.348   9.877  0.1649 -0.0050  0.5615
10346TIP3    H155233   1.349   4.257   9.893 -1.1489 -0.7505 -1.2309
10346TIP3    H255234   1.337   4.360   9.783 -0.4948  1.4012  0.6250
10347TIP3   OH255235   1.104   3.136   9.937  0.3943  0.4359 -0.2385
10347TIP3    H155236   1.190   3.122   9.976  0.8990 -0.2315 -1.5511
10347TIP3    H255237   1.083   3.053   9.895 -0.6695  0.7620 -0.3798
10348TIP3   OH255238   1.814   5.933  12.054  0.1262  0.1817  0.3144
10348TIP3    H155239   1.906   5.960  12.047  0.2263 -0.3585 -0.7675
10348TIP3    H255240   1.818   5.838  12.065 -0.2840  0.2787  1.2919
10349TIP3   OH255241   6.561   3.338  11.053  0.1684  0.0262 -0.3649
10349TIP3    H155242   6.655   3.348  11.063  0.3817 -1.0161 -1.1834
10349TIP3    H255243   6.549   3.303  10.964 -1.1857  2.7470 -1.3835
10350TIP3   OH255244   0.944   2.232  10.967  0.3250  0.0455 -0.5619
10350TIP3    H155245   0.858   2.268  10.987  1.1396  1.1857  1.1565
10350TIP3    H255246   0.941   2.142  11.001  0.0506  0.3430  0.2401
10351TIP3   OH255247   4.380   5.768  10.050 -0.3649 -0.3866 -0.1683
10351TIP3    H155248   4.399   5.857  10.081  0.2338 -0.8408  0.8076
10351TIP3    H255249   4.466   5.728  10.037 -0.6164 -0.5352 -1.5136
10352TIP3   OH255250   5.258   4.507  11.309 -0.2040 -0.2592 -0.0617
10352TIP3    H155251   5.180   4.559  11.325 -1.6705 -2.8364  1.9669
10352TIP3    H255252   5.299   4.497  11.395  2.1389  0.5788 -0.9890
10353TIP3   OH255253   3.976   0.811  12.053  0.7384 -0.3385  0.3127
10353TIP3    H155254   3.892   0.767  12.045  1.0467 -0.8913  0.0630
10353TIP3    H255255   3.982   0.837  12.145  0.8449 -1.4150  0.6194
10354TIP3   OH255256   3.902   0.694   9.966 -0.0825 -0.2510  0.5858
10354TIP3    H155257   3.831   0.734   9.916 -0.6659 -2.1591 -0.2116
10354TIP3    H255258   3.867   0.686  10.055 -0.9374 -1.3065  0.1658
10355TIP3   OH255259   1.200   0.681   9.330  0.2441 -0.1252  0.3483
10355TIP3    H155260   1.189   0.602   9.276  0.5885  1.5547 -2.3674
10355TIP3    H255261   1.294   0.693   9.335  0.1813  0.6146 -0.0883
10356TIP3   OH255262   1.276   5.184  10.198 -0.4516 -0.2265  0.4291
10356TIP3    H155263   1.237   5.251  10.142 -0.4014 -1.9269 -1.7547
10356TIP3    H255264   1.206   5.120  10.211  0.7581 -1.9775 -1.3220
10357TIP3   OH255265   6.519   6.068  11.535 -0.5491  0.3648 -0.0230
10357TIP3    H155266   6.465   6.064  11.456 -0.4432  0.2150 -0.0894
10357TIP3    H255267   6.505   5.983  11.577 -2.4543  1.2628  1.3614
10358TIP3   OH255268   3.667   4.630  10.122  0.0232 -0.2272  0.2980
10358TIP3    H155269   3.710   4.712  10.101  1.8670 -1.5961 -1.7669
10358TIP3    H255270   3.738   4.569  10.140 -1.2158 -1.7124  0.3840
10359TIP3   OH255271   1.551   2.334   9.329  0.2957 -0.6089 -0.0299
10359TIP3    H155272   1.596   2.406   9.286 -0.2605 -0.3519 -0.1981
10359TIP3    H255273   1.603   2.256   9.307 -0.3975 -0.6104 -1.8497
10360TIP3   OH255274   1.658   0.048  11.128  0.4533 -0.6041 -0.1322
10360TIP3    H155275   1.686   0.030  11.038 -0.7617 -1.1874 -0.4106
10360TIP3    H255276   1.623  -0.035  11.159 -2.9207  0.5337 -0.5562
10361TIP3   OH255277   3.535   6.283  12.743 -1.0275  0.2780  0.1567
10361TIP3    H155278   3.559   6.340  12.669 -0.2634  0.5941  0.6423
10361TIP3    H255279   3.440   6.271  12.733 -1.3418  2.1803  0.3947
10362TIP3   OH255280   5.418   1.194  11.992  0.5972 -0.2790 -0.3016
10362TIP3    H155281   5.349   1.195  11.926 -1.0454 -0.8401  1.3224
10362TIP3    H255282   5.372   1.190  12.076  2.6122 -1.3041  0.8533
10363TIP3   OH255283   0.639   3.745  12.284 -0.1754 -0.5210 -0.1423
10363TIP3    H155284   0.598   3.829  12.265  1.4212  0.1296 -0.9133
10363TIP3    H255285   0.565   3.684  12.295 -1.3520  0.9094  0.1956
10364TIP3   OH255286   4.937   1.631  10.383  0.0102 -0.0041 -0.3338
10364TIP3    H155287   4.917   1.724  10.375 -0.3569  0.0558  1.0273
10364TIP3    H255288   5.025   1.622  10.347  0.2655  0.9738  0.0160
10365TIP3   OH255289   6.076   5.599  10.887 -0.5807  0.1614 -0.1686
10365TIP3    H155290   6.056   5.585  10.979 -1.0004 -2.8970 -0.6241
10365TIP3    H255291   6.160   5.554  10.873 -0.1971  1.1422 -1.1569
10366TIP3   OH255292   2.142   5.031   9.803 -0.1839  0.0875 -0.0169
10366TIP3    H155293   2.131   4.958   9.741 -0.5228 -0.5165  0.7437
10366TIP3    H255294   2.232   5.022   9.833 -0.8512 -1.3829  1.7313
10367TIP3   OH255295   2.801   1.001   9.225 -0.8420 -1.2197  0.1340
10367TIP3    H155296   2.757   1.084   9.247  2.8664  0.5777  1.5551
10367TIP3    H255297   2.787   0.991   9.131 -1.7341  0.8309 -0.0168
10368TIP3   OH255298   0.681   0.073  11.104  0.1581  0.4758 -0.1084
10368TIP3    H155299   0.723   0.130  11.169 -1.4259  0.8677  0.6083
10368TIP3    H255300   0.743   0.070  11.032  0.9060  1.9819  0.4240
10369TIP3   OH255301   2.710   2.892  11.628  0.8517 -0.1405 -0.8039
10369TIP3    H155302   2.711   2.982  11.658 -0.2845  0.2725 -1.9127
10369TIP3    H255303   2.706   2.840  11.708  0.5609  0.8252 -0.1711
10370TIP3   OH255304   6.272   3.673  12.671 -0.0241 -0.6835 -0.3418
10370TIP3    H155305   6.297   3.646  12.759 -2.1179 -0.3374  0.4246
10370TIP3    H255306   6.238   3.593  12.631  1.1231 -0.8894 -0.9425
10371TIP3   OH255307   3.530   1.346  12.049  0.1647  0.6204 -0.0969
10371TIP3    H155308   3.623   1.322  12.041  0.7814  1.6599  2.8434
10371TIP3    H255309   3.492   1.322  11.964  2.4856 -2.5157 -0.4402
10372TIP3   OH255310   3.666   5.113  10.146 -0.8060  0.2712 -0.2754
10372TIP3    H155311   3.619   5.189  10.181 -2.4354 -1.3314  1.1759
10372TIP3    H255312   3.755   5.121  10.182 -1.6311  0.2347  1.8690
10373TIP3   OH255313   5.557   4.456  10.304 -0.5554 -0.8298  0.0824
10373TIP3    H155314   5.569   4.532  10.248  0.2936 -0.8110  0.2684
10373TIP3    H255315   5.472   4.469  10.345 -0.1643  0.3284  0.5652
10374TIP3   OH255316   0.402   2.184  10.161 -0.4098 -0.3653 -0.2279
10374TIP3    H155317   0.497   2.194  10.156 -0.5606  1.2366 -0.2785
10374TIP3    H255318   0.368   2.268  10.131 -1.8243 -0.4385  1.1041
10375TIP3   OH255319   5.420   5.669  12.131 -0.1118 -0.2055  0.5086
10375TIP3    H155320   5.510   5.693  12.109 -0.1427  1.5568  2.0273
10375TIP3    H255321   5.366   5.730  12.081 -0.2738  1.5545  2.6802
10376TIP3   OH255322   3.820   0.083  11.541  0.8770  0.0243 -0.0722
10376TIP3    H155323   3.900   0.080  11.489  0.1700  0.2091 -1.1992
10376TIP3    H255324   3.777   0.165  11.514  1.2545  0.9745  1.9804
10377TIP3   OH255325   4.069   5.053  11.236  0.1149 -0.0139  0.0884
10377TIP3    H155326   3.995   5.109  11.256  0.1056 -0.2136  0.6327
10377TIP3    H255327   4.119   5.049  11.317 -0.2583 -1.3459  0.2725
10378TIP3   OH255328   1.013   0.875   9.632 -0.5567  0.3615 -0.5376
10378TIP3    H155329   0.998   0.953   9.580 -0.6083 -0.2944 -1.5343
10378TIP3    H255330   1.108   0.869   9.641 -0.4431 -0.3131 -1.8516
10379TIP3   OH255331   0.348   6.280  11.255 -0.3220 -0.5876  0.5029
10379TIP3    H155332   0.261   6.315  11.236 -0.1951 -0.3026  0.4385
10379TIP3    H255333   0.340   6.186  11.239 -0.1682 -0.3500 -1.1584
10380TIP3   OH255334   0.860   0.350  13.841 -0.2787  0.6505 -0.0704
10380TIP3    H155335   0.880   0.258  13.856 -0.7490  0.3146 -1.3822
10380TIP3    H255336   0.784   0.368  13.896 -2.6499 -0.8355 -2.5847
10381TIP3   OH255337   0.535   2.110  10.716 -0.4567 -0.0736  0.5684
10381TIP3    H155338   0.585   2.140  10.640 -1.3035  1.4406  0.5644
10381TIP3    H255339   0.445   2.104  10.685 -1.0092  1.6523  1.6700
10382TIP3   OH255340   0.218   1.500  12.075 -0.2654  0.3488  0.9722
10382TIP3    H155341   0.229   1.423  12.019 -1.5989 -0.1990  1.4328
10382TIP3    H255342   0.298   1.551  12.061 -0.0342 -0.3587 -0.5062
10383TIP3   OH255343   3.731   3.503  10.584  0.1861  0.1976  0.4699
10383TIP3    H155344   3.728   3.564  10.510 -0.5538 -0.0332  0.3044
10383TIP3    H255345   3.821   3.509  10.616  0.6050  0.0813 -0.6381
10384TIP3   OH255346   3.853   2.344  11.092 -0.2809 -0.1587  0.1481
10384TIP3    H155347   3.892   2.349  11.179 -0.6177  0.3913  0.2749
10384TIP3    H255348   3.790   2.272  11.098 -1.1707  0.6442  0.7240
10385TIP3   OH255349   1.446   0.432   9.499  0.0089  0.1039 -0.0445
10385TIP3    H155350   1.430   0.347   9.459 -1.5378  0.7776 -0.9691
10385TIP3    H255351   1.456   0.414   9.593 -0.0036 -1.1097 -0.2695
10386TIP3   OH255352   3.805   3.891  10.716  0.3499  0.1751 -0.6075
10386TIP3    H155353   3.799   3.797  10.696  1.6707 -0.1374  0.3105
10386TIP3    H255354   3.898   3.905  10.734  0.0506  1.5301 -0.0541
10387TIP3   OH255355   3.339   0.336  11.992 -0.1883 -0.1155  0.7659
10387TIP3    H155356   3.247   0.344  11.967 -0.2814 -0.8292  0.8577
10387TIP3    H255357   3.356   0.242  11.992 -0.0277 -0.1163  2.8101
10388TIP3   OH255358   0.092   6.565  10.899  0.4297 -0.4387 -0.2911
10388TIP3    H155359   0.176   6.593  10.937  1.0271  0.4678 -2.1398
10388TIP3    H255360   0.101   6.586  10.806 -1.2634 -1.7997 -0.7939
10389TIP3   OH255361   5.876   1.101  11.486 -0.1100  0.0579  0.2081
10389TIP3    H155362   5.938   1.042  11.528  1.5657  1.7751  0.2940
10389TIP3    H255363   5.807   1.114  11.550 -0.1949 -1.2865  0.4196
10390TIP3   OH255364   2.745   1.485  10.890  0.3274 -0.0190 -0.0582
10390TIP3    H155365   2.701   1.405  10.862 -0.2893  0.0268  0.7344
10390TIP3    H255366   2.811   1.456  10.953  0.3918  0.0565 -0.0906
10391TIP3   OH255367   4.462   3.943  11.886 -0.1104  0.1381  0.2686
10391TIP3    H155368   4.554   3.918  11.883  0.0230  0.6805 -1.9675
10391TIP3    H255369   4.464   4.039  11.879 -0.8355  0.1111 -0.4321
10392TIP3   OH255370   5.800   5.655  10.450 -0.1406 -0.0875  0.0858
10392TIP3    H155371   5.827   5.746  10.454 -0.5866  0.1124 -0.9577
10392TIP3    H255372   5.795   5.636  10.356 -0.3525 -1.0935  0.2861
10393TIP3   OH255373   5.646   5.212  11.218  0.0213  0.3025 -0.1781
10393TIP3    H155374   5.685   5.127  11.197  0.6442  0.5783 -0.1643
10393TIP3    H255375   5.552   5.198  11.212  0.1493  0.0263 -1.7733
10394TIP3   OH255376   3.842   4.599  12.385  0.1999  0.0084 -0.7144
10394TIP3    H155377   3.879   4.532  12.328 -0.5032  0.0580 -1.2313
10394TIP3    H255378   3.846   4.561  12.473 -0.9512 -1.0528 -1.0993
10395TIP3   OH255379   0.245   5.321  10.509 -0.6469 -0.0966  0.4742
10395TIP3    H155380   0.240   5.230  10.482 -2.5579 -0.0310  0.4844
10395TIP3    H255381   0.173   5.365  10.463  0.5665  1.5456  0.0297
10396TIP3   OH255382   4.854   2.262  10.888  0.0981 -0.2314 -0.5622
10396TIP3    H155383   4.812   2.198  10.945  1.0378 -0.3800 -0.0106
10396TIP3    H255384   4.837   2.346  10.930 -1.6532 -0.0157 -1.6051
10397TIP3   OH255385   2.660   2.812  11.910 -0.4349 -0.2970  0.1906
10397TIP3    H155386   2.660   2.721  11.940 -0.4274 -0.0971  0.8127
10397TIP3    H255387   2.622   2.861  11.983  1.1590  0.4222  0.5742
10398TIP3   OH255388   4.937   1.465  11.628  0.6864  0.3638  0.4266
10398TIP3    H155389   4.907   1.526  11.696  1.2135 -1.6219  2.5488
10398TIP3    H255390   4.961   1.386  11.675 -0.1802 -1.6374 -2.2224
10399TIP3   OH255391   4.693   4.041   9.362 -0.3000  0.3916 -0.1102
10399TIP3    H155392   4.750   4.108   9.324  0.0589  0.3948  0.4360
10399TIP3    H255393   4.608   4.056   9.320 -0.6358  2.1467  1.0743
10400TIP3   OH255394   4.226   0.831  11.970 -0.4128 -0.4486 -0.1761
10400TIP3    H155395   4.256   0.848  12.060  0.6823 -2.9197  0.0191
10400TIP3    H255396   4.138   0.795  11.981 -0.6065  0.0275 -0.1634
10401TIP3   OH255397   4.098   5.257   9.552 -0.0838 -0.1661 -0.1086
10401TIP3    H155398   4.135   5.292   9.471  0.5218  1.3772  0.7953
10401TIP3    H255399   4.042   5.326   9.585  0.8269 -0.1618  1.5295
10402TIP3   OH255400   0.666   4.645  12.785 -0.5278 -0.2822  0.1041
10402TIP3    H155401   0.747   4.670  12.742 -0.5631 -0.8439 -0.2992
10402TIP3    H255402   0.688   4.639  12.878 -0.3546  0.5408  0.1302
10403TIP3   OH255403   1.803   4.887   9.839 -0.1022  0.2378 -0.3599
10403TIP3    H155404   1.828   4.804   9.881  0.8617  0.6184 -0.1462
10403TIP3    H255405   1.864   4.896   9.766 -0.3231  0.6626 -0.4936
10404TIP3   OH255406   2.226   4.502  10.848  0.4589 -0.6412  0.0161
10404TIP3    H155407   2.240   4.524  10.757  0.0946  1.0784  0.3351
10404TIP3    H255408   2.218   4.407  10.849  1.5794 -0.7838 -1.5639
10405TIP3   OH255409   4.696   5.856  10.558  0.2021 -0.6750  0.2699
10405TIP3    H155410   4.732   5.922  10.499  0.8928 -0.2984  1.0816
10405TIP3    H255411   4.669   5.906  10.636  0.7064 -1.3377  0.8852
10406TIP3   OH255412   1.208   2.954  12.350  0.5745 -0.6010  0.0361
10406TIP3    H155413   1.129   3.002  12.327  1.5591  0.6871 -0.7718
10406TIP3    H255414   1.186   2.862  12.333 -1.3456 -0.5034  1.6404
10407TIP3   OH255415   0.614   1.081  12.435 -0.5338 -0.1230 -0.0183
10407TIP3    H155416   0.606   1.175  12.452 -0.7641 -0.1650  0.1187
10407TIP3    H255417   0.623   1.042  12.522  0.5286 -0.1429 -0.1323
10408TIP3   OH255418   5.796   0.547   9.593  0.6355 -0.5481  0.3414
10408TIP3    H155419   5.772   0.627   9.640  0.1345 -1.4828  1.7407
10408TIP3    H255420   5.892   0.546   9.596  0.8710  1.5091 -2.3905
10409TIP3   OH255421   0.900   5.920  10.390 -0.1962  0.6351  0.0819
10409TIP3    H155422   0.884   5.946  10.299  0.4246  2.1640  0.3861
10409TIP3    H255423   0.860   5.834  10.397  0.5836  0.0405 -1.9135
10410TIP3   OH255424   2.171   5.146  10.490 -0.0987 -0.1911  1.1198
10410TIP3    H155425   2.104   5.140  10.422  0.3429  1.8088  0.4369
10410TIP3    H255426   2.132   5.200  10.558 -0.1150 -1.2225  1.9521
10411TIP3   OH255427   0.217   5.826  13.561  0.4399 -0.0432 -0.0630
10411TIP3    H155428   0.125   5.829  13.534 -0.4585 -1.2388  2.5757
10411TIP3    H255429   0.232   5.909  13.605 -0.2773 -0.9686  2.0077
10412TIP3   OH255430   3.253   5.463  11.156 -0.0272 -0.3190  0.2905
10412TIP3    H155431   3.214   5.457  11.068  0.9499  0.0705 -0.1872
10412TIP3    H255432   3.242   5.375  11.192 -2.8820  0.1711  0.8927
10413TIP3   OH255433   0.703   5.913  13.205 -0.0209  0.5274  0.4356
10413TIP3    H155434   0.723   5.921  13.298  2.3624 -1.2999  0.1730
10413TIP3    H255435   0.762   5.976  13.163  0.1277  0.1262  0.0431
10414TIP3   OH255436   4.113   3.381  12.414  0.2093 -0.0637  0.1566
10414TIP3    H155437   4.071   3.322  12.352 -0.0846 -1.2475  1.4402
10414TIP3    H255438   4.055   3.381  12.490 -0.2448  2.5579 -0.0902
10415TIP3   OH255439   2.742   4.198  12.436 -0.5361  0.1880 -0.1242
10415TIP3    H155440   2.707   4.169  12.520  2.5213  0.9778  1.5490
10415TIP3    H255441   2.751   4.117  12.385  1.0184 -0.8669  1.7275
10416TIP3   OH255442   4.359   5.689  11.311 -0.0950 -0.3151 -0.0145
10416TIP3    H155443   4.273   5.712  11.276  0.7102 -0.9515 -2.5970
10416TIP3    H255444   4.415   5.764  11.287  0.5490 -0.9146 -0.4074
10417TIP3   OH255445   2.416   4.786   9.593 -0.4361  0.6092 -0.2640
10417TIP3    H155446   2.454   4.862   9.549 -0.8644  0.2216 -1.3255
10417TIP3    H255447   2.476   4.714   9.574 -0.2836  0.5703  0.3387
10418TIP3   OH255448   3.005   1.426  11.008 -0.7480 -0.5770  0.4471
10418TIP3    H155449   3.047   1.444  10.924 -0.7487 -1.3707  0.2707
10418TIP3    H255450   3.076   1.425  11.072 -0.6123 -1.0073  0.2920
10419TIP3   OH255451   4.364   4.912  10.402  0.8489 -0.3691 -0.2840
10419TIP3    H155452   4.304   4.862  10.457  1.4725 -2.0984 -1.1217
10419TIP3    H255453   4.360   5.001  10.438  0.1619 -1.1191  1.6390
10420TIP3   OH255454   4.330   5.549  10.529 -0.2616 -0.2165  0.3861
10420TIP3    H155455   4.364   5.555  10.618  0.6504 -0.2052  0.0468
10420TIP3    H255456   4.403   5.516  10.477 -1.2298 -1.6940 -0.1111
10421TIP3   OH255457   5.090   1.601   9.452  0.4656 -0.3634 -0.0584
10421TIP3    H155458   5.185   1.597   9.446  0.6614  0.5704  1.5743
10421TIP3    H255459   5.072   1.592   9.546 -1.0158  0.0313 -0.2733
10422TIP3   OH255460   4.049   6.303  11.800  0.3119 -0.4227 -0.0238
10422TIP3    H155461   4.059   6.235  11.867 -1.5584 -0.2176  0.4971
10422TIP3    H255462   4.039   6.384  11.850  0.6453 -0.0137 -0.6130
10423TIP3   OH255463   3.000   2.669  10.314 -0.0945 -0.0268  0.0640
10423TIP3    H155464   2.940   2.724  10.365  0.5925 -0.0429  0.9057
10423TIP3    H255465   2.944   2.628  10.248 -1.1873 -0.6854  1.3433
10424TIP3   OH255466   1.611   3.201  12.765 -0.0527  0.0316  0.0897
10424TIP3    H155467   1.683   3.264  12.771 -0.9014  0.9585  1.0284
10424TIP3    H255468   1.540   3.250  12.722 -0.7233 -0.2712  0.8200
10425TIP3   OH255469   2.827   5.122  10.693 -0.7485  0.0590  0.1589
10425TIP3    H155470   2.847   5.130  10.600 -2.8542  0.0041 -0.3526
10425TIP3    H255471   2.848   5.208  10.729  1.4452 -0.3352 -0.0163
10426TIP3   OH255472   1.409   2.006  10.586 -0.0006  0.5585 -0.4744
10426TIP3    H155473   1.432   1.947  10.657  0.8271  1.9040  0.4128
10426TIP3    H255474   1.321   2.036  10.607 -1.5063 -2.2163 -2.2555
10427TIP3   OH255475   2.359   6.177  11.908  0.0703 -0.3873  0.6436
10427TIP3    H155476   2.325   6.240  11.845 -0.7785 -0.6868  0.7853
10427TIP3    H255477   2.396   6.230  11.979 -0.3781 -0.0448  0.6269
10428TIP3   OH255478   0.621   2.983  12.548 -0.0811 -0.3291  0.6488
10428TIP3    H155479   0.590   3.029  12.469  0.2330 -1.7077 -0.3107
10428TIP3    H255480   0.562   3.013  12.617 -0.7919  0.4194 -0.2432
10429TIP3   OH255481   4.983   6.161  11.514 -0.4184  0.0935 -0.5385
10429TIP3    H155482   4.995   6.179  11.607 -3.2728  0.2972 -0.1116
10429TIP3    H255483   5.045   6.090  11.495  0.9265  0.7120  1.2375
10430TIP3   OH255484   1.113   2.901   9.842 -0.1751 -0.0281 -0.3259
10430TIP3    H155485   1.093   2.808   9.830  1.7546 -0.6061  0.6093
10430TIP3    H255486   1.201   2.911   9.807  0.1237  1.1982  0.7208
10431TIP3   OH255487   2.314   1.431  10.382  0.4430  0.3399  0.0229
10431TIP3    H155488   2.258   1.358  10.405  1.0693 -0.3264 -0.5027
10431TIP3    H255489   2.385   1.392  10.331  0.9056  1.2811 -0.0881
10432TIP3   OH255490   1.966   2.172  13.514  0.7557 -0.6966  0.3663
10432TIP3    H155491   1.871   2.183  13.519  0.6878 -0.3228 -1.2186
10432TIP3    H255492   2.000   2.258  13.490  1.6536 -0.4987  2.1697
10433TIP3   OH255493   0.214   1.503  13.137  0.2239 -0.9986 -0.8169
10433TIP3    H155494   0.303   1.539  13.144 -0.6966  1.1477  1.3401
10433TIP3    H255495   0.172   1.558  13.071 -0.2034 -0.2862  0.0278
10434TIP3   OH255496   5.189   0.450  11.310 -0.1582 -0.0199  0.2427
10434TIP3    H155497   5.172   0.537  11.348  0.6239 -0.2319  1.1379
10434TIP3    H255498   5.154   0.389  11.375  0.9857 -0.3894  0.5417
10435TIP3   OH255499   1.371   1.756  10.815 -0.4059 -0.2007  0.1203
10435TIP3    H155500   1.311   1.827  10.838 -0.7378 -0.0610 -1.1216
10435TIP3    H255501   1.316   1.691  10.773  0.1429 -0.5461 -0.0759
10436TIP3   OH255502   4.736   2.239   9.435  0.3958  0.0463  0.5492
10436TIP3    H155503   4.744   2.288   9.353 -1.1560 -3.0446 -1.6532
10436TIP3    H255504   4.814   2.185   9.438  0.1157 -0.3515  0.7559
10437TIP3   OH255505   5.020   5.839  10.184 -0.4665 -0.1903 -0.1931
10437TIP3    H155506   5.006   5.931  10.208  1.4417 -0.1502  0.9532
10437TIP3    H255507   4.942   5.794  10.216 -0.9493  0.8689  0.1764
10438TIP3   OH255508   1.010   1.558  11.644 -0.0563 -0.6968  0.0726
10438TIP3    H155509   0.971   1.636  11.683  1.0737 -0.4620  0.7982
10438TIP3    H255510   0.972   1.485  11.694  1.5209 -0.3893  1.8701
10439TIP3   OH255511   5.782   3.877  10.907 -0.1003  0.1131  0.1325
10439TIP3    H155512   5.738   3.944  10.959  0.2155  1.1330 -0.8652
10439TIP3    H255513   5.875   3.888  10.927 -0.0645 -0.1406  0.1036
   6.62065   6.62065  30.00000
