Title
55513
    1DOPE     N    1   0.460   5.865  13.932  0.3245 -0.7689 -0.1284
    1DOPE   HN1    2   0.413   5.774  13.947  1.1571 -1.1105  0.4550
    1DOPE   HN2    3   0.422   5.929  14.004 -0.8986 -0.6125 -0.8714
    1DOPE   HN3    4   0.436   5.911  13.841  0.9996  1.3899  0.7113
    1DOPE   C12    5   0.611   5.866  13.957  0.2842  0.3765 -0.4739
    1DOPE  H12A    6   0.616   5.833  14.063  1.2999  2.6825  0.2730
    1DOPE  H12B    7   0.653   5.969  13.952  0.5892  0.2712 -0.1402
    1DOPE   C11    8   0.691   5.785  13.857 -0.2934  0.6680  0.6493
    1DOPE  H11A    9   0.799   5.798  13.880 -0.3573  0.8718  0.8459
    1DOPE  H11B   10   0.685   5.839  13.760 -0.9936 -1.3287 -0.4670
    1DOPE     P   11   0.747   5.535  13.817  0.2534  0.0656  0.0136
    1DOPE   O13   12   0.691   5.404  13.862 -0.0154 -0.5985  0.0069
    1DOPE   O14   13   0.875   5.575  13.876  0.1365  0.5007  0.2168
    1DOPE   O11   14   0.764   5.530  13.661  0.9148 -0.5938 -0.0462
    1DOPE   O12   15   0.635   5.650  13.844 -0.4216 -0.3400  0.0790
    1DOPE    C1   16   0.722   5.622  13.567  0.3120  0.0531  0.0750
    1DOPE    HA   17   0.643   5.684  13.615  0.7322 -1.1903  2.5289
    1DOPE    HB   18   0.655   5.569  13.496 -1.7373 -0.2831  2.1388
    1DOPE    C2   19   0.835   5.712  13.507  0.5829  0.3911 -0.2525
    1DOPE    HS   20   0.902   5.731  13.593 -0.7908  2.2243  0.4904
    1DOPE   O21   21   0.775   5.846  13.479 -0.1695  0.9382  0.4601
    1DOPE   C21   22   0.864   5.935  13.466 -0.1424  0.5561 -0.2930
    1DOPE   O22   23   0.984   5.930  13.499  0.2856  0.6090  0.3856
    1DOPE   C22   24   0.801   6.058  13.389  0.1703  0.0082  0.8133
    1DOPE   H2R   25   0.876   6.140  13.381 -0.5500  0.5797 -0.4002
    1DOPE   H2S   26   0.721   6.088  13.459 -1.9025 -2.3334 -0.4012
    1DOPE    C3   27   0.915   5.655  13.388  0.4654  0.7201  0.1369
    1DOPE    HX   28   0.945   5.556  13.429 -2.2046  0.3539  1.3973
    1DOPE    HY   29   1.009   5.714  13.378  0.1316  1.4524  1.1603
    1DOPE   O31   30   0.840   5.654  13.261  0.8387  0.2868 -0.0964
    1DOPE   C31   31   0.905   5.583  13.163  0.2302 -0.0154  0.1272
    1DOPE   O32   32   1.005   5.517  13.181  0.1458  0.5593 -0.4068
    1DOPE   C32   33   0.834   5.591  13.029 -0.0748  0.5213 -0.0632
    1DOPE   H2X   34   0.747   5.523  13.041  2.0917 -2.8242 -1.8084
    1DOPE   H2Y   35   0.798   5.696  13.020 -0.5764  0.3521 -0.0576
    1DOPE   C23   36   0.722   6.029  13.266 -0.3430 -0.1931  0.2005
    1DOPE   H3R   37   0.654   6.116  13.252  0.6102  0.5156 -0.0820
    1DOPE   H3S   38   0.670   5.932  13.286 -0.7930 -0.1178 -0.5661
    1DOPE   C24   39   0.815   6.017  13.146 -1.2319 -0.0707 -0.9503
    1DOPE   H4R   40   0.881   5.928  13.154 -0.1296  0.6889 -1.3915
    1DOPE   H4S   41   0.890   6.098  13.148 -0.4603 -0.7540 -1.4462
    1DOPE   C25   42   0.741   6.014  13.014 -0.4986  0.1976 -0.4929
    1DOPE   H5R   43   0.693   6.111  12.991  1.0477  1.2262  0.4361
    1DOPE   H5S   44   0.667   5.931  13.014  3.6654 -3.9074 -1.0577
    1DOPE   C26   45   0.838   5.989  12.898  0.2564 -0.0797  0.4822
    1DOPE   H6R   46   0.887   5.889  12.902  0.4672  0.0421  1.1060
    1DOPE   H6S   47   0.926   6.057  12.905  2.7989 -2.9300 -1.2849
    1DOPE   C27   48   0.766   6.019  12.766  0.3042 -0.2246 -0.0226
    1DOPE   H7R   49   0.722   6.121  12.770 -0.0780 -0.3610 -0.6531
    1DOPE   H7S   50   0.679   5.950  12.764 -0.0606  0.2107  0.5605
    1DOPE   C28   51   0.863   5.986  12.651 -0.2087  0.7054 -0.6058
    1DOPE   H8R   52   0.898   5.883  12.670  2.0845  1.6480  0.6613
    1DOPE   H8S   53   0.955   6.048  12.650  1.1167 -1.1819 -1.2687
    1DOPE   C29   54   0.787   5.995  12.522  0.2619  0.4714 -0.0646
    1DOPE   H9R   55   0.697   5.932  12.513  0.4885  0.4007 -2.6299
    1DOPE  C210   56   0.813   6.077  12.420 -0.8889 -0.2419  0.0642
    1DOPE  H10R   57   0.742   6.080  12.336 -0.3656 -2.2007 -0.4839
    1DOPE  C211   58   0.943   6.159  12.406 -0.5407  0.1796  0.2981
    1DOPE  H11R   59   1.018   6.131  12.482  0.5643 -6.2895 -2.5394
    1DOPE  H11S   60   0.922   6.268  12.419  1.2646  0.5491  0.3223
    1DOPE  C212   61   0.999   6.137  12.261 -0.3914 -0.1107  0.4216
    1DOPE  H12R   62   1.038   6.035  12.241 -2.1082 -0.3298 -2.4754
    1DOPE  H12S   63   1.081   6.209  12.242 -1.3490  0.7349 -0.6986
    1DOPE  C213   64   0.907   6.169  12.140  0.3777 -0.0109 -0.1968
    1DOPE  H13R   65   0.875   6.275  12.141 -1.8693 -0.6570  0.9329
    1DOPE  H13S   66   0.818   6.102  12.146  0.2250  0.0057 -1.8894
    1DOPE  C214   67   0.981   6.140  12.005  0.0159  0.1236  0.4597
    1DOPE  H14R   68   1.033   6.042  12.006 -0.4820 -0.1427  0.9765
    1DOPE  H14S   69   1.058   6.218  11.987  0.2191 -0.4315 -1.2800
    1DOPE  C215   70   0.887   6.139  11.885 -0.7229  0.3656  0.0580
    1DOPE  H15R   71   0.861   6.245  11.865 -1.8900 -0.1980 -1.6091
    1DOPE  H15S   72   0.793   6.083  11.904 -1.0701  1.8227  3.3917
    1DOPE  C216   73   0.946   6.091  11.750  0.0478  0.3291 -0.5817
    1DOPE  H16R   74   0.988   5.989  11.767 -1.1716 -0.1806 -0.5018
    1DOPE  H16S   75   1.027   6.161  11.720 -1.7965  1.9956 -1.9152
    1DOPE  C217   76   0.843   6.087  11.632 -0.7431  0.4170 -0.1882
    1DOPE  H17R   77   0.752   6.030  11.661 -1.0527  0.4676 -1.0242
    1DOPE  H17S   78   0.887   6.021  11.554 -0.7029  1.5626 -1.1594
    1DOPE  C218   79   0.803   6.216  11.565  0.1773 -0.1956 -0.1942
    1DOPE  H18R   80   0.749   6.277  11.640  0.0653  2.3104 -2.1653
    1DOPE  H18S   81   0.726   6.188  11.491 -1.2532  0.2024  1.1026
    1DOPE  H18T   82   0.885   6.278  11.523  0.2965 -0.1116  0.1583
    1DOPE   C33   83   0.922   5.562  12.907 -1.4122 -0.4092  0.1313
    1DOPE   H3X   84   0.956   5.456  12.902  1.4954  0.3110  2.1581
    1DOPE   H3Y   85   1.017   5.619  12.911 -1.9058  1.0531 -4.0353
    1DOPE   C34   86   0.852   5.590  12.779 -0.4159 -0.1860 -0.6013
    1DOPE   H4X   87   0.769   5.518  12.761  1.0863 -1.5099 -2.5479
    1DOPE   H4Y   88   0.813   5.694  12.774  1.8874  1.1421  3.9700
    1DOPE   C35   89   0.955   5.562  12.661 -0.6665 -0.3642 -0.4732
    1DOPE   H5X   90   0.979   5.453  12.665  0.0799 -0.1564  1.0681
    1DOPE   H5Y   91   1.051   5.615  12.674 -1.6889  1.4513 -0.0064
    1DOPE   C36   92   0.898   5.589  12.531 -0.0276  0.4622 -0.0405
    1DOPE   H6X   93   0.881   5.697  12.513  0.0905  0.4257 -0.3862
    1DOPE   H6Y   94   0.803   5.531  12.536 -0.3123  1.0221  1.7205
    1DOPE   C37   95   0.987   5.532  12.412  0.2275  0.0604 -0.9632
    1DOPE   H7X   96   1.086   5.581  12.420  0.9566 -1.2541 -1.5957
    1DOPE   H7Y   97   0.999   5.423  12.429 -1.1882 -0.3688 -2.4907
    1DOPE   C38   98   0.914   5.558  12.283 -0.2498  0.0634 -0.2767
    1DOPE   H8X   99   0.812   5.514  12.293 -0.2223  0.2203  0.8221
    1DOPE   H8Y  100   0.960   5.495  12.204 -0.1593 -0.9649  0.5809
    1DOPE   C39  101   0.917   5.703  12.242 -0.2580 -0.0358 -0.1162
    1DOPE   H9X  102   0.951   5.777  12.316 -1.0081 -0.1335  0.3266
    1DOPE  C310  103   0.908   5.755  12.115 -0.5417 -0.1784 -0.4066
    1DOPE  H10X  104   0.909   5.863  12.099 -0.5456  0.2140  1.9425
    1DOPE  C311  105   0.880   5.685  11.987 -0.6640 -0.0276  0.4014
    1DOPE  H11X  106   0.820   5.593  12.000  0.2814 -0.8658 -0.9584
    1DOPE  H11Y  107   0.822   5.752  11.920  2.6635  3.9971  1.1342
    1DOPE  C312  108   1.011   5.633  11.927  0.4197 -0.8068  0.9950
    1DOPE  H12X  109   1.060   5.563  11.999 -1.4205 -1.8666  1.2900
    1DOPE  H12Y  110   1.075   5.722  11.909  0.9177 -1.3833 -0.1664
    1DOPE  C313  111   0.990   5.562  11.794 -0.1676 -0.2802  0.1494
    1DOPE  H13X  112   1.093   5.539  11.758 -0.5012 -1.5963 -0.0286
    1DOPE  H13Y  113   0.943   5.463  11.810  1.6809 -1.1405  0.5669
    1DOPE  C314  114   0.915   5.639  11.686 -0.7220  0.6667 -0.4765
    1DOPE  H14X  115   0.968   5.737  11.685 -1.0851  0.8668 -1.1718
    1DOPE  H14Y  116   0.811   5.658  11.719 -1.5136 -1.0988 -1.7833
    1DOPE  C315  117   0.930   5.561  11.552  0.3422  0.4170  0.2991
    1DOPE  H15X  118   0.866   5.470  11.556  0.2189  0.5287  1.1270
    1DOPE  H15Y  119   1.033   5.521  11.553 -0.0993 -0.7888 -0.2058
    1DOPE  C316  120   0.903   5.644  11.432 -0.0167 -0.3140 -0.1897
    1DOPE  H16X  121   0.883   5.579  11.344  0.2513  1.4028 -1.5830
    1DOPE  H16Y  122   0.996   5.703  11.418  0.0608 -0.7930 -1.9385
    1DOPE  C317  123   0.786   5.744  11.453  0.3580 -0.8637  0.2316
    1DOPE  H17X  124   0.694   5.682  11.453  0.3478 -0.9095 -1.6343
    1DOPE  H17Y  125   0.783   5.797  11.550  2.4413  0.0458 -0.1509
    1DOPE  C318  126   0.787   5.840  11.327  0.3042  0.2089  0.0491
    1DOPE  H18X  127   0.760   5.788  11.233  0.2879 -0.0102  0.1737
    1DOPE  H18Y  128   0.710   5.919  11.342 -1.1577 -0.9934 -0.8432
    1DOPE  H18Z  129   0.880   5.895  11.303  1.2432 -2.1691 -2.1275
    2DOPE     N  130   0.586   5.198  13.988  0.0193  0.1438 -0.6791
    2DOPE   HN1  131   0.665   5.137  14.016 -0.7468 -1.2579 -1.4183
    2DOPE   HN2  132   0.520   5.123  13.958  0.4127 -0.0274 -1.1317
    2DOPE   HN3  133   0.615   5.265  13.915  1.2174  0.3295 -0.0565
    2DOPE   C12  134   0.573   5.277  14.118 -0.4829 -0.7011  0.3308
    2DOPE  H12A  135   0.667   5.331  14.140  0.1960 -1.5106 -0.4991
    2DOPE  H12B  136   0.539   5.203  14.194 -1.2550 -0.2137  0.4746
    2DOPE   C11  137   0.461   5.382  14.096 -0.5705  0.3370  0.3153
    2DOPE  H11A  138   0.371   5.327  14.059 -1.0832 -0.5859  2.7184
    2DOPE  H11B  139   0.487   5.447  14.010  0.3464 -3.0642 -2.2043
    2DOPE     P  140   0.445   5.592  14.253  0.0848 -0.2162 -0.1031
    2DOPE   O13  141   0.589   5.620  14.251 -0.4259  0.8481 -0.3558
    2DOPE   O14  142   0.359   5.621  14.369 -0.6256  0.0006 -0.2645
    2DOPE   O11  143   0.378   5.660  14.128  0.6526 -0.0003 -0.5345
    2DOPE   O12  144   0.425   5.446  14.214 -0.3247 -0.1696 -0.0304
    2DOPE    C1  145   0.234   5.652  14.111 -0.9643 -0.4244 -0.5775
    2DOPE    HA  146   0.198   5.757  14.100  0.1789 -0.0909 -1.3680
    2DOPE    HB  147   0.170   5.609  14.191  2.4347 -1.3105  1.9393
    2DOPE    C2  148   0.203   5.563  13.985  0.1535 -0.5640 -0.6803
    2DOPE    HS  149   0.206   5.458  14.022 -0.7545 -0.8996 -1.5110
    2DOPE   O21  150   0.296   5.586  13.873 -0.5437 -0.1606 -0.6930
    2DOPE   C21  151   0.305   5.483  13.790 -0.0355 -0.2305  0.8823
    2DOPE   O22  152   0.267   5.367  13.808  0.0930 -0.4259 -0.7815
    2DOPE   C22  153   0.352   5.535  13.649 -0.7786 -0.0220  0.0326
    2DOPE   H2R  154   0.353   5.449  13.578 -4.0989  0.3696 -0.6448
    2DOPE   H2S  155   0.455   5.574  13.666 -0.6992  0.5233 -1.4878
    2DOPE    C3  156   0.060   5.593  13.935  0.2428  0.2616  0.1236
    2DOPE    HX  157   0.056   5.693  13.887 -0.1669  0.5417  0.7334
    2DOPE    HY  158  -0.011   5.595  14.020 -1.8953 -0.7199 -1.5460
    2DOPE   O31  159   0.007   5.501  13.836  0.7507 -0.1778 -0.1366
    2DOPE   C31  160  -0.037   5.384  13.886  0.4699 -0.8375  0.5602
    2DOPE   O32  161  -0.024   5.342  14.000 -0.4291 -0.0674  0.0114
    2DOPE   C32  162  -0.099   5.303  13.783 -0.1767 -0.4428  0.0474
    2DOPE   H2X  163  -0.101   5.197  13.817  1.1177 -0.4002  0.2881
    2DOPE   H2Y  164  -0.203   5.340  13.775 -1.1899 -3.1559 -0.6444
    2DOPE   C23  165   0.252   5.639  13.603 -0.0786 -0.3563  0.2881
    2DOPE   H3R  166   0.275   5.742  13.637  1.0761 -0.0344 -1.3560
    2DOPE   H3S  167   0.150   5.624  13.645 -1.3195  4.9218 -0.1825
    2DOPE   C24  168   0.235   5.648  13.447  0.6338  0.2703  0.7592
    2DOPE   H4R  169   0.147   5.709  13.419  1.0470  0.8521  0.7092
    2DOPE   H4S  170   0.216   5.543  13.415 -0.8323  0.6632  0.2636
    2DOPE   C25  171   0.362   5.683  13.370 -0.8917  0.1242  0.3225
    2DOPE   H5R  172   0.430   5.599  13.396 -1.1042 -1.1968 -2.8859
    2DOPE   H5S  173   0.402   5.779  13.408 -1.0132  0.2104  0.2330
    2DOPE   C26  174   0.338   5.684  13.217  0.4085 -0.2314  0.2668
    2DOPE   H6R  175   0.251   5.749  13.196 -0.5143 -1.5994 -0.2787
    2DOPE   H6S  176   0.302   5.585  13.181  2.0890 -0.5683 -0.6037
    2DOPE   C27  177   0.451   5.744  13.128  0.9422  0.5597  0.4964
    2DOPE   H7R  178   0.551   5.697  13.137  0.3867 -1.1201 -1.3531
    2DOPE   H7S  179   0.455   5.852  13.154 -1.0829  1.3385 -1.9330
    2DOPE   C28  180   0.415   5.749  12.976  0.5871 -0.2333  0.0959
    2DOPE   H8R  181   0.489   5.810  12.920 -0.3061  1.2384  0.4508
    2DOPE   H8S  182   0.319   5.804  12.962  0.7606 -0.1794 -0.9189
    2DOPE   C29  183   0.384   5.608  12.920 -0.1644 -0.6169  0.7157
    2DOPE   H9R  184   0.321   5.548  12.987 -1.4424 -2.3294 -1.8919
    2DOPE  C210  185   0.412   5.565  12.798  0.7785  0.5030  0.6756
    2DOPE  H10R  186   0.380   5.463  12.774  3.1906 -0.7087  2.2244
    2DOPE  C211  187   0.492   5.634  12.692  0.7234  0.0257 -0.2486
    2DOPE  H11R  188   0.580   5.569  12.677  0.3512 -0.0630 -2.2495
    2DOPE  H11S  189   0.533   5.732  12.724  0.4911 -0.3745  1.3999
    2DOPE  C212  190   0.414   5.643  12.559 -0.3171  0.0043 -0.0835
    2DOPE  H12R  191   0.320   5.703  12.559 -0.5657 -0.3654  0.7495
    2DOPE  H12S  192   0.362   5.551  12.526 -3.5159  1.7572 -0.4502
    2DOPE  C213  193   0.507   5.679  12.448 -0.1478 -0.6598  0.1314
    2DOPE  H13R  194   0.578   5.596  12.428 -2.3216 -1.6698 -4.6819
    2DOPE  H13S  195   0.554   5.778  12.471 -0.6609  0.1745 -2.1267
    2DOPE  C214  196   0.429   5.687  12.309  0.3841  0.6286 -0.7343
    2DOPE  H14R  197   0.371   5.781  12.324 -0.5805 -0.1883  0.9243
    2DOPE  H14S  198   0.360   5.601  12.296 -0.2278  1.1392 -0.9299
    2DOPE  C215  199   0.515   5.702  12.193  0.3184  0.5565  0.8698
    2DOPE  H15R  200   0.593   5.628  12.167 -0.6157  0.8118 -3.4487
    2DOPE  H15S  201   0.569   5.796  12.219  2.4151 -0.8175  1.6783
    2DOPE  C216  202   0.435   5.702  12.060 -0.4774  0.8077 -0.4061
    2DOPE  H16R  203   0.354   5.777  12.063  1.1185  2.6138 -0.3258
    2DOPE  H16S  204   0.387   5.602  12.052 -0.0058  0.5813 -0.4479
    2DOPE  C217  205   0.520   5.729  11.934  0.6687  0.6179 -0.0381
    2DOPE  H17R  206   0.599   5.652  11.930 -1.5933 -1.8414 -0.6615
    2DOPE  H17S  207   0.560   5.832  11.934  1.0970  0.4529 -0.1729
    2DOPE  C218  208   0.426   5.716  11.810 -0.2622  0.4238  0.0855
    2DOPE  H18R  209   0.334   5.770  11.841 -1.2684 -1.1190 -0.0529
    2DOPE  H18S  210   0.395   5.610  11.794  2.2441 -0.4474  0.5903
    2DOPE  H18T  211   0.477   5.757  11.721  0.1490 -0.7424 -0.2422
    2DOPE   C33  212  -0.028   5.308  13.643 -0.1776 -0.0666 -0.1026
    2DOPE   H3X  213   0.082   5.306  13.660 -0.1740  0.0608 -0.1118
    2DOPE   H3Y  214  -0.042   5.407  13.595  0.0095 -0.4917 -1.0574
    2DOPE   C34  215  -0.071   5.200  13.542 -0.5526  0.0569 -0.1358
    2DOPE   H4X  216  -0.077   5.098  13.586 -2.1085 -0.4978 -1.5337
    2DOPE   H4Y  217  -0.171   5.225  13.502 -0.8514 -2.0687 -0.8367
    2DOPE   C35  218   0.007   5.203  13.412 -0.3467 -0.1421  0.1167
    2DOPE   H5X  219  -0.016   5.108  13.359  0.0584 -2.0452  3.1228
    2DOPE   H5Y  220   0.115   5.207  13.440 -0.6994 -0.0903  1.5513
    2DOPE   C36  221  -0.023   5.326  13.320 -0.4235  0.2993  0.2603
    2DOPE   H6X  222  -0.017   5.417  13.383  0.2649  0.9517 -0.7226
    2DOPE   H6Y  223  -0.123   5.311  13.276 -0.9932  1.0771  1.2571
    2DOPE   C37  224   0.085   5.360  13.212 -0.0896 -0.1345 -0.4889
    2DOPE   H7X  225   0.083   5.467  13.185  0.4995  0.5648  2.0307
    2DOPE   H7Y  226   0.190   5.354  13.249  0.1798  1.7513 -0.8722
    2DOPE   C38  227   0.064   5.270  13.085  0.6069  0.3392  0.0552
    2DOPE   H8X  228   0.030   5.172  13.127 -1.0454  0.8385 -0.0445
    2DOPE   H8Y  229   0.162   5.251  13.037  0.2438 -0.8331 -0.2520
    2DOPE   C39  230  -0.034   5.313  12.982  0.6884 -0.4203  0.3304
    2DOPE   H9X  231  -0.129   5.350  13.021  0.0650 -1.8985  0.2677
    2DOPE  C310  232  -0.019   5.308  12.848  0.8796 -0.0833  0.0855
    2DOPE  H10X  233  -0.109   5.339  12.794  1.0614  0.0713 -0.1267
    2DOPE  C311  234   0.089   5.232  12.765  0.0438 -0.6232  0.2658
    2DOPE  H11X  235   0.191   5.241  12.809 -0.0178  1.3214  0.1140
    2DOPE  H11Y  236   0.070   5.125  12.741  0.1506 -0.6901  0.4783
    2DOPE  C312  237   0.099   5.311  12.630  0.8651 -0.1231 -0.8109
    2DOPE  H12X  238   0.119   5.419  12.645 -2.9901  0.6493 -0.2721
    2DOPE  H12Y  239   0.003   5.309  12.573  0.9063  0.4721 -0.9031
    2DOPE  C313  240   0.206   5.254  12.546  0.4198  0.1293  0.6502
    2DOPE  H13X  241   0.303   5.261  12.598  0.7407 -0.1504  0.0968
    2DOPE  H13Y  242   0.176   5.149  12.521 -0.5312  0.5212  0.0603
    2DOPE  C314  243   0.203   5.328  12.412 -0.1385  0.2799  0.4250
    2DOPE  H14X  244   0.300   5.381  12.402  0.9062 -1.9565 -2.8479
    2DOPE  H14Y  245   0.118   5.400  12.416 -1.0698 -0.5375 -2.3317
    2DOPE  C315  246   0.171   5.233  12.297  0.1735  0.8755 -0.4465
    2DOPE  H15X  247   0.062   5.212  12.294  0.3156  0.2511 -2.5062
    2DOPE  H15Y  248   0.222   5.136  12.314 -0.6627  0.4439 -0.3267
    2DOPE  C316  249   0.216   5.268  12.162 -0.2680 -0.6558  0.3143
    2DOPE  H16X  250   0.265   5.175  12.126  2.5063  0.7647  0.1638
    2DOPE  H16Y  251   0.297   5.344  12.164 -2.2124  1.5269 -0.0341
    2DOPE  C317  252   0.110   5.313  12.067 -0.3276 -0.2748  0.3088
    2DOPE  H17X  253   0.052   5.222  12.041 -0.6059  0.4154 -1.7022
    2DOPE  H17Y  254   0.049   5.389  12.121  1.8190  1.0200  1.0583
    2DOPE  C318  255   0.163   5.361  11.933 -0.1487 -0.3257 -0.6694
    2DOPE  H18X  256   0.239   5.441  11.946  1.6512 -1.8881 -1.1559
    2DOPE  H18Y  257   0.224   5.281  11.887  0.6468 -0.4328  0.5121
    2DOPE  H18Z  258   0.092   5.403  11.859  3.5336  2.1573 -3.1242
    3DOPE     N  259   5.914   6.370  14.193 -0.1030 -0.1182  0.0725
    3DOPE   HN1  260   5.833   6.371  14.259 -2.1026 -0.4896 -2.2404
    3DOPE   HN2  261   5.963   6.278  14.191  0.6693  0.3002 -1.1363
    3DOPE   HN3  262   5.986   6.441  14.217 -1.6508  2.1410 -1.6644
    3DOPE   C12  263   5.857   6.400  14.061 -0.1793  0.2266  0.6646
    3DOPE  H12A  264   5.814   6.502  14.069 -1.8829 -0.5818  2.4050
    3DOPE  H12B  265   5.776   6.327  14.043  0.3287  0.1977 -1.8547
    3DOPE   C11  266   5.964   6.399  13.952 -0.8326  0.1240  0.1251
    3DOPE  H11A  267   5.924   6.390  13.849  0.5051  0.1952 -0.4129
    3DOPE  H11B  268   6.020   6.304  13.966  0.5553  1.0863  1.4657
    3DOPE     P  269   6.204   6.490  13.983  0.0432  0.1571 -0.1516
    3DOPE   O13  270   6.229   6.387  14.087 -0.5594  0.3230 -0.4979
    3DOPE   O14  271   6.269   6.623  13.998  0.5674 -0.0974  0.1834
    3DOPE   O11  272   6.264   6.432  13.843  0.4926 -0.2933  0.3668
    3DOPE   O12  273   6.051   6.513  13.959  0.0904 -0.1647 -0.0782
    3DOPE    C1  274   6.284   6.515  13.725 -0.0411  0.3362 -0.2378
    3DOPE    HA  275   6.386   6.559  13.733  0.4397 -0.7014 -0.5397
    3DOPE    HB  276   6.213   6.600  13.716 -1.1016 -0.4081  0.8316
    3DOPE    C2  277   6.275   6.436  13.593  0.7081  0.9023  1.6290
    3DOPE    HS  278   6.271   6.511  13.511  0.7845  0.6771  1.4174
    3DOPE   O21  279   6.154   6.353  13.589  0.0880 -0.6296  0.3835
    3DOPE   C21  280   6.048   6.422  13.551 -0.3811  0.6165 -0.9934
    3DOPE   O22  281   6.052   6.543  13.522  1.0478  0.0275  0.1546
    3DOPE   C22  282   5.924   6.331  13.547 -0.4968 -0.0752 -0.1591
    3DOPE   H2R  283   5.866   6.377  13.630 -1.3651  0.6726 -1.1489
    3DOPE   H2S  284   5.967   6.229  13.563  0.7044  0.6003  1.0522
    3DOPE    C3  285   6.403   6.353  13.562  0.3119  0.6463 -0.4538
    3DOPE    HX  286   6.425   6.285  13.647  0.1171  2.0153  0.7319
    3DOPE    HY  287   6.490   6.421  13.567  2.2458 -1.6721 -0.9767
    3DOPE   O31  288   6.399   6.301  13.429 -0.4373 -0.1204 -0.1352
    3DOPE   C31  289   6.359   6.185  13.424  0.9824  0.4904 -0.3295
    3DOPE   O32  290   6.328   6.110  13.516 -0.4326 -0.1785 -0.0935
    3DOPE   C32  291   6.337   6.148  13.278  0.1829 -0.3651 -1.3191
    3DOPE   H2X  292   6.306   6.240  13.225  1.1017 -1.4114 -3.8641
    3DOPE   H2Y  293   6.439   6.128  13.241  1.4429  1.9059  0.6750
    3DOPE   C23  294   5.842   6.355  13.424 -0.2857  0.3652  0.5296
    3DOPE   H3R  295   5.823   6.464  13.414 -0.3899  0.4026  1.1322
    3DOPE   H3S  296   5.746   6.302  13.445 -0.0175 -0.3866 -0.0767
    3DOPE   C24  297   5.910   6.289  13.300  0.5395 -0.0536  0.2301
    3DOPE   H4R  298   5.931   6.183  13.323  1.0178 -0.0382 -0.1329
    3DOPE   H4S  299   6.010   6.333  13.279  1.2855 -1.1546  1.3173
    3DOPE   C25  300   5.816   6.298  13.173  0.1891 -1.2508  0.4703
    3DOPE   H5R  301   5.806   6.406  13.150  2.3374 -0.7886  1.4899
    3DOPE   H5S  302   5.714   6.254  13.187 -1.1449  0.8440 -1.8947
    3DOPE   C26  303   5.870   6.224  13.050  0.1752  0.5484 -0.4196
    3DOPE   H6R  304   5.858   6.119  13.086 -1.2747  1.0061  0.5196
    3DOPE   H6S  305   5.978   6.242  13.033  0.3937  0.7503  1.0057
    3DOPE   C27  306   5.788   6.255  12.923  0.3787  0.1368 -0.1633
    3DOPE   H7R  307   5.807   6.363  12.907 -0.7243  0.6133  1.4380
    3DOPE   H7S  308   5.679   6.247  12.945  0.2409 -0.0781 -0.8713
    3DOPE   C28  309   5.833   6.165  12.802  0.0113  0.0342  0.3043
    3DOPE   H8R  310   5.814   6.060  12.833 -1.3482 -0.1106 -0.9317
    3DOPE   H8S  311   5.941   6.186  12.785  0.4236 -0.9903  1.5055
    3DOPE   C29  312   5.751   6.192  12.679  0.3537  0.0501  0.8908
    3DOPE   H9R  313   5.644   6.178  12.700  0.3810 -1.4852  0.1670
    3DOPE  C210  314   5.785   6.224  12.551  0.5943  0.4059 -0.3961
    3DOPE  H10R  315   5.702   6.246  12.482  0.4321  0.6817 -0.1167
    3DOPE  C211  316   5.924   6.215  12.499  0.3527 -0.6532  0.1124
    3DOPE  H11R  317   5.993   6.170  12.574 -1.2278 -4.0900 -0.3245
    3DOPE  H11S  318   5.969   6.313  12.471  0.9693 -1.0573 -0.3402
    3DOPE  C212  319   5.935   6.121  12.377  0.0067  0.2457 -0.2980
    3DOPE  H12R  320   5.890   6.024  12.406 -0.6979  0.4384 -0.7079
    3DOPE  H12S  321   6.043   6.118  12.351 -0.2405  0.2767 -1.4014
    3DOPE  C213  322   5.871   6.176  12.251 -0.0918  0.2419 -0.2200
    3DOPE  H13R  323   5.912   6.274  12.216  0.1848 -0.2798 -1.3806
    3DOPE  H13S  324   5.763   6.188  12.273 -0.1832  3.5860 -1.8035
    3DOPE  C214  325   5.890   6.080  12.132  1.0866 -0.5783 -0.8432
    3DOPE  H14R  326   5.860   5.974  12.148  0.1788 -0.4282 -1.4621
    3DOPE  H14S  327   5.999   6.069  12.115  1.1151 -0.1304 -0.9616
    3DOPE  C215  328   5.812   6.124  12.006  0.3880  0.5698  0.0456
    3DOPE  H15R  329   5.863   6.205  11.950  0.0350 -0.5513 -1.9948
    3DOPE  H15S  330   5.708   6.148  12.036 -0.0111  0.3128 -1.0809
    3DOPE  C216  331   5.796   6.006  11.910 -0.2842 -0.0402 -0.3256
    3DOPE  H16R  332   5.739   6.038  11.821 -1.3470  2.5857  1.1882
    3DOPE  H16S  333   5.725   5.934  11.956 -1.3098 -0.0198 -1.8289
    3DOPE  C217  334   5.933   5.930  11.866  0.0083 -0.0342 -0.4861
    3DOPE  H17R  335   5.992   5.892  11.953  0.3028  0.6396 -0.3841
    3DOPE  H17S  336   5.996   6.005  11.814  1.8239 -2.3132 -1.7618
    3DOPE  C218  337   5.900   5.811  11.777  0.0140  0.0045 -0.0037
    3DOPE  H18R  338   5.994   5.803  11.717  0.8827 -0.2872  1.3543
    3DOPE  H18S  339   5.811   5.830  11.713  0.0633 -0.3272 -0.1716
    3DOPE  H18T  340   5.901   5.729  11.852  0.2984  1.8576  2.1391
    3DOPE   C33  341   6.243   6.022  13.250 -0.2308  0.4480  0.0651
    3DOPE   H3X  342   6.141   6.062  13.233 -0.1585  0.4469 -0.3821
    3DOPE   H3Y  343   6.258   5.946  13.329 -0.9177 -2.2937 -2.2868
    3DOPE   C34  344   6.283   5.952  13.122 -0.0425 -0.4265 -0.1757
    3DOPE   H4X  345   6.393   5.935  13.121 -0.1890 -1.6243  1.2752
    3DOPE   H4Y  346   6.246   5.850  13.102  1.3080 -1.1782  0.9840
    3DOPE   C35  347   6.243   6.042  13.000  0.1434  0.4787 -0.1446
    3DOPE   H5X  348   6.289   6.143  13.006  2.6214 -0.4130 -2.2783
    3DOPE   H5Y  349   6.132   6.042  13.009  0.1800 -2.3520  1.2987
    3DOPE   C36  350   6.273   5.980  12.868 -0.0264  0.2926  1.3234
    3DOPE   H6X  351   6.199   5.898  12.858 -1.8883  1.7534  2.4334
    3DOPE   H6Y  352   6.379   5.950  12.860 -0.1728 -0.8455  2.9891
    3DOPE   C37  353   6.246   6.076  12.747 -0.1790  0.4058  0.1057
    3DOPE   H7X  354   6.138   6.098  12.731 -0.0710 -0.1348 -1.5883
    3DOPE   H7Y  355   6.305   6.169  12.767  1.9456 -1.0455  0.8974
    3DOPE   C38  356   6.295   6.022  12.610  0.2568  0.0201 -0.0421
    3DOPE   H8X  357   6.396   5.980  12.631 -0.1262 -0.7095  0.3646
    3DOPE   H8Y  358   6.304   6.111  12.544 -1.6690 -0.2219 -0.7017
    3DOPE   C39  359   6.209   5.922  12.532 -0.6445  0.0807  0.3405
    3DOPE   H9X  360   6.118   5.889  12.585 -0.7321  1.7462  1.2892
    3DOPE  C310  361   6.227   5.883  12.400  0.5901 -0.5322 -0.1731
    3DOPE  H10X  362   6.166   5.803  12.355 -1.6853  1.8869 -1.7176
    3DOPE  C311  363   6.340   5.934  12.315  0.0091  0.5888 -0.5484
    3DOPE  H11X  364   6.392   6.020  12.362  0.9171 -0.7495  1.0065
    3DOPE  H11Y  365   6.414   5.851  12.321 -1.2746 -0.5527  0.0146
    3DOPE  C312  366   6.285   5.968  12.170  0.3897 -0.0936  0.1458
    3DOPE  H12X  367   6.220   6.058  12.179 -0.0100 -0.5203  2.0201
    3DOPE  H12Y  368   6.223   5.885  12.130  1.3320 -1.7066  1.8463
    3DOPE  C313  369   6.405   5.974  12.077  0.1669 -0.7151  0.4092
    3DOPE  H13X  370   6.471   6.058  12.108  0.9414 -0.9135 -0.6302
    3DOPE  H13Y  371   6.458   5.877  12.078  1.3744 -0.1176 -1.0856
    3DOPE  C314  372   6.365   5.994  11.932 -0.7408 -0.8648 -0.2527
    3DOPE  H14X  373   6.308   5.905  11.898 -1.6492 -0.1056 -0.7734
    3DOPE  H14Y  374   6.463   6.000  11.880 -1.3411 -0.6690 -1.3992
    3DOPE  C315  375   6.285   6.126  11.903 -0.6277  0.4627 -0.0153
    3DOPE  H15X  376   6.333   6.212  11.956  3.5303 -0.9812 -1.0161
    3DOPE  H15Y  377   6.183   6.117  11.945 -0.1819  2.2021  1.5771
    3DOPE  C316  378   6.272   6.149  11.755 -0.0049 -0.0609  0.1703
    3DOPE  H16X  379   6.220   6.060  11.713 -2.5844  0.9009  1.1588
    3DOPE  H16Y  380   6.377   6.156  11.718  0.2197  0.2513  0.8454
    3DOPE  C317  381   6.193   6.268  11.716 -0.0447 -0.2235 -0.6524
    3DOPE  H17X  382   6.103   6.271  11.781  0.7008  0.9559  0.3506
    3DOPE  H17Y  383   6.259   6.352  11.746 -0.0370 -0.6954  0.7132
    3DOPE  C318  384   6.164   6.271  11.568  1.0541 -0.0955  0.2854
    3DOPE  H18X  385   6.099   6.356  11.539 -0.2222 -1.1524 -0.0472
    3DOPE  H18Y  386   6.260   6.262  11.511  1.2997 -1.4035  0.8696
    3DOPE  H18Z  387   6.104   6.183  11.537  0.4645  0.6841 -0.8795
    4DOPE     N  388   5.921   2.823  14.094  0.7551  0.0393  0.0182
    4DOPE   HN1  389   5.909   2.751  14.168 -2.1428  0.8999  0.5097
    4DOPE   HN2  390   6.025   2.823  14.092  0.8194 -2.1670  0.7103
    4DOPE   HN3  391   5.881   2.913  14.127  0.6549 -0.2722  0.7600
    4DOPE   C12  392   5.852   2.773  13.968  0.8758 -0.6645  0.0162
    4DOPE  H12A  393   5.745   2.803  13.970  0.9451 -0.3677 -0.4342
    4DOPE  H12B  394   5.875   2.665  13.956 -0.4741 -0.9819  0.1098
    4DOPE   C11  395   5.922   2.835  13.845 -0.6333 -0.0135 -1.0053
    4DOPE  H11A  396   5.881   2.798  13.749 -2.2466  1.5543 -0.9781
    4DOPE  H11B  397   6.024   2.791  13.849  0.2386  1.9565  1.0995
    4DOPE     P  398   5.813   3.060  13.781  0.0672  0.1887 -0.1681
    4DOPE   O13  399   5.872   3.192  13.749  0.3094  0.2553 -0.0911
    4DOPE   O14  400   5.702   3.054  13.876 -0.2874  0.1727  0.2447
    4DOPE   O11  401   5.769   2.975  13.651 -0.4020  0.2390 -0.4509
    4DOPE   O12  402   5.933   2.975  13.838 -0.5937 -0.5242  0.0343
    4DOPE    C1  403   5.677   3.040  13.561 -0.4613 -0.3057  0.0804
    4DOPE    HA  404   5.668   3.148  13.582  2.3493  0.3719 -1.7135
    4DOPE    HB  405   5.579   2.990  13.580  0.5307 -2.2363  0.4465
    4DOPE    C2  406   5.715   3.019  13.412  0.5633 -0.1121 -0.1375
    4DOPE    HS  407   5.691   2.913  13.390 -1.2214 -0.5796  3.3944
    4DOPE   O21  408   5.845   3.062  13.385 -0.0483 -0.2335  0.3110
    4DOPE   C21  409   5.934   2.967  13.395  0.2378 -0.5385 -0.4594
    4DOPE   O22  410   5.920   2.849  13.406  0.9754 -0.2713 -0.0826
    4DOPE   C22  411   6.073   3.026  13.358 -0.0088 -0.5431 -0.9537
    4DOPE   H2R  412   6.083   3.115  13.424  0.1667 -0.2082 -1.4201
    4DOPE   H2S  413   6.064   3.056  13.251  2.9806  0.7413 -0.9547
    4DOPE    C3  414   5.630   3.107  13.324  0.3871  0.0294  0.0282
    4DOPE    HX  415   5.639   3.212  13.361 -0.0315  0.4188 -0.9259
    4DOPE    HY  416   5.522   3.085  13.334  0.6893 -2.4304 -1.3646
    4DOPE   O31  417   5.666   3.104  13.187 -0.0034  0.4491 -0.1757
    4DOPE   C31  418   5.632   2.998  13.120  0.0235 -0.1276 -0.5909
    4DOPE   O32  419   5.577   2.895  13.167  0.1233  0.3078  0.3174
    4DOPE   C32  420   5.672   3.017  12.970 -0.6626  0.4858  0.1309
    4DOPE   H2X  421   5.604   3.093  12.926 -0.6781  0.2251 -0.3010
    4DOPE   H2Y  422   5.775   3.058  12.969 -0.3353 -0.2087 -2.7992
    4DOPE   C23  423   6.192   2.933  13.370  0.7880  0.0758 -0.5681
    4DOPE   H3R  424   6.195   2.885  13.470 -0.5327  0.6102 -0.2645
    4DOPE   H3S  425   6.288   2.989  13.365  1.7785 -1.6368 -1.7141
    4DOPE   C24  426   6.195   2.840  13.246  0.3043 -0.1101 -0.6031
    4DOPE   H4R  427   6.096   2.793  13.229  0.3431  0.4602 -2.6120
    4DOPE   H4S  428   6.267   2.761  13.279  0.2348  0.4126  0.9030
    4DOPE   C25  429   6.238   2.903  13.111 -0.1324 -0.7472  0.1568
    4DOPE   H5R  430   6.348   2.914  13.119 -0.0098 -0.8566 -1.1556
    4DOPE   H5S  431   6.188   2.999  13.090 -0.4669 -1.3310 -1.9852
    4DOPE   C26  432   6.181   2.834  12.987  0.7661 -0.0960 -0.6114
    4DOPE   H6R  433   6.071   2.850  12.988  0.7108 -0.4872 -0.2324
    4DOPE   H6S  434   6.196   2.725  13.004 -0.3638  0.1248  2.3032
    4DOPE   C27  435   6.244   2.877  12.859  0.4084 -1.0110 -0.3202
    4DOPE   H7R  436   6.259   2.985  12.876 -3.3204 -0.6245  1.4869
    4DOPE   H7S  437   6.162   2.864  12.784 -2.6476  0.4434  2.5395
    4DOPE   C28  438   6.374   2.806  12.812 -0.1298  0.0543 -0.2110
    4DOPE   H8R  439   6.349   2.708  12.766 -0.2434  0.3667 -0.8230
    4DOPE   H8S  440   6.440   2.787  12.899  0.7323 -0.5397 -0.9831
    4DOPE   C29  441   6.442   2.902  12.719  0.4283 -0.0376  0.0291
    4DOPE   H9R  442   6.447   3.006  12.753  1.7273 -0.2490  0.5214
    4DOPE  C210  443   6.485   2.886  12.591 -0.3172  0.1767 -0.2646
    4DOPE  H10R  444   6.518   2.975  12.535  0.0059 -0.4751 -1.1410
    4DOPE  C211  445   6.474   2.755  12.518 -0.5169  0.0576 -0.0378
    4DOPE  H11R  446   6.389   2.694  12.556 -0.6461  1.1802  1.6004
    4DOPE  H11S  447   6.567   2.695  12.524 -0.1152  0.7190  0.5682
    4DOPE  C212  448   6.459   2.790  12.371  0.4103  0.0427 -1.1004
    4DOPE  H12R  449   6.373   2.855  12.346  1.4563  1.2659 -1.6008
    4DOPE  H12S  450   6.436   2.697  12.314  3.5764 -0.3731 -1.9105
    4DOPE  C213  451   6.583   2.846  12.305 -0.5087  0.0244 -0.8723
    4DOPE  H13R  452   6.662   2.769  12.298 -0.8922 -0.6404  1.3650
    4DOPE  H13S  453   6.619   2.932  12.365  1.6334 -0.1049 -1.8636
    4DOPE  C214  454   6.558   2.900  12.161  0.1018 -0.0486  0.0725
    4DOPE  H14R  455   6.641   2.971  12.136 -0.4417 -0.2317 -2.5516
    4DOPE  H14S  456   6.470   2.968  12.167  0.3528  0.2476  0.3943
    4DOPE  C215  457   6.529   2.797  12.054  0.1994 -0.0743  0.2240
    4DOPE  H15R  458   6.425   2.760  12.067  0.7237 -2.2004 -1.0862
    4DOPE  H15S  459   6.593   2.706  12.061 -0.7499 -0.8120 -0.4240
    4DOPE  C216  460   6.557   2.859  11.919  0.7104  0.1821 -0.2432
    4DOPE  H16R  461   6.660   2.898  11.922  0.2976  1.3124 -0.4208
    4DOPE  H16S  462   6.498   2.950  11.895 -1.1543 -1.2634 -1.4020
    4DOPE  C217  463   6.562   2.757  11.800 -0.2978 -0.2843 -1.1060
    4DOPE  H17R  464   6.461   2.712  11.799 -0.0121 -0.9162 -1.7813
    4DOPE  H17S  465   6.626   2.669  11.826  0.9142  1.2929  1.8617
    4DOPE  C218  466   6.605   2.823  11.674 -0.3108 -0.4571  0.4468
    4DOPE  H18R  467   6.534   2.907  11.661  0.3564 -0.0068 -0.3790
    4DOPE  H18S  468   6.614   2.760  11.583 -0.7137 -1.9948  1.4335
    4DOPE  H18T  469   6.699   2.881  11.678 -1.4726  1.4904  0.5664
    4DOPE   C33  470   5.653   2.882  12.892 -0.2859 -0.0695  0.4671
    4DOPE   H3X  471   5.555   2.835  12.916 -0.9443  1.5668  1.1377
    4DOPE   H3Y  472   5.737   2.813  12.914  1.2838  0.8742 -2.0912
    4DOPE   C34  473   5.665   2.903  12.742  0.0071  0.2946 -0.0608
    4DOPE   H4X  474   5.625   2.814  12.689 -0.2410  0.1867  0.3020
    4DOPE   H4Y  475   5.595   2.983  12.710  1.7108  0.7233 -3.0888
    4DOPE   C35  476   5.796   2.934  12.677  0.3053 -0.7420  0.0172
    4DOPE   H5X  477   5.855   2.994  12.750 -0.1625 -1.6866  1.2042
    4DOPE   H5Y  478   5.776   2.994  12.586  1.1477  1.3552  1.1518
    4DOPE   C36  479   5.863   2.805  12.617 -0.0544 -0.8032  0.0378
    4DOPE   H6X  480   5.786   2.751  12.558 -0.3697 -2.0429  1.5150
    4DOPE   H6Y  481   5.890   2.742  12.705  1.2952  0.7845  0.8128
    4DOPE   C37  482   5.976   2.838  12.528 -0.2436 -0.2143 -0.5739
    4DOPE   H7X  483   5.942   2.894  12.438 -0.0182  2.3986  0.8703
    4DOPE   H7Y  484   6.051   2.895  12.586 -0.1561 -0.9280  0.0341
    4DOPE   C38  485   6.045   2.711  12.478  0.0883 -0.0474 -0.6337
    4DOPE   H8X  486   6.068   2.639  12.559  1.4474 -0.0971 -1.0440
    4DOPE   H8Y  487   6.139   2.744  12.429 -0.5553  0.3727 -1.6296
    4DOPE   C39  488   5.970   2.633  12.377  0.0769 -0.4739 -0.6627
    4DOPE   H9X  489   5.897   2.560  12.415  0.9670 -1.3897 -0.6931
    4DOPE  C310  490   5.990   2.628  12.245  0.1165  0.0378 -0.4280
    4DOPE  H10X  491   5.930   2.557  12.186 -0.4997 -0.2554  0.5184
    4DOPE  C311  492   6.087   2.699  12.155 -0.4113  0.4664 -0.0109
    4DOPE  H11X  493   6.140   2.787  12.197  0.7650 -0.7783  1.2352
    4DOPE  H11Y  494   6.164   2.623  12.128 -0.0426  0.8761 -0.1122
    4DOPE  C312  495   6.020   2.741  12.020  0.0557 -0.2390 -0.2968
    4DOPE  H12X  496   5.961   2.655  11.982 -0.5643  0.3974 -0.7767
    4DOPE  H12Y  497   6.099   2.777  11.950  0.8635 -1.5618 -0.0946
    4DOPE  C313  498   5.930   2.862  12.046  0.1631 -0.2470 -0.4481
    4DOPE  H13X  499   5.864   2.839  12.132 -0.3038 -1.2830 -1.0697
    4DOPE  H13Y  500   5.988   2.954  12.072  2.2476 -0.3357 -4.1126
    4DOPE  C314  501   5.837   2.891  11.924  0.3912  0.1381 -0.1059
    4DOPE  H14X  502   5.745   2.947  11.953 -0.6745  0.4435 -3.6374
    4DOPE  H14Y  503   5.810   2.794  11.879  1.2164 -0.0147 -0.2920
    4DOPE  C315  504   5.910   2.969  11.818 -0.0516 -0.2405 -0.4914
    4DOPE  H15X  505   5.993   2.906  11.779 -0.4960 -0.1164 -1.6583
    4DOPE  H15Y  506   5.957   3.058  11.866 -2.4181 -0.6605  2.9940
    4DOPE  C316  507   5.832   3.015  11.697  0.4955 -0.4809  0.2878
    4DOPE  H16X  508   5.768   2.932  11.658 -0.3102  1.3625 -2.6864
    4DOPE  H16Y  509   5.910   3.041  11.622 -0.3119  1.0200 -0.0640
    4DOPE  C317  510   5.737   3.135  11.715 -0.4401 -0.1868  0.6608
    4DOPE  H17X  511   5.638   3.112  11.760 -0.0452 -2.3362  0.5074
    4DOPE  H17Y  512   5.780   3.207  11.788  1.0271 -1.8308  1.4831
    4DOPE  C318  513   5.716   3.205  11.585  0.8385 -0.2922 -0.5174
    4DOPE  H18X  514   5.641   3.286  11.596  0.0147 -1.3318  2.4351
    4DOPE  H18Y  515   5.807   3.247  11.536 -0.0347  0.5896 -1.4139
    4DOPE  H18Z  516   5.681   3.132  11.510 -1.2211 -2.0096  1.9548
    5DOPE     N  517   4.835   5.704  14.443 -0.0308  0.1825 -0.7560
    5DOPE   HN1  518   4.738   5.680  14.413  0.1167 -2.9874  0.8707
    5DOPE   HN2  519   4.899   5.634  14.400 -1.0498 -0.6201 -1.0078
    5DOPE   HN3  520   4.843   5.725  14.544 -1.5321  0.3496 -0.6397
    5DOPE   C12  521   4.864   5.835  14.380  0.1974  0.2471 -0.1113
    5DOPE  H12A  522   4.807   5.916  14.430 -0.1283 -0.1865  0.2293
    5DOPE  H12B  523   4.844   5.823  14.271 -0.8304 -1.4230  0.2349
    5DOPE   C11  524   5.015   5.866  14.393 -0.4282 -0.1905  0.1598
    5DOPE  H11A  525   5.021   5.885  14.502 -1.1387  0.8592  0.0382
    5DOPE  H11B  526   5.022   5.963  14.339 -0.1155 -0.6816 -0.6950
    5DOPE     P  527   5.199   5.780  14.225  0.2150 -0.2465  0.0167
    5DOPE   O13  528   5.298   5.675  14.215 -0.0209  0.1599  0.1902
    5DOPE   O14  529   5.255   5.917  14.224 -0.3808  0.2597 -0.1073
    5DOPE   O11  530   5.081   5.776  14.119  0.1185 -0.0328  0.3018
    5DOPE   O12  531   5.102   5.756  14.352  0.5110 -0.2775 -0.3714
    5DOPE    C1  532   5.060   5.657  14.038 -0.7566  0.1128  0.7918
    5DOPE    HA  533   4.952   5.641  14.022 -0.5473 -0.6529  0.0728
    5DOPE    HB  534   5.077   5.567  14.101 -0.0876 -0.7900 -0.6332
    5DOPE    C2  535   5.126   5.666  13.893 -0.6545 -0.2336  0.0277
    5DOPE    HS  536   5.234   5.646  13.904 -0.4463  0.6879 -0.2648
    5DOPE   O21  537   5.094   5.805  13.845  0.1568 -0.1367 -0.3594
    5DOPE   C21  538   5.199   5.858  13.793 -0.5455  0.0139 -0.2601
    5DOPE   O22  539   5.307   5.800  13.769 -0.8555  0.4065 -0.5402
    5DOPE   C22  540   5.156   5.995  13.743 -0.0845 -0.0828  0.0016
    5DOPE   H2R  541   5.247   6.049  13.711  0.0901  0.4429  1.3240
    5DOPE   H2S  542   5.109   6.046  13.830  0.4771  1.2695 -0.4637
    5DOPE    C3  543   5.070   5.555  13.800 -0.4089 -0.5984 -0.1105
    5DOPE    HX  544   4.960   5.567  13.799 -0.9457 -3.4820  3.3761
    5DOPE    HY  545   5.094   5.459  13.851  1.6210 -0.7926 -1.3040
    5DOPE   O31  546   5.134   5.563  13.671  0.3463 -0.3115  0.2918
    5DOPE   C31  547   5.243   5.494  13.657  0.0674  0.1645  0.1731
    5DOPE   O32  548   5.297   5.415  13.737  0.0362  0.4271 -0.2137
    5DOPE   C32  549   5.311   5.529  13.532 -0.4461 -0.5178  0.2310
    5DOPE   H2X  550   5.365   5.626  13.549 -1.0982 -0.2637  0.9114
    5DOPE   H2Y  551   5.387   5.452  13.508  0.4684  0.4102  0.0275
    5DOPE   C23  552   5.045   5.980  13.635  0.1563 -0.5811 -0.6357
    5DOPE   H3R  553   5.036   6.080  13.588 -0.9259 -0.6014 -0.4908
    5DOPE   H3S  554   4.944   5.950  13.671  1.1362 -1.9092  1.1893
    5DOPE   C24  555   5.089   5.882  13.530  0.3774  0.0896 -0.1107
    5DOPE   H4R  556   5.097   5.779  13.571  0.6948  1.3207  3.2382
    5DOPE   H4S  557   5.186   5.922  13.495  0.1776 -0.0479 -0.8385
    5DOPE   C25  558   5.000   5.882  13.396 -0.4486 -0.0474 -0.6177
    5DOPE   H5R  559   4.901   5.834  13.411 -1.3198  1.9852  0.6359
    5DOPE   H5S  560   5.061   5.828  13.320 -2.3487 -2.0108 -0.8281
    5DOPE   C26  561   4.979   6.024  13.339 -0.2655  0.1963 -0.0053
    5DOPE   H6R  562   5.079   6.068  13.322 -0.2530 -0.1181 -0.7541
    5DOPE   H6S  563   4.935   6.101  13.406  0.0857  0.9018 -0.5669
    5DOPE   C27  564   4.890   6.023  13.215 -0.2179  0.0222 -0.1820
    5DOPE   H7R  565   4.837   6.121  13.205  0.9986  0.6828 -0.3291
    5DOPE   H7S  566   4.823   5.935  13.225  0.2953 -0.2209  1.4162
    5DOPE   C28  567   4.977   6.005  13.087  0.8367 -0.8676 -0.1005
    5DOPE   H8R  568   5.030   5.909  13.098  2.5793  0.0164 -0.4543
    5DOPE   H8S  569   5.057   6.082  13.075  0.4577 -0.5381 -0.6011
    5DOPE   C29  570   4.885   6.005  12.962 -0.0338 -0.1151 -0.0359
    5DOPE   H9R  571   4.817   6.091  12.951  0.4584 -0.0094 -2.9593
    5DOPE  C210  572   4.864   5.903  12.874  0.0098 -0.1242  0.1807
    5DOPE  H10R  573   4.786   5.904  12.796  0.6299 -2.2553 -0.5485
    5DOPE  C211  574   4.959   5.786  12.850  0.0016  0.2075 -0.2396
    5DOPE  H11R  575   4.908   5.689  12.830  0.9292  0.1461 -2.6502
    5DOPE  H11S  576   5.025   5.773  12.939 -1.7550  0.7630  1.2116
    5DOPE  C212  577   5.044   5.810  12.725  0.2484 -0.6288 -0.6713
    5DOPE  H12R  578   5.130   5.741  12.724  1.2670  0.4631  1.9321
    5DOPE  H12S  579   5.088   5.912  12.725  0.8702 -0.8774 -2.0880
    5DOPE  C213  580   4.971   5.777  12.607  0.1005 -0.1019  0.5281
    5DOPE  H13R  581   4.878   5.837  12.592 -0.1828 -1.2279 -3.1600
    5DOPE  H13S  582   4.932   5.673  12.600  1.5775 -0.6970  0.7684
    5DOPE  C214  583   5.063   5.787  12.482 -0.6892  0.7512  0.2596
    5DOPE  H14R  584   5.154   5.725  12.496  0.2471  1.1767 -3.0924
    5DOPE  H14S  585   5.095   5.893  12.466  0.2725  0.2126 -1.8063
    5DOPE  C215  586   4.997   5.751  12.352 -0.2293  0.5135  0.2282
    5DOPE  H15R  587   4.902   5.808  12.338 -0.6583 -0.5510 -1.3578
    5DOPE  H15S  588   4.952   5.649  12.349  0.4729  0.2250 -0.5030
    5DOPE  C216  589   5.074   5.770  12.223  0.1836  0.4199  0.0694
    5DOPE  H16R  590   5.180   5.738  12.224  0.1059  0.1799  0.4413
    5DOPE  H16S  591   5.072   5.881  12.212  0.2959  0.5437  1.1952
    5DOPE  C217  592   5.010   5.704  12.101  0.8984 -0.2466  0.6421
    5DOPE  H17R  593   4.915   5.757  12.078  1.2053 -0.6815 -1.9013
    5DOPE  H17S  594   4.993   5.597  12.127  0.1514  0.0009  1.1999
    5DOPE  C218  595   5.100   5.709  11.982 -0.3204 -0.1500 -0.4537
    5DOPE  H18R  596   5.195   5.651  11.977 -0.9179 -1.2638  0.6870
    5DOPE  H18S  597   5.123   5.817  11.970  2.3550 -0.5185  0.5539
    5DOPE  H18T  598   5.041   5.679  11.893 -1.1639 -1.0737  0.3927
    5DOPE   C33  599   5.212   5.525  13.413  0.0169 -0.4937 -0.2087
    5DOPE   H3X  600   5.201   5.628  13.374 -0.5283 -0.6766 -0.5507
    5DOPE   H3Y  601   5.109   5.499  13.447 -1.0115  1.8343 -1.2850
    5DOPE   C34  602   5.258   5.437  13.296  0.0313 -0.4657  0.0824
    5DOPE   H4X  603   5.356   5.470  13.255 -0.8832 -0.1793 -2.0038
    5DOPE   H4Y  604   5.273   5.331  13.325  2.1172 -0.1126  0.5146
    5DOPE   C35  605   5.168   5.458  13.170 -0.6432  0.3914 -0.3008
    5DOPE   H5X  606   5.175   5.565  13.141 -0.5867  0.5483  0.2707
    5DOPE   H5Y  607   5.060   5.437  13.183 -0.8910  1.1547 -1.0301
    5DOPE   C36  608   5.197   5.373  13.048  0.5579 -0.0488  0.1907
    5DOPE   H6X  609   5.154   5.271  13.059  0.6960 -0.1573 -0.2599
    5DOPE   H6Y  610   5.308   5.369  13.052  0.6683  2.0921  0.3250
    5DOPE   C37  611   5.145   5.438  12.921 -0.2124 -0.1426 -0.1180
    5DOPE   H7X  612   5.034   5.438  12.930 -0.1552  0.8860  0.9189
    5DOPE   H7Y  613   5.190   5.540  12.918  3.5462 -1.4827  2.5090
    5DOPE   C38  614   5.183   5.376  12.782  0.7676 -0.0488 -0.1890
    5DOPE   H8X  615   5.139   5.275  12.766 -0.0454  0.5691 -2.2387
    5DOPE   H8Y  616   5.292   5.358  12.780  0.4848 -2.2276  0.7307
    5DOPE   C39  617   5.127   5.448  12.666  0.1742  0.1765 -0.4118
    5DOPE   H9X  618   5.034   5.504  12.687 -0.2257 -1.0963  1.4079
    5DOPE  C310  619   5.179   5.458  12.543 -0.6976  0.2214 -0.1484
    5DOPE  H10X  620   5.123   5.518  12.470  0.3130  0.6043 -0.6277
    5DOPE  C311  621   5.300   5.398  12.481  0.2560 -0.0029 -0.4935
    5DOPE  H11X  622   5.379   5.465  12.440  2.0584 -1.0311  1.1138
    5DOPE  H11Y  623   5.348   5.341  12.564 -1.2225 -2.1902 -1.0585
    5DOPE  C312  624   5.265   5.297  12.373 -0.3647  0.1062  0.6808
    5DOPE  H12X  625   5.238   5.353  12.281  1.7636  0.2407  0.1017
    5DOPE  H12Y  626   5.181   5.229  12.399  0.0440 -0.0390  1.6723
    5DOPE  C313  627   5.388   5.212  12.341 -0.8954 -0.2242  0.2792
    5DOPE  H13X  628   5.472   5.279  12.314  0.2688 -1.9023 -0.3769
    5DOPE  H13Y  629   5.406   5.146  12.428 -0.7367  0.6340  0.9052
    5DOPE  C314  630   5.356   5.123  12.225 -0.6183 -0.0858  0.3069
    5DOPE  H14X  631   5.272   5.051  12.232  0.9039 -2.1774 -1.5160
    5DOPE  H14Y  632   5.452   5.069  12.211 -0.2333  0.5856  0.2929
    5DOPE  C315  633   5.334   5.194  12.088  0.0498 -0.2617 -0.2540
    5DOPE  H15X  634   5.392   5.288  12.082 -1.3637  0.7789  1.4963
    5DOPE  H15Y  635   5.225   5.209  12.075 -0.5548 -2.8014  1.1134
    5DOPE  C316  636   5.377   5.111  11.974 -0.1315  0.4849  0.3244
    5DOPE  H16X  637   5.476   5.071  12.003 -0.8440 -0.2119  1.8677
    5DOPE  H16Y  638   5.385   5.170  11.880  0.0381 -0.2508 -0.1298
    5DOPE  C317  639   5.280   4.995  11.953 -0.4770  0.3469  0.7320
    5DOPE  H17X  640   5.292   4.939  12.049  1.2552  1.0125  0.9437
    5DOPE  H17Y  641   5.172   5.015  11.943 -0.6899 -1.0694 -0.0903
    5DOPE  C318  642   5.324   4.916  11.827  0.4936 -0.4694 -0.4621
    5DOPE  H18X  643   5.349   4.982  11.742 -0.2004  3.0864  1.8792
    5DOPE  H18Y  644   5.417   4.858  11.849 -0.4549 -1.4954  1.0999
    5DOPE  H18Z  645   5.250   4.841  11.792  2.3070 -1.5412 -2.1602
    6DOPE     N  646   4.951   0.464  14.278  0.0601 -0.8015  0.1366
    6DOPE   HN1  647   5.012   0.466  14.194 -1.6301  1.2528 -1.1634
    6DOPE   HN2  648   4.865   0.406  14.267 -0.6606 -0.3246  2.6323
    6DOPE   HN3  649   4.924   0.563  14.295 -0.2973 -1.0336  1.0047
    6DOPE   C12  650   5.026   0.402  14.387  0.7165  0.1525 -0.9218
    6DOPE  H12A  651   4.971   0.413  14.483  0.5288  1.3068 -1.1490
    6DOPE  H12B  652   5.129   0.443  14.386  0.9482 -0.4035 -0.5635
    6DOPE   C11  653   5.035   0.250  14.354 -0.2934 -0.2709  0.4090
    6DOPE  H11A  654   4.936   0.201  14.350 -0.7835  0.5666  1.4786
    6DOPE  H11B  655   5.090   0.208  14.441  0.9938  0.0317 -0.2345
    6DOPE     P  656   5.153   0.084  14.196  0.3177  0.0144  0.3951
    6DOPE   O13  657   5.059  -0.027  14.218 -0.1445 -0.6881 -0.2493
    6DOPE   O14  658   5.282   0.059  14.253 -0.4523  0.0361 -0.5956
    6DOPE   O11  659   5.163   0.097  14.042 -0.5111  0.4484  0.3103
    6DOPE   O12  660   5.099   0.227  14.232 -0.2123  0.5292  0.3022
    6DOPE    C1  661   5.071   0.145  13.942 -1.0585 -0.5668  0.2796
    6DOPE    HA  662   5.098   0.248  13.909  1.8669 -1.7306 -1.3605
    6DOPE    HB  663   4.969   0.155  13.984 -1.1975  0.6330 -0.3016
    6DOPE    C2  664   5.074   0.053  13.819 -0.3870  0.7813 -0.4771
    6DOPE    HS  665   4.995   0.078  13.744 -0.1614  2.1896 -0.2594
    6DOPE   O21  666   5.071  -0.086  13.867 -0.1190  0.3618  0.0281
    6DOPE   C21  667   4.959  -0.133  13.910 -0.0906 -0.1061  0.7438
    6DOPE   O22  668   4.857  -0.067  13.929 -0.1870  0.0427  0.3585
    6DOPE   C22  669   4.967  -0.287  13.920 -0.3346  0.4756  0.4213
    6DOPE   H2R  670   4.914  -0.310  14.015  0.5726 -0.3978  0.7265
    6DOPE   H2S  671   5.073  -0.319  13.924 -1.4021 -3.6064  0.3764
    6DOPE    C3  672   5.209   0.052  13.734 -0.2949 -0.1975  0.2340
    6DOPE    HX  673   5.279  -0.014  13.791 -0.1889 -0.7472 -0.5155
    6DOPE    HY  674   5.265   0.148  13.736 -0.0243 -0.3570  2.0619
    6DOPE   O31  675   5.184  -0.009  13.604 -0.3210 -0.3045 -0.6344
    6DOPE   C31  676   5.138   0.076  13.513 -0.4281  0.2437 -0.8175
    6DOPE   O32  677   5.124   0.196  13.537 -0.2371  0.1715  0.1619
    6DOPE   C32  678   5.120   0.003  13.382  0.1102  0.6067 -0.7865
    6DOPE   H2X  679   5.219  -0.043  13.361  0.1736 -0.4455  1.4973
    6DOPE   H2Y  680   5.041  -0.074  13.397 -0.0037  0.2056 -3.0771
    6DOPE   C23  681   4.905  -0.364  13.804 -0.0514 -0.6832 -0.6410
    6DOPE   H3R  682   4.799  -0.342  13.779 -0.0152 -0.5900 -0.7111
    6DOPE   H3S  683   4.905  -0.473  13.822 -1.0284 -0.3792  1.4342
    6DOPE   C24  684   4.972  -0.347  13.669 -0.1915 -0.1305  0.7063
    6DOPE   H4R  685   4.950  -0.243  13.637 -1.3037 -0.1288  1.4159
    6DOPE   H4S  686   4.926  -0.402  13.584 -0.2466 -0.4393  0.9331
    6DOPE   C25  687   5.120  -0.368  13.669 -0.0517  0.4379 -0.3148
    6DOPE   H5R  688   5.155  -0.456  13.728 -0.7298  1.6755  2.0486
    6DOPE   H5S  689   5.164  -0.279  13.718  1.3502 -0.7849  0.7687
    6DOPE   C26  690   5.177  -0.378  13.531 -0.1178 -0.3475  0.2802
    6DOPE   H6R  691   5.157  -0.289  13.469  1.5476 -0.2746 -0.2153
    6DOPE   H6S  692   5.140  -0.471  13.483  0.0685 -1.4410  2.1287
    6DOPE   C27  693   5.327  -0.380  13.534 -0.1579 -0.3772  0.8695
    6DOPE   H7R  694   5.352  -0.456  13.611 -1.6201 -1.7491  0.0414
    6DOPE   H7S  695   5.365  -0.283  13.572 -0.0612  0.0643 -0.2892
    6DOPE   C28  696   5.404  -0.413  13.408  0.2778  0.4068 -0.0404
    6DOPE   H8R  697   5.385  -0.522  13.393 -0.6367  0.5639 -0.1342
    6DOPE   H8S  698   5.512  -0.405  13.430  0.4885  1.7576 -1.3800
    6DOPE   C29  699   5.362  -0.323  13.293  0.1488  1.3775 -1.1787
    6DOPE   H9R  700   5.389  -0.223  13.329  0.5491  0.4004  1.4535
    6DOPE  C210  701   5.304  -0.351  13.174 -0.4097  0.1081  0.1817
    6DOPE  H10R  702   5.242  -0.271  13.130  2.4668  2.7083  0.5425
    6DOPE  C211  703   5.275  -0.489  13.119 -0.3708 -0.2164  0.1441
    6DOPE  H11R  704   5.168  -0.514  13.137 -0.7153  1.5099  0.7416
    6DOPE  H11S  705   5.338  -0.557  13.181 -0.5076 -1.1164 -0.6774
    6DOPE  C212  706   5.319  -0.503  12.980 -0.2747 -0.3014  0.5909
    6DOPE  H12R  707   5.317  -0.612  12.954 -1.8525 -0.7209  2.2390
    6DOPE  H12S  708   5.426  -0.479  12.965 -0.0946 -1.8950 -1.0393
    6DOPE  C213  709   5.224  -0.425  12.888 -0.7228 -0.9966  0.0844
    6DOPE  H13R  710   5.216  -0.316  12.908 -0.5954 -0.9693 -0.0079
    6DOPE  H13S  711   5.126  -0.473  12.907  0.3647 -2.6876  1.8274
    6DOPE  C214  712   5.250  -0.434  12.740  0.4312  0.3994 -0.9317
    6DOPE  H14R  713   5.161  -0.390  12.691  1.2937  1.2621 -1.7750
    6DOPE  H14S  714   5.241  -0.542  12.714 -0.3183 -0.5577  2.7172
    6DOPE  C215  715   5.393  -0.367  12.713 -0.3060 -0.5342 -0.4554
    6DOPE  H15R  716   5.473  -0.438  12.744  0.0860 -0.3801 -1.1067
    6DOPE  H15S  717   5.398  -0.278  12.779  1.8334 -0.8516 -0.1169
    6DOPE  C216  718   5.416  -0.323  12.570 -0.5093  0.4746  0.3773
    6DOPE  H16R  719   5.507  -0.261  12.553 -1.1561  2.0966  2.4219
    6DOPE  H16S  720   5.336  -0.257  12.531 -0.4831  2.2443  3.0448
    6DOPE  C217  721   5.411  -0.442  12.467  0.4360  0.1077 -0.3154
    6DOPE  H17R  722   5.307  -0.478  12.456 -0.1866  1.6119  0.3206
    6DOPE  H17S  723   5.481  -0.523  12.497  1.0199  0.2853 -1.1648
    6DOPE  C218  724   5.456  -0.386  12.333 -0.6119 -0.8017  0.3325
    6DOPE  H18R  725   5.428  -0.455  12.250 -0.0173  0.4928 -0.9941
    6DOPE  H18S  726   5.563  -0.359  12.321 -0.0929 -2.3715  1.1989
    6DOPE  H18T  727   5.400  -0.293  12.310  0.4395 -0.7897 -2.6175
    6DOPE   C33  728   5.087   0.090  13.257  0.3205  0.4035 -0.2249
    6DOPE   H3X  729   5.142   0.186  13.261 -0.9756  1.1256  3.0125
    6DOPE   H3Y  730   4.979   0.108  13.239 -0.0583 -0.0899  1.4170
    6DOPE   C34  731   5.143   0.015  13.127  0.7021  0.3388 -0.3520
    6DOPE   H4X  732   5.250  -0.005  13.147  0.3704 -1.6580 -0.3728
    6DOPE   H4Y  733   5.098  -0.085  13.110  1.3541  0.2929 -2.0409
    6DOPE   C35  734   5.118   0.086  12.995  0.6089 -0.1778  0.2866
    6DOPE   H5X  735   5.180   0.178  13.004 -0.1560  0.3612  0.1865
    6DOPE   H5Y  736   5.012   0.118  13.005 -0.0622 -0.9901 -3.0758
    6DOPE   C36  737   5.138   0.003  12.880 -0.1259  0.1410 -0.6236
    6DOPE   H6X  738   5.074  -0.088  12.877  0.3870 -0.2838  0.8255
    6DOPE   H6Y  739   5.244  -0.033  12.880 -0.5333 -1.2010  0.9708
    6DOPE   C37  740   5.112   0.072  12.742  0.7466 -0.1799  0.2403
    6DOPE   H7X  741   5.010   0.115  12.733 -0.6964 -3.5237 -0.9772
    6DOPE   H7Y  742   5.191   0.150  12.734 -0.4809  1.3596  2.1329
    6DOPE   C38  743   5.125  -0.023  12.617 -0.8696 -0.0640 -0.3122
    6DOPE   H8X  744   5.062  -0.113  12.629 -0.3812 -0.1003  3.1478
    6DOPE   H8Y  745   5.229  -0.059  12.620 -0.3778  1.3205  1.4790
    6DOPE   C39  746   5.108   0.054  12.487 -0.5655  0.1659  0.2890
    6DOPE   H9X  747   5.113   0.163  12.501 -0.8558 -0.0770  2.8668
    6DOPE  C310  748   5.068   0.002  12.369  0.0496  0.0603  0.0419
    6DOPE  H10X  749   5.073   0.057  12.274 -0.2762 -2.1702 -1.3362
    6DOPE  C311  750   5.048  -0.148  12.347 -0.1255 -0.2105  0.2593
    6DOPE  H11X  751   5.085  -0.208  12.432  0.3631 -0.4871 -0.1463
    6DOPE  H11Y  752   4.942  -0.177  12.327 -0.9535  0.3289  3.3705
    6DOPE  C312  753   5.123  -0.186  12.223 -0.1528 -0.4632  0.3690
    6DOPE  H12X  754   5.132  -0.297  12.218  0.4172 -0.4957  1.7949
    6DOPE  H12Y  755   5.222  -0.137  12.215 -0.9066  1.1023  0.2329
    6DOPE  C313  756   5.037  -0.168  12.099  0.0698 -0.1294  0.0852
    6DOPE  H13X  757   4.938  -0.217  12.110 -0.5337  1.3306  1.8209
    6DOPE  H13Y  758   5.003  -0.063  12.085  1.0858  0.1951 -0.0478
    6DOPE  C314  759   5.109  -0.210  11.969  0.3104 -0.4346 -0.4865
    6DOPE  H14X  760   5.205  -0.154  11.963  0.4433 -0.5765  0.3266
    6DOPE  H14Y  761   5.050  -0.185  11.878 -0.1505  0.0954 -0.0444
    6DOPE  C315  762   5.137  -0.364  11.960 -0.1165 -0.2378  0.4112
    6DOPE  H15X  763   5.109  -0.402  11.859 -0.5109  0.4812  0.2414
    6DOPE  H15Y  764   5.071  -0.411  12.036  0.7191  0.1960  1.4361
    6DOPE  C316  765   5.284  -0.405  11.977 -0.2720 -0.4248 -0.5415
    6DOPE  H16X  766   5.295  -0.515  11.969  0.4726 -0.2625 -2.0396
    6DOPE  H16Y  767   5.301  -0.378  12.083 -0.1943  1.3903 -0.9863
    6DOPE  C317  768   5.383  -0.330  11.879  0.0096  0.5502  0.0515
    6DOPE  H17X  769   5.342  -0.349  11.778  2.0051  1.9809 -1.1154
    6DOPE  H17Y  770   5.398  -0.221  11.895 -0.7205  1.0907 -2.5545
    6DOPE  C318  771   5.515  -0.404  11.866 -0.1202 -0.8939 -0.2476
    6DOPE  H18X  772   5.493  -0.509  11.836  2.6219 -1.8099  0.6442
    6DOPE  H18Y  773   5.588  -0.361  11.793 -0.7579  0.3491 -0.1801
    6DOPE  H18Z  774   5.562  -0.407  11.966 -1.1234 -0.2973  0.2531
    7DOPE     N  775   2.087   6.506  13.085  0.3501  0.1541  0.3046
    7DOPE   HN1  776   2.150   6.493  13.167  1.2986 -0.5915 -0.5026
    7DOPE   HN2  777   2.057   6.414  13.047 -3.3814  1.4995 -0.4140
    7DOPE   HN3  778   2.145   6.558  13.015  0.1767 -1.2534 -0.9373
    7DOPE   C12  779   1.953   6.573  13.127  0.4021 -0.6811  0.5672
    7DOPE  H12A  780   1.989   6.668  13.172 -0.0687 -0.0014 -0.4366
    7DOPE  H12B  781   1.904   6.507  13.201  1.9872 -1.0300  1.3324
    7DOPE   C11  782   1.870   6.598  13.001  0.1618  0.0771  0.6197
    7DOPE  H11A  783   1.856   6.492  12.972  1.3515  0.2657 -0.7442
    7DOPE  H11B  784   1.915   6.639  12.908 -0.0332  0.5412  0.7256
    7DOPE     P  785   1.714   6.812  12.998 -0.0547  0.2825  0.2716
    7DOPE   O13  786   1.836   6.894  13.015  0.0975 -0.5154 -0.8718
    7DOPE   O14  787   1.590   6.861  13.069 -0.1016  0.2950  0.0908
    7DOPE   O11  788   1.680   6.797  12.842  0.3235 -0.4685 -0.0362
    7DOPE   O12  789   1.746   6.662  13.042 -0.5714  0.3639  0.1302
    7DOPE    C1  790   1.609   6.687  12.785 -0.1881 -0.7749  0.0217
    7DOPE    HA  791   1.584   6.610  12.862  0.0781 -0.3158  0.5714
    7DOPE    HB  792   1.674   6.628  12.716  1.0161  0.4356  0.0728
    7DOPE    C2  793   1.475   6.720  12.702 -0.2530 -0.5378 -0.6073
    7DOPE    HS  794   1.448   6.630  12.642  0.3028 -0.8166 -0.4381
    7DOPE   O21  795   1.496   6.831  12.612 -0.4554 -0.2306  0.0895
    7DOPE   C21  796   1.568   6.795  12.507  0.1698 -0.6607 -0.0833
    7DOPE   O22  797   1.600   6.681  12.479  0.0152  0.0872 -0.7053
    7DOPE   C22  798   1.589   6.917  12.420 -0.3522  0.0314  0.3635
    7DOPE   H2R  799   1.649   6.886  12.332  0.7239  2.8126  0.0440
    7DOPE   H2S  800   1.646   6.994  12.475  0.2981 -0.0355 -0.2086
    7DOPE    C3  801   1.367   6.758  12.808 -0.0016 -0.2740  0.0679
    7DOPE    HX  802   1.398   6.850  12.861  0.4027  0.2196 -0.9983
    7DOPE    HY  803   1.371   6.682  12.890  2.1859  1.4161  1.6456
    7DOPE   O31  804   1.233   6.749  12.753 -0.3768 -0.4905  0.0377
    7DOPE   C31  805   1.173   6.872  12.730 -0.5125  0.6512 -0.2081
    7DOPE   O32  806   1.210   6.980  12.778  0.2491 -0.5123  0.0681
    7DOPE   C32  807   1.057   6.853  12.636 -0.6627 -0.3078 -1.1063
    7DOPE   H2X  808   1.075   6.759  12.578 -1.8582 -0.7552 -0.8005
    7DOPE   H2Y  809   0.976   6.831  12.709  1.6432 -0.4178  1.5618
    7DOPE   C23  810   1.471   6.995  12.361 -0.6024 -0.5201 -0.2695
    7DOPE   H3R  811   1.500   7.098  12.334 -2.8340  0.1734 -0.2204
    7DOPE   H3S  812   1.395   7.005  12.442  1.1628 -3.8986  2.0418
    7DOPE   C24  813   1.397   6.912  12.243 -0.8299 -0.2955  0.4906
    7DOPE   H4R  814   1.351   6.825  12.294  0.8254 -0.9577  0.9240
    7DOPE   H4S  815   1.479   6.878  12.175 -0.8657 -0.7401  0.6625
    7DOPE   C25  816   1.304   7.002  12.162  0.3391  0.0830  0.2609
    7DOPE   H5R  817   1.357   7.089  12.119 -0.9082  0.3939 -0.7212
    7DOPE   H5S  818   1.227   7.039  12.234  1.5304  5.1199 -0.6486
    7DOPE   C26  819   1.231   6.932  12.048 -0.7920 -0.6899  0.3806
    7DOPE   H6R  820   1.160   6.999  11.996 -2.0456 -2.6109 -0.5073
    7DOPE   H6S  821   1.166   6.856  12.097 -1.5368 -1.4756 -1.6930
    7DOPE   C27  822   1.327   6.852  11.952 -0.1397 -1.1444  0.5200
    7DOPE   H7R  823   1.361   6.759  12.004 -0.4554 -1.4894  0.1160
    7DOPE   H7S  824   1.416   6.904  11.911 -2.1010  1.9811 -0.0619
    7DOPE   C28  825   1.256   6.800  11.823  0.0180  0.5144  0.0136
    7DOPE   H8R  826   1.187   6.717  11.850  0.2618  0.0956 -0.6283
    7DOPE   H8S  827   1.335   6.738  11.775 -1.1398 -1.4636  0.5256
    7DOPE   C29  828   1.178   6.897  11.738  0.0208 -0.2070  0.0323
    7DOPE   H9R  829   1.070   6.906  11.757  0.3305  2.3917  0.9767
    7DOPE  C210  830   1.228   6.973  11.638 -0.4153 -0.1079  0.1963
    7DOPE  H10R  831   1.163   7.037  11.577  0.3961  2.6582  2.0135
    7DOPE  C211  832   1.374   6.966  11.593 -0.9665  0.5282 -0.1410
    7DOPE  H11R  833   1.376   6.920  11.492 -2.7066  1.7714 -0.7998
    7DOPE  H11S  834   1.445   6.909  11.656 -0.3733  1.2658 -0.1256
    7DOPE  C212  835   1.425   7.104  11.588  0.5943 -0.4634  0.7378
    7DOPE  H12R  836   1.453   7.143  11.688 -1.5156  2.4551  0.3437
    7DOPE  H12S  837   1.345   7.165  11.540 -0.1478 -1.3549  0.8154
    7DOPE  C213  838   1.552   7.103  11.508 -1.0524 -0.0550  0.7913
    7DOPE  H13R  839   1.528   7.089  11.400 -2.6741  1.7648  0.8448
    7DOPE  H13S  840   1.601   7.014  11.553 -1.4761  0.0417  1.4650
    7DOPE  C214  841   1.650   7.221  11.512 -0.4454  0.1628 -0.3068
    7DOPE  H14R  842   1.677   7.238  11.619  1.7002 -1.6560 -0.4876
    7DOPE  H14S  843   1.608   7.310  11.462 -0.8940 -0.2756 -0.7199
    7DOPE  C215  844   1.788   7.178  11.449 -0.1047 -0.6319 -0.2592
    7DOPE  H15R  845   1.813   7.074  11.481 -0.9556 -1.0836 -1.0058
    7DOPE  H15S  846   1.859   7.253  11.490 -0.2073 -0.1717 -0.9176
    7DOPE  C216  847   1.792   7.183  11.299  0.1978 -0.2659  0.0952
    7DOPE  H16R  848   1.737   7.275  11.268 -1.0960 -0.3826  1.8594
    7DOPE  H16S  849   1.729   7.100  11.261  1.1050 -0.1743 -1.7134
    7DOPE  C217  850   1.929   7.185  11.235 -0.5753 -0.2905 -0.2427
    7DOPE  H17R  851   1.987   7.093  11.259  2.7078  2.0088  1.3987
    7DOPE  H17S  852   2.002   7.259  11.272 -1.0558 -0.1235  0.3946
    7DOPE  C218  853   1.908   7.207  11.082  0.0788 -0.1427  0.7606
    7DOPE  H18R  854   2.009   7.213  11.038 -0.3033  1.4003  0.0221
    7DOPE  H18S  855   1.853   7.301  11.061 -1.4263 -0.9030  1.1236
    7DOPE  H18T  856   1.859   7.120  11.032  1.3543 -0.5143  0.1353
    7DOPE   C33  857   1.027   6.971  12.543 -0.0601  0.1337  0.0656
    7DOPE   H3X  858   1.119   6.991  12.484 -0.4020  0.2034 -0.4446
    7DOPE   H3Y  859   0.995   7.057  12.606 -0.8027 -1.4032  1.8929
    7DOPE   C34  860   0.918   6.926  12.440  0.0272  0.1531  0.0256
    7DOPE   H4X  861   0.944   6.829  12.393 -1.0230 -0.4076  0.5567
    7DOPE   H4Y  862   0.832   6.909  12.508  1.0346  0.7614  1.5021
    7DOPE   C35  863   0.899   7.043  12.347 -0.0222 -0.2432 -0.6610
    7DOPE   H5X  864   1.000   7.076  12.315 -0.0474  2.4509  1.6223
    7DOPE   H5Y  865   0.850   7.132  12.394  2.1017  0.2725  0.7333
    7DOPE   C36  866   0.828   7.018  12.211  0.0842  0.7848  0.0291
    7DOPE   H6X  867   0.719   7.039  12.199 -0.4555 -0.6711  1.8370
    7DOPE   H6Y  868   0.838   6.907  12.212  1.5007  0.8791  1.7364
    7DOPE   C37  869   0.901   7.095  12.100  0.5181 -0.4354  0.1123
    7DOPE   H7X  870   0.878   7.202  12.121 -1.3862 -1.1790  2.1204
    7DOPE   H7Y  871   1.010   7.075  12.109  1.2703  1.6979 -2.6524
    7DOPE   C38  872   0.865   7.071  11.956 -0.1422  0.4347  1.1124
    7DOPE   H8X  873   0.757   7.090  11.936  0.1437  2.0424  0.9775
    7DOPE   H8Y  874   0.889   6.965  11.932 -1.3880  0.3969 -0.0678
    7DOPE   C39  875   0.951   7.161  11.869  0.5066  0.4646 -0.5359
    7DOPE   H9X  876   1.054   7.171  11.906 -0.4764  4.9978  1.6836
    7DOPE  C310  877   0.911   7.243  11.773  0.2297 -0.0280 -0.5107
    7DOPE  H10X  878   0.992   7.297  11.721 -0.6783  1.4638 -0.4118
    7DOPE  C311  879   0.767   7.279  11.738  0.2080  0.1838  0.2225
    7DOPE  H11X  880   0.735   7.237  11.640 -0.7115 -0.5093  0.8016
    7DOPE  H11Y  881   0.694   7.239  11.812 -0.2031 -0.5382 -0.5562
    7DOPE  C312  882   0.743   7.429  11.730  0.2221 -0.4253  0.1999
    7DOPE  H12X  883   0.634   7.447  11.715 -0.2708 -2.6957  0.6047
    7DOPE  H12Y  884   0.802   7.472  11.647 -0.5854  2.5238  1.0330
    7DOPE  C313  885   0.775   7.508  11.859 -0.1059 -0.3834 -0.9822
    7DOPE  H13X  886   0.886   7.502  11.865 -0.0703 -0.3353 -1.5489
    7DOPE  H13Y  887   0.762   7.618  11.851  2.5204  0.1171  0.5330
    7DOPE  C314  888   0.713   7.437  11.985 -0.1266  0.2083  0.0627
    7DOPE  H14X  889   0.749   7.333  11.999  1.3040  0.5918 -0.5688
    7DOPE  H14Y  890   0.605   7.443  11.962  0.1499  1.1066 -1.1536
    7DOPE  C315  891   0.746   7.514  12.108 -0.2099  0.1115 -0.3007
    7DOPE  H15X  892   0.694   7.613  12.112  3.3852  2.1570  2.1893
    7DOPE  H15Y  893   0.856   7.527  12.108 -0.0115 -1.3906 -0.8771
    7DOPE  C316  894   0.732   7.440  12.238  1.0182 -0.4584  0.0718
    7DOPE  H16X  895   0.796   7.350  12.250  0.0638 -1.1848 -0.0543
    7DOPE  H16Y  896   0.628   7.402  12.253  0.8636 -0.5386 -1.1275
    7DOPE  C317  897   0.765   7.533  12.359 -0.6565  0.3138  0.1614
    7DOPE  H17X  898   0.872   7.547  12.382 -0.6368 -0.3024  0.4864
    7DOPE  H17Y  899   0.721   7.631  12.330 -0.0583  1.4154  2.6831
    7DOPE  C318  900   0.682   7.498  12.480  0.0895  0.6809  0.2690
    7DOPE  H18X  901   0.712   7.399  12.522 -1.2712  0.1185 -0.0530
    7DOPE  H18Y  902   0.693   7.565  12.568 -2.4111  1.1348  0.3053
    7DOPE  H18Z  903   0.576   7.491  12.450  1.1488 -0.4652 -3.8969
    8DOPE     N  904   3.004   6.411  13.351 -0.1692  0.7726  0.1805
    8DOPE   HN1  905   3.012   6.313  13.383 -0.7888  0.8177  0.4899
    8DOPE   HN2  906   3.100   6.439  13.321  1.2254 -3.8923 -0.5421
    8DOPE   HN3  907   2.961   6.465  13.429 -1.1476  1.1874 -0.6279
    8DOPE   C12  908   2.915   6.413  13.233 -0.3307 -0.3014  0.6589
    8DOPE  H12A  909   2.822   6.361  13.264 -1.1176  1.4034  1.2529
    8DOPE  H12B  910   2.957   6.347  13.154 -0.0525 -0.6083  1.0644
    8DOPE   C11  911   2.888   6.549  13.166  0.0216  0.0071 -0.1381
    8DOPE  H11A  912   2.794   6.534  13.108  0.0988  0.1749 -0.3056
    8DOPE  H11B  913   2.971   6.589  13.105  1.0425  0.8661  1.7242
    8DOPE     P  914   2.709   6.667  13.320 -0.0502 -0.0960 -0.3082
    8DOPE   O13  915   2.699   6.772  13.422 -0.4333 -0.5148 -0.2069
    8DOPE   O14  916   2.633   6.540  13.346 -0.0843 -0.5335  0.2354
    8DOPE   O11  917   2.642   6.731  13.189 -0.3047  0.0246 -0.0827
    8DOPE   O12  918   2.864   6.646  13.269  0.3983  0.0590  0.3796
    8DOPE    C1  919   2.693   6.837  13.115 -1.0541  0.1445  0.2728
    8DOPE    HA  920   2.775   6.889  13.169 -0.1867 -0.2586 -0.6240
    8DOPE    HB  921   2.613   6.910  13.095 -0.7227  0.5419  0.3824
    8DOPE    C2  922   2.739   6.790  12.975  0.2789 -0.3962 -1.0220
    8DOPE    HS  923   2.820   6.714  12.975  0.5642 -0.2151  1.9344
    8DOPE   O21  924   2.779   6.909  12.906 -0.1965 -0.1776  0.3165
    8DOPE   C21  925   2.905   6.958  12.934  0.3555  0.4837  0.2856
    8DOPE   O22  926   2.980   6.911  13.016  0.6961 -0.0028 -0.0380
    8DOPE   C22  927   2.922   7.099  12.864 -0.0631  0.2931 -0.1753
    8DOPE   H2R  928   3.022   7.107  12.816 -1.4379  1.5960 -3.0490
    8DOPE   H2S  929   2.912   7.172  12.947 -1.9704  0.2862 -0.3507
    8DOPE    C3  930   2.620   6.732  12.904  0.8010  0.5419 -0.0314
    8DOPE    HX  931   2.531   6.775  12.954  0.4442  0.1733 -0.3388
    8DOPE    HY  932   2.609   6.623  12.923  0.3613  0.6888  0.5867
    8DOPE   O31  933   2.615   6.762  12.762 -0.2450  0.4768 -0.3338
    8DOPE   C31  934   2.517   6.708  12.696  0.3960 -0.0799  0.5647
    8DOPE   O32  935   2.424   6.641  12.739  0.0193 -0.3809  0.0826
    8DOPE   C32  936   2.551   6.725  12.546 -0.2247  0.2235 -0.3627
    8DOPE   H2X  937   2.549   6.833  12.523 -0.4338  0.0175 -1.3763
    8DOPE   H2Y  938   2.657   6.689  12.547  0.3302  1.7060  2.2743
    8DOPE   C23  939   2.828   7.116  12.747 -0.0046  0.8416  0.2103
    8DOPE   H3R  940   2.838   7.224  12.723 -0.6589  1.1195  1.1373
    8DOPE   H3S  941   2.722   7.092  12.770 -0.1873 -0.4277 -1.6956
    8DOPE   C24  942   2.864   7.029  12.621 -0.4527  0.0678 -0.2581
    8DOPE   H4R  943   2.852   6.920  12.638  2.5421 -0.2565  0.3191
    8DOPE   H4S  944   2.972   7.044  12.601 -0.6241  0.4607 -0.9231
    8DOPE   C25  945   2.767   7.065  12.506 -0.2001  0.3105 -0.1773
    8DOPE   H5R  946   2.777   7.174  12.484  1.0617 -0.1548 -2.1093
    8DOPE   H5S  947   2.669   7.047  12.554 -0.7714  2.3287 -0.4716
    8DOPE   C26  948   2.784   6.977  12.390 -0.3565  0.6292  0.7669
    8DOPE   H6R  949   2.779   6.868  12.414 -0.8284  0.5183  0.1757
    8DOPE   H6S  950   2.883   6.986  12.341  0.4670  1.0786  2.4211
    8DOPE   C27  951   2.670   7.001  12.286 -0.1393 -0.7550 -0.1700
    8DOPE   H7R  952   2.664   7.112  12.285 -1.0257 -0.7058  2.7464
    8DOPE   H7S  953   2.572   6.971  12.330 -1.0782  1.2562 -0.7164
    8DOPE   C28  954   2.684   6.939  12.146  0.1142 -0.1597  1.0168
    8DOPE   H8R  955   2.587   6.963  12.098  0.3625 -0.8899  0.1196
    8DOPE   H8S  956   2.688   6.828  12.146 -0.4126 -0.1816  1.3148
    8DOPE   C29  957   2.795   7.009  12.069  0.1386 -0.0657 -0.4371
    8DOPE   H9R  958   2.863   7.073  12.129  0.2264 -0.2947 -0.2922
    8DOPE  C210  959   2.796   7.022  11.929  0.2748  0.4716 -0.6791
    8DOPE  H10R  960   2.884   7.068  11.882 -0.5455  1.7430 -0.9932
    8DOPE  C211  961   2.699   6.951  11.830 -0.8888 -0.3632 -0.2127
    8DOPE  H11R  962   2.606   7.005  11.802 -0.5837  0.8579  1.0511
    8DOPE  H11S  963   2.657   6.860  11.878  0.1497 -0.6359  0.2039
    8DOPE  C212  964   2.759   6.889  11.699 -0.4538 -0.9069  0.1164
    8DOPE  H12R  965   2.678   6.824  11.660  1.6521 -3.5097 -0.2103
    8DOPE  H12S  966   2.845   6.822  11.724  2.2215  2.5210  0.8377
    8DOPE  C213  967   2.810   6.993  11.596 -0.4531 -0.1296 -0.2592
    8DOPE  H13R  968   2.896   7.052  11.634  1.1305 -0.9011 -2.4492
    8DOPE  H13S  969   2.728   7.067  11.584  0.6579  0.8863 -2.1093
    8DOPE  C214  970   2.855   6.937  11.466 -0.1236  0.9105 -0.3927
    8DOPE  H14R  971   2.790   6.849  11.449  0.8265  0.1035  0.0895
    8DOPE  H14S  972   2.962   6.911  11.457 -0.6970 -0.9192 -2.6977
    8DOPE  C215  973   2.823   7.039  11.353  0.1342 -0.1416  0.1743
    8DOPE  H15R  974   2.715   7.063  11.354 -0.2107 -1.5105 -1.0035
    8DOPE  H15S  975   2.834   6.995  11.251 -2.4414 -2.2690  0.6953
    8DOPE  C216  976   2.921   7.158  11.356 -0.2220 -0.5891  1.5019
    8DOPE  H16R  977   3.028   7.133  11.338 -0.6372 -0.5328 -1.6216
    8DOPE  H16S  978   2.916   7.204  11.457 -0.9515  4.8913 -0.7184
    8DOPE  C217  979   2.880   7.271  11.254  0.3698  0.7178 -0.1639
    8DOPE  H17R  980   2.776   7.299  11.278  0.5567  0.4925  0.9819
    8DOPE  H17S  981   2.886   7.227  11.152  0.9774 -0.8798  0.5274
    8DOPE  C218  982   2.964   7.397  11.267  0.5770  0.2788  0.6083
    8DOPE  H18R  983   2.922   7.459  11.349  1.8685 -1.1403  2.4132
    8DOPE  H18S  984   2.963   7.461  11.176  0.3186 -1.0813 -0.3782
    8DOPE  H18T  985   3.067   7.366  11.296  0.0441 -3.0134 -0.5387
    8DOPE   C33  986   2.453   6.654  12.455 -0.5410 -0.5285  0.3036
    8DOPE   H3X  987   2.351   6.685  12.486 -0.6269  0.5696 -0.9960
    8DOPE   H3Y  988   2.463   6.545  12.472  0.4757 -0.1941  2.0910
    8DOPE   C34  989   2.475   6.682  12.303 -0.5104 -0.1166  0.4746
    8DOPE   H4X  990   2.474   6.791  12.282 -0.3795  0.1859  1.9159
    8DOPE   H4Y  991   2.579   6.652  12.275 -0.9468 -1.1803 -0.0850
    8DOPE   C35  992   2.356   6.624  12.226 -0.6590 -0.1218  0.5180
    8DOPE   H5X  993   2.276   6.687  12.270  1.9600  2.7792  1.5710
    8DOPE   H5Y  994   2.334   6.517  12.246  0.3660 -0.8854 -2.0305
    8DOPE   C36  995   2.365   6.652  12.075  0.6336 -0.5677 -0.4510
    8DOPE   H6X  996   2.392   6.758  12.055 -1.3413  0.1282  0.2578
    8DOPE   H6Y  997   2.264   6.638  12.029  1.3805 -2.6233 -1.6155
    8DOPE   C37  998   2.461   6.554  12.002 -1.3156  0.0078 -0.2799
    8DOPE   H7X  999   2.552   6.617  11.988 -1.6614  0.4460 -0.6170
    8DOPE   H7Y 1000   2.476   6.471  12.074 -1.8918  0.4476  0.3630
    8DOPE   C38 1001   2.400   6.506  11.868 -0.1488 -0.5049  0.0297
    8DOPE   H8X 1002   2.294   6.476  11.875 -1.4689  2.3229 -4.0957
    8DOPE   H8Y 1003   2.457   6.420  11.828 -2.1414 -1.0893 -1.6806
    8DOPE   C39 1004   2.392   6.618  11.762 -0.1893  0.0761  0.1342
    8DOPE   H9X 1005   2.448   6.711  11.779  0.2655  0.2914 -2.2299
    8DOPE  C310 1006   2.312   6.604  11.651 -0.1224 -0.2101 -0.4017
    8DOPE  H10X 1007   2.312   6.678  11.569 -2.2964  0.1556 -0.1227
    8DOPE  C311 1008   2.249   6.474  11.610  0.0638  0.1369  0.2480
    8DOPE  H11X 1009   2.290   6.444  11.511 -1.5223 -0.5351 -0.2301
    8DOPE  H11Y 1010   2.261   6.389  11.681 -1.6652 -0.8813 -0.6133
    8DOPE  C312 1011   2.093   6.489  11.600 -0.9933  0.2725  0.4124
    8DOPE  H12X 1012   2.070   6.583  11.546  3.4809  1.0750 -0.4216
    8DOPE  H12Y 1013   2.050   6.500  11.702 -2.6027 -0.7500 -0.1208
    8DOPE  C313 1014   2.016   6.373  11.537  0.1148 -0.0654  0.1660
    8DOPE  H13X 1015   2.047   6.335  11.437  0.3715 -0.2962  0.3320
    8DOPE  H13Y 1016   2.034   6.287  11.604  0.1337  1.2751  1.9596
    8DOPE  C314 1017   1.869   6.410  11.515  0.4768  0.2932 -0.4705
    8DOPE  H14X 1018   1.865   6.499  11.449 -0.4229  0.1967 -0.5495
    8DOPE  H14Y 1019   1.831   6.436  11.616  3.3654 -0.7135  0.9947
    8DOPE  C315 1020   1.785   6.295  11.451  0.7325 -0.5863 -0.3145
    8DOPE  H15X 1021   1.827   6.265  11.353  0.1342 -1.3663 -0.3504
    8DOPE  H15Y 1022   1.687   6.341  11.425  1.1491  0.8505  0.6043
    8DOPE  C316 1023   1.778   6.173  11.546 -0.5640 -0.2867  0.3329
    8DOPE  H16X 1024   1.878   6.127  11.561 -0.8616 -0.7608  0.9048
    8DOPE  H16Y 1025   1.719   6.085  11.510 -1.6022 -0.0605  1.4095
    8DOPE  C317 1026   1.711   6.206  11.683  1.0151 -0.7839 -0.7183
    8DOPE  H17X 1027   1.788   6.251  11.751 -0.9198 -0.3868  1.3216
    8DOPE  H17Y 1028   1.625   6.273  11.662  0.5955 -0.0972  2.6010
    8DOPE  C318 1029   1.660   6.085  11.753  0.0155  0.2882 -0.2301
    8DOPE  H18X 1030   1.746   6.021  11.780  0.5635  1.3484  0.6279
    8DOPE  H18Y 1031   1.589   6.037  11.682  1.4977  0.7504 -2.0998
    8DOPE  H18Z 1032   1.609   6.110  11.849  1.1851  2.8863 -0.1864
    9DOPE     N 1033   5.205   5.080  13.999 -0.1723  0.3814  0.3117
    9DOPE   HN1 1034   5.254   5.047  13.914 -0.1413  0.7016  0.2056
    9DOPE   HN2 1035   5.212   5.005  14.072  1.7839  0.4288  0.2175
    9DOPE   HN3 1036   5.103   5.085  13.977 -1.2549 -2.0509  3.8199
    9DOPE   C12 1037   5.243   5.216  14.045  0.0658  0.6189 -0.3205
    9DOPE  H12A 1038   5.265   5.278  13.956 -2.2303 -0.4897 -1.7541
    9DOPE  H12B 1039   5.331   5.188  14.106 -2.2813 -2.2455  2.1049
    9DOPE   C11 1040   5.134   5.282  14.138  0.7912  0.0230  0.0080
    9DOPE  H11A 1041   5.168   5.371  14.195  2.3699 -1.1470  0.9717
    9DOPE  H11B 1042   5.118   5.203  14.215 -0.8161  3.1226  3.1174
    9DOPE     P 1043   4.890   5.238  14.083  0.0995 -0.1982  0.0892
    9DOPE   O13 1044   4.786   5.271  13.983 -0.3482  0.3621  0.1283
    9DOPE   O14 1045   4.857   5.264  14.223 -0.1352  0.5159  0.7099
    9DOPE   O11 1046   4.920   5.078  14.067 -0.2871 -0.4461 -0.1998
    9DOPE   O12 1047   5.024   5.313  14.052  0.1442 -0.4825 -0.0336
    9DOPE    C1 1048   4.805   4.996  14.031 -0.1988  0.3514 -0.5402
    9DOPE    HA 1049   4.706   5.044  14.018 -0.2808  0.0604 -0.9901
    9DOPE    HB 1050   4.788   4.927  14.116 -1.2078  0.7305 -0.4187
    9DOPE    C2 1051   4.844   4.917  13.905 -0.0453 -0.0155  1.1545
    9DOPE    HS 1052   4.946   4.873  13.908 -0.8962 -2.1460  0.9652
    9DOPE   O21 1053   4.817   4.998  13.780  0.5033  0.4832 -0.6231
    9DOPE   C21 1054   4.914   5.085  13.744 -0.5773 -0.0017  0.0285
    9DOPE   O22 1055   5.027   5.088  13.794 -0.3673 -0.1495  0.3936
    9DOPE   C22 1056   4.849   5.187  13.644  0.5014 -0.4691 -0.1215
    9DOPE   H2R 1057   4.812   5.256  13.723 -0.0859 -1.6452  0.6640
    9DOPE   H2S 1058   4.752   5.145  13.610 -0.6962 -0.4890  2.9600
    9DOPE    C3 1059   4.744   4.796  13.887  0.1520  0.1758 -0.3564
    9DOPE    HX 1060   4.650   4.843  13.922  1.2117  0.9107  1.6360
    9DOPE    HY 1061   4.755   4.713  13.960  1.2699  1.0956  0.5655
    9DOPE   O31 1062   4.751   4.740  13.751  0.2996 -0.4198 -0.3525
    9DOPE   C31 1063   4.653   4.767  13.664  0.2369 -0.3782 -0.5965
    9DOPE   O32 1064   4.542   4.810  13.690 -0.3636 -0.1360 -0.8990
    9DOPE   C32 1065   4.704   4.754  13.522  0.0140  0.6313 -0.5617
    9DOPE   H2X 1066   4.799   4.812  13.519  0.2712  0.5649  2.5073
    9DOPE   H2Y 1067   4.731   4.648  13.504 -0.4114  0.6694 -1.4646
    9DOPE   C23 1068   4.940   5.236  13.542 -0.1942  0.0600  1.0719
    9DOPE   H3R 1069   5.037   5.280  13.573 -0.2755  1.6980 -0.7886
    9DOPE   H3S 1070   4.898   5.318  13.480  0.3534 -0.9843 -0.7452
    9DOPE   C24 1071   4.978   5.130  13.436 -0.0081  0.8132  0.7034
    9DOPE   H4R 1072   4.977   5.030  13.486 -1.6096 -0.3215 -1.4323
    9DOPE   H4S 1073   5.080   5.160  13.403  0.7243  0.1434  2.2392
    9DOPE   C25 1074   4.881   5.116  13.314  0.7030 -1.0216  0.6421
    9DOPE   H5R 1075   4.869   5.217  13.268  3.4027 -0.3283  1.2847
    9DOPE   H5S 1076   4.787   5.077  13.357  0.1026  1.9800  2.3087
    9DOPE   C26 1077   4.942   5.041  13.196  0.0839 -0.5005 -0.0496
    9DOPE   H6R 1078   4.930   4.935  13.228 -1.4428  0.3825  2.5309
    9DOPE   H6S 1079   5.048   5.065  13.172  0.0696 -0.6107 -0.2313
    9DOPE   C27 1080   4.869   5.067  13.066 -0.1372 -0.0447 -0.2329
    9DOPE   H7R 1081   4.881   5.175  13.043  1.8072 -0.7230 -2.8732
    9DOPE   H7S 1082   4.759   5.054  13.069 -0.0177 -1.3197 -0.8338
    9DOPE   C28 1083   4.932   4.994  12.943 -0.8708 -0.2728 -0.5006
    9DOPE   H8R 1084   4.879   4.899  12.919 -0.4605 -0.0714 -2.3472
    9DOPE   H8S 1085   5.039   4.973  12.965 -0.9134  1.7725  2.2000
    9DOPE   C29 1086   4.928   5.070  12.807  0.5585  0.7677  0.3412
    9DOPE   H9R 1087   4.914   5.179  12.811  0.9950  0.8152  3.4522
    9DOPE  C210 1088   4.914   5.016  12.686 -0.7890 -0.5991  0.3507
    9DOPE  H10R 1089   4.881   5.086  12.608 -1.9278 -1.0847  0.3750
    9DOPE  C211 1090   4.912   4.877  12.647  0.3831  0.3715  0.2927
    9DOPE  H11R 1091   4.841   4.808  12.698  1.1819 -1.8589 -1.4747
    9DOPE  H11S 1092   5.015   4.835  12.651  0.1904 -0.4651 -1.9622
    9DOPE  C212 1093   4.853   4.874  12.497 -0.0754 -0.5213  0.7313
    9DOPE  H12R 1094   4.751   4.916  12.482  0.3279 -0.2759 -1.7355
    9DOPE  H12S 1095   4.837   4.768  12.467 -0.3085 -0.9371  2.2416
    9DOPE  C213 1096   4.945   4.937  12.388  0.2140 -0.4797  0.3551
    9DOPE  H13R 1097   5.053   4.914  12.392  0.5577  1.1404  1.2082
    9DOPE  H13S 1098   4.937   5.048  12.385 -0.5129 -0.5460 -0.6283
    9DOPE  C214 1099   4.896   4.890  12.251 -0.0931  0.0414  0.3611
    9DOPE  H14R 1100   4.788   4.913  12.244 -0.0527  0.0637 -0.3071
    9DOPE  H14S 1101   4.911   4.780  12.251  2.0147  0.2750  0.9565
    9DOPE  C215 1102   4.964   4.944  12.129 -0.4022  0.6944 -0.1410
    9DOPE  H15R 1103   5.066   4.904  12.113 -1.2643 -1.3780 -0.9165
    9DOPE  H15S 1104   4.964   5.055  12.129 -0.1545  0.6948  0.0680
    9DOPE  C216 1105   4.895   4.913  11.996 -0.1073  0.0940  0.6873
    9DOPE  H16R 1106   4.958   4.958  11.917 -0.3204 -0.5805  0.1236
    9DOPE  H16S 1107   4.793   4.956  11.981 -0.3538 -0.5280  0.5603
    9DOPE  C217 1108   4.907   4.761  11.977  0.1857 -0.2993  0.0196
    9DOPE  H17R 1109   4.841   4.712  12.051 -0.4092 -0.2030 -0.4454
    9DOPE  H17S 1110   5.004   4.715  12.006 -0.4319 -0.2958  2.3019
    9DOPE  C218 1111   4.845   4.706  11.852 -0.3774 -0.0449 -0.2707
    9DOPE  H18R 1112   4.742   4.747  11.849  0.1357  1.8077  3.0615
    9DOPE  H18S 1113   4.841   4.595  11.851  0.0312 -0.0660  0.0806
    9DOPE  H18T 1114   4.900   4.730  11.758  1.6429 -1.7424  0.3959
    9DOPE   C33 1115   4.599   4.789  13.414  0.1076 -0.6433  0.1904
    9DOPE   H3X 1116   4.571   4.895  13.430 -0.2650 -0.9090  1.4558
    9DOPE   H3Y 1117   4.511   4.721  13.420 -0.2086 -0.3685 -1.1098
    9DOPE   C34 1118   4.664   4.765  13.281  0.0982  0.4811 -1.3299
    9DOPE   H4X 1119   4.705   4.860  13.241 -0.3760 -0.0865 -3.2825
    9DOPE   H4Y 1120   4.752   4.700  13.298 -1.2451 -0.5817  2.6082
    9DOPE   C35 1121   4.572   4.706  13.177  0.2665  0.4091  0.5163
    9DOPE   H5X 1122   4.505   4.783  13.131  4.2807  2.9542 -1.6295
    9DOPE   H5Y 1123   4.503   4.632  13.222 -0.0119  2.3953  3.6470
    9DOPE   C36 1124   4.645   4.638  13.051  0.5001  0.5461 -0.1080
    9DOPE   H6X 1125   4.703   4.552  13.091 -1.5977 -0.1813  1.5946
    9DOPE   H6Y 1126   4.717   4.708  13.003  1.2275  0.3802  0.7305
    9DOPE   C37 1127   4.551   4.581  12.943 -0.9533  0.0802 -0.4531
    9DOPE   H7X 1128   4.488   4.494  12.972  1.1081 -1.0561  0.8797
    9DOPE   H7Y 1129   4.484   4.665  12.913 -2.9607  0.8154  4.9248
    9DOPE   C38 1130   4.646   4.527  12.829  0.0326 -0.1984  0.3850
    9DOPE   H8X 1131   4.724   4.457  12.867  0.4073  0.5151  0.9438
    9DOPE   H8Y 1132   4.691   4.618  12.784  2.4412 -1.9514 -1.0029
    9DOPE   C39 1133   4.569   4.440  12.731  0.4500  0.5864 -0.4027
    9DOPE   H9X 1134   4.576   4.331  12.742  0.9482  0.7491  1.2656
    9DOPE  C310 1135   4.510   4.476  12.622 -0.6418 -0.8574 -0.3454
    9DOPE  H10X 1136   4.466   4.400  12.555 -1.2432 -2.6463  1.9622
    9DOPE  C311 1137   4.514   4.620  12.570 -0.2509 -0.8777  0.6397
    9DOPE  H11X 1138   4.416   4.666  12.545  1.0277  1.9770  0.5176
    9DOPE  H11Y 1139   4.578   4.686  12.632  1.2984  0.7783 -2.4769
    9DOPE  C312 1140   4.571   4.616  12.423  0.6010 -0.0449 -0.2317
    9DOPE  H12X 1141   4.662   4.553  12.428  0.9407  0.4150 -0.5505
    9DOPE  H12Y 1142   4.616   4.716  12.401 -0.4135  0.5288  0.2102
    9DOPE  C313 1143   4.467   4.567  12.318 -0.8947  0.3200  0.3613
    9DOPE  H13X 1144   4.435   4.467  12.354  1.2404  0.0832  1.7882
    9DOPE  H13Y 1145   4.377   4.632  12.316  0.6844  2.6586  1.0499
    9DOPE  C314 1146   4.532   4.571  12.176 -0.2397  0.1098  0.1691
    9DOPE  H14X 1147   4.609   4.491  12.174 -1.0017 -0.6735  1.4358
    9DOPE  H14Y 1148   4.567   4.677  12.172 -2.5669  0.9345  0.2109
    9DOPE  C315 1149   4.429   4.548  12.064 -0.6492  0.9267  0.3963
    9DOPE  H15X 1150   4.335   4.607  12.059 -1.5034 -0.4819 -2.1115
    9DOPE  H15Y 1151   4.403   4.441  12.079 -0.9755  0.9644  0.1059
    9DOPE  C316 1152   4.482   4.557  11.916 -0.6330 -0.1679  0.4619
    9DOPE  H16X 1153   4.580   4.511  11.890 -0.2595  1.6157 -1.5294
    9DOPE  H16Y 1154   4.502   4.666  11.908 -0.7060 -0.2891 -3.1355
    9DOPE  C317 1155   4.374   4.536  11.809  0.2722 -0.4672 -0.4567
    9DOPE  H17X 1156   4.332   4.434  11.819  1.9179 -1.1872 -0.4765
    9DOPE  H17Y 1157   4.297   4.614  11.821  2.0168  1.1985  0.4582
    9DOPE  C318 1158   4.425   4.555  11.666 -0.3892  0.3703  0.3204
    9DOPE  H18X 1159   4.491   4.467  11.648  0.8847  0.7561  2.6883
    9DOPE  H18Y 1160   4.342   4.576  11.596  0.1851  1.3209 -0.1097
    9DOPE  H18Z 1161   4.486   4.648  11.666  0.8866 -0.4444  0.0425
   10DOPE     N 1162   4.148   0.539  14.150  0.0997  0.1112 -0.7137
   10DOPE   HN1 1163   4.198   0.573  14.235 -0.6481  1.7130 -0.8729
   10DOPE   HN2 1164   4.175   0.610  14.079  1.7577  1.6530  1.3075
   10DOPE   HN3 1165   4.046   0.529  14.165  0.3345  0.4003  1.5713
   10DOPE   C12 1166   4.198   0.407  14.110  0.0535  0.5278  0.0112
   10DOPE  H12A 1167   4.134   0.333  14.163  0.9000  1.2004  2.0628
   10DOPE  H12B 1168   4.304   0.404  14.141  0.3896 -0.4155 -1.1200
   10DOPE   C11 1169   4.174   0.384  13.951 -0.2667 -0.6174  0.6594
   10DOPE  H11A 1170   4.064   0.385  13.934 -0.0477 -0.0313 -0.8796
   10DOPE  H11B 1171   4.196   0.279  13.921 -2.3472 -0.9327  0.1015
   10DOPE     P 1172   4.377   0.468  13.797  0.1779 -0.0374 -0.0295
   10DOPE   O13 1173   4.458   0.364  13.860  0.0455 -0.3264 -0.2881
   10DOPE   O14 1174   4.433   0.599  13.779  0.1708 -0.1012  0.1169
   10DOPE   O11 1175   4.345   0.419  13.659  0.5746  0.1812  0.0071
   10DOPE   O12 1176   4.237   0.488  13.871  0.1094 -0.7696 -0.6581
   10DOPE    C1 1177   4.278   0.293  13.639 -0.5577 -0.6446  0.0481
   10DOPE    HA 1178   4.173   0.312  13.609 -1.1349  2.2298  3.2072
   10DOPE    HB 1179   4.276   0.237  13.735  1.6399  0.5778  0.8753
   10DOPE    C2 1180   4.344   0.202  13.533  0.2475 -0.3356  0.2787
   10DOPE    HS 1181   4.293   0.104  13.541 -0.2636 -0.0108  1.1267
   10DOPE   O21 1182   4.485   0.194  13.568  0.1622  0.6910 -0.8534
   10DOPE   C21 1183   4.507   0.104  13.662 -0.3041  1.2007 -0.0818
   10DOPE   O22 1184   4.420   0.032  13.717 -0.2188 -0.4094 -0.0232
   10DOPE   C22 1185   4.660   0.109  13.692  1.2865 -0.3501 -0.0704
   10DOPE   H2R 1186   4.657   0.099  13.803  0.1588  3.5691  0.4000
   10DOPE   H2S 1187   4.702   0.208  13.665  1.4901 -0.2217  0.6947
   10DOPE    C3 1188   4.340   0.250  13.382 -0.3787  0.9340 -0.5629
   10DOPE    HX 1189   4.384   0.352  13.371  0.7556  0.5096 -0.1586
   10DOPE    HY 1190   4.232   0.254  13.359 -1.3676 -0.3725  3.2241
   10DOPE   O31 1191   4.382   0.155  13.286 -0.2158  0.0138 -0.3175
   10DOPE   C31 1192   4.506   0.177  13.234  0.5388 -0.3923  0.0044
   10DOPE   O32 1193   4.589   0.248  13.288 -0.2899  0.0860  0.5864
   10DOPE   C32 1194   4.530   0.087  13.115 -0.1208  0.2839  0.5975
   10DOPE   H2X 1195   4.531  -0.018  13.150  0.3091  0.6049  1.5653
   10DOPE   H2Y 1196   4.446   0.099  13.042 -1.4370 -1.4943  1.7436
   10DOPE   C23 1197   4.725  -0.025  13.637 -0.2172  0.4116 -0.1066
   10DOPE   H3R 1198   4.670  -0.112  13.679  2.3077 -0.1116  2.4809
   10DOPE   H3S 1199   4.828  -0.034  13.677  0.0316 -0.5769 -0.9463
   10DOPE   C24 1200   4.734  -0.030  13.481  1.1728  0.7274  1.1247
   10DOPE   H4R 1201   4.813   0.031  13.432  1.6820 -0.5619  0.2904
   10DOPE   H4S 1202   4.633   0.006  13.449  1.2452  0.9766  1.1762
   10DOPE   C25 1203   4.761  -0.168  13.418  0.3007 -0.4737 -0.9588
   10DOPE   H5R 1204   4.699  -0.253  13.454  0.2376  0.2411  0.6802
   10DOPE   H5S 1205   4.857  -0.199  13.463 -0.4053 -1.0436  0.1972
   10DOPE   C26 1206   4.786  -0.179  13.267 -0.0199  0.6754 -0.0110
   10DOPE   H6R 1207   4.840  -0.091  13.227  1.8142 -0.1669  0.4962
   10DOPE   H6S 1208   4.695  -0.173  13.203  1.2164  1.3205 -1.7872
   10DOPE   C27 1209   4.865  -0.307  13.221  0.2847 -0.4050  0.4712
   10DOPE   H7R 1210   4.804  -0.396  13.246 -1.1634 -0.2649 -2.1689
   10DOPE   H7S 1211   4.962  -0.309  13.276  0.9238 -0.4344 -0.6046
   10DOPE   C28 1212   4.898  -0.305  13.071  0.4106  0.3590 -0.3807
   10DOPE   H8R 1213   4.977  -0.381  13.053  1.9129  1.8503 -0.2502
   10DOPE   H8S 1214   4.942  -0.210  13.034  0.8461 -0.5978 -2.4776
   10DOPE   C29 1215   4.765  -0.329  12.998 -0.1052 -0.1368 -0.1518
   10DOPE   H9R 1216   4.689  -0.382  13.058  1.3959 -3.1648 -0.7065
   10DOPE  C210 1217   4.742  -0.312  12.868  0.8415  0.6141 -1.1136
   10DOPE  H10R 1218   4.637  -0.328  12.839  0.5428 -1.6829  0.8587
   10DOPE  C211 1219   4.822  -0.246  12.763  0.5982  0.1127  0.2519
   10DOPE  H11R 1220   4.932  -0.259  12.775  0.7532 -0.0353 -1.2168
   10DOPE  H11S 1221   4.804  -0.137  12.775  0.5501  0.0763  0.5280
   10DOPE  C212 1222   4.795  -0.296  12.624 -0.1931  0.4357  0.7260
   10DOPE  H12R 1223   4.839  -0.226  12.550  1.2808 -0.6138  0.5617
   10DOPE  H12S 1224   4.687  -0.316  12.610 -0.2202 -0.4583  2.0373
   10DOPE  C213 1225   4.847  -0.434  12.593 -0.2451  0.2519  0.0851
   10DOPE  H13R 1226   4.780  -0.512  12.634  0.2559  0.4506  1.3128
   10DOPE  H13S 1227   4.949  -0.450  12.635 -0.9075 -2.6276  0.8538
   10DOPE  C214 1228   4.860  -0.455  12.440  0.0010  0.4363  0.5825
   10DOPE  H14R 1229   4.911  -0.366  12.398  0.6359 -0.0135  0.3827
   10DOPE  H14S 1230   4.760  -0.459  12.391  1.5274  1.9177 -3.1007
   10DOPE  C215 1231   4.949  -0.582  12.407  0.5067  0.2551 -0.4168
   10DOPE  H15R 1232   4.909  -0.678  12.447 -1.0713  2.0657  2.8519
   10DOPE  H15S 1233   5.051  -0.564  12.447  1.1184 -2.2250 -0.6945
   10DOPE  C216 1234   4.967  -0.584  12.251  0.1854  0.3331 -1.1551
   10DOPE  H16R 1235   5.055  -0.644  12.219  1.2386  1.9942 -1.5085
   10DOPE  H16S 1236   4.976  -0.477  12.221 -0.4532  2.4781  4.8400
   10DOPE  C217 1237   4.836  -0.644  12.194 -0.5892  0.2959 -1.1187
   10DOPE  H17R 1238   4.753  -0.571  12.212 -0.8721 -0.4934  1.1685
   10DOPE  H17S 1239   4.803  -0.739  12.240 -2.3745  1.8873  1.1587
   10DOPE  C218 1240   4.858  -0.679  12.048 -0.2118 -0.5832 -0.1596
   10DOPE  H18R 1241   4.942  -0.750  12.032  0.5854  0.7364 -2.2058
   10DOPE  H18S 1242   4.893  -0.588  11.995  2.2982 -0.5751  1.3027
   10DOPE  H18T 1243   4.766  -0.716  11.998  0.2567 -0.5633 -1.0422
   10DOPE   C33 1244   4.668   0.116  13.048 -0.0661 -0.2221 -0.3960
   10DOPE   H3X 1245   4.754   0.075  13.105  0.9851  2.9758  0.5126
   10DOPE   H3Y 1246   4.687   0.221  13.019 -0.4647 -0.1962 -0.5701
   10DOPE   C34 1247   4.678   0.048  12.916  0.3342 -0.1094  0.1788
   10DOPE   H4X 1248   4.785   0.043  12.887  1.1713 -0.4328  3.0191
   10DOPE   H4Y 1249   4.644  -0.057  12.920 -0.4474  0.0955 -0.7046
   10DOPE   C35 1250   4.585   0.113  12.805  0.1616  0.0413  0.0744
   10DOPE   H5X 1251   4.612   0.220  12.796  0.3493 -0.0772 -0.8834
   10DOPE   H5Y 1252   4.477   0.111  12.831  0.0490  1.2111 -0.2341
   10DOPE   C36 1253   4.594   0.049  12.664 -0.4552 -0.3274  0.3676
   10DOPE   H6X 1254   4.495   0.068  12.618 -0.7311  0.6342  1.3148
   10DOPE   H6Y 1255   4.603  -0.061  12.674 -0.3558 -0.5203 -1.5273
   10DOPE   C37 1256   4.703   0.106  12.579  0.1025 -0.7082  0.2370
   10DOPE   H7X 1257   4.676   0.214  12.580 -1.8564 -1.1560 -0.1482
   10DOPE   H7Y 1258   4.803   0.090  12.623  1.2584  0.2341 -1.8700
   10DOPE   C38 1259   4.696   0.061  12.435  0.4252  0.1504  0.5168
   10DOPE   H8X 1260   4.704  -0.049  12.441  0.0337  0.0941  0.1174
   10DOPE   H8Y 1261   4.777   0.095  12.366  0.0409 -1.0978 -0.5935
   10DOPE   C39 1262   4.565   0.095  12.368 -0.5509 -0.4333 -0.3405
   10DOPE   H9X 1263   4.488   0.151  12.423 -0.3952 -1.9698  1.5408
   10DOPE  C310 1264   4.528   0.072  12.235 -0.8393 -0.3142 -0.3948
   10DOPE  H10X 1265   4.427   0.102  12.203 -1.2640 -0.7115  0.5429
   10DOPE  C311 1266   4.600  -0.025  12.146 -0.5794 -0.1755  0.2720
   10DOPE  H11X 1267   4.667  -0.090  12.207 -0.3863  0.4353  0.7170
   10DOPE  H11Y 1268   4.531  -0.092  12.090  0.5354 -1.0895 -0.0485
   10DOPE  C312 1269   4.666   0.062  12.036 -0.1363  0.0855  0.2706
   10DOPE  H12X 1270   4.748   0.125  12.077 -0.4251 -0.6653  2.0986
   10DOPE  H12Y 1271   4.586   0.130  12.000  0.8596  0.1519 -1.9644
   10DOPE  C313 1272   4.703  -0.024  11.907 -0.7606 -0.0151 -0.8330
   10DOPE  H13X 1273   4.773  -0.102  11.942  0.4274  1.4831  0.2713
   10DOPE  H13Y 1274   4.606  -0.063  11.868 -0.7147 -1.7145  0.6188
   10DOPE  C314 1275   4.762   0.073  11.802  0.6473  0.5219  0.3751
   10DOPE  H14X 1276   4.699   0.165  11.797 -1.2852 -0.7757 -0.4359
   10DOPE  H14Y 1277   4.757   0.038  11.697 -1.3261 -1.7242  1.1312
   10DOPE  C315 1278   4.912   0.114  11.837  0.1122  0.3032 -0.0788
   10DOPE  H15X 1279   4.944   0.013  11.870 -0.1302 -0.1731 -1.2367
   10DOPE  H15Y 1280   4.939   0.181  11.921  1.7395  0.4916 -0.7074
   10DOPE  C316 1281   4.986   0.161  11.708 -0.1210 -0.1925 -0.0305
   10DOPE  H16X 1282   4.928   0.239  11.655  1.3524 -0.1183 -1.6399
   10DOPE  H16Y 1283   4.983   0.081  11.631 -1.3084 -1.0542  0.8763
   10DOPE  C317 1284   5.124   0.214  11.729  0.5162 -0.3764 -0.1727
   10DOPE  H17X 1285   5.186   0.198  11.638  1.8069 -0.6706  0.7311
   10DOPE  H17Y 1286   5.130   0.323  11.748 -0.1190  0.0599 -2.2134
   10DOPE  C318 1287   5.203   0.155  11.838 -0.7301 -0.2227  0.1265
   10DOPE  H18X 1288   5.187   0.046  11.833 -0.3160 -0.2356 -1.2308
   10DOPE  H18Y 1289   5.312   0.179  11.835  0.1037 -3.1222  2.3299
   10DOPE  H18Z 1290   5.152   0.184  11.933 -3.2018 -2.7356 -0.3317
   11DOPE     N 1291   5.264   2.094  13.538  0.2367 -0.2760 -0.4586
   11DOPE   HN1 1292   5.243   2.183  13.587  1.0205 -0.3569  0.0477
   11DOPE   HN2 1293   5.368   2.088  13.546  0.6344  0.9635 -3.2700
   11DOPE   HN3 1294   5.232   2.114  13.440  0.1724  1.7603 -0.0707
   11DOPE   C12 1295   5.191   1.982  13.605  0.2838 -0.9037 -0.6809
   11DOPE  H12A 1296   5.223   1.979  13.712  0.3438  0.6890 -0.6342
   11DOPE  H12B 1297   5.218   1.886  13.555  2.4836 -0.1082 -1.1219
   11DOPE   C11 1298   5.037   2.012  13.593  0.3170  0.2390 -0.1663
   11DOPE  H11A 1299   4.983   1.921  13.627  0.6749 -1.1036 -2.9447
   11DOPE  H11B 1300   5.024   2.033  13.485  1.8859 -0.6112 -0.5429
   11DOPE     P 1301   4.877   2.119  13.758 -0.0603  0.0990 -0.0335
   11DOPE   O13 1302   4.850   2.254  13.818 -0.5502  0.5422  0.2209
   11DOPE   O14 1303   4.903   2.015  13.857 -0.9462  0.0435 -0.2357
   11DOPE   O11 1304   4.751   2.080  13.666  0.0492 -0.8236 -0.2020
   11DOPE   O12 1305   5.007   2.129  13.675 -0.3944  0.6739  0.3516
   11DOPE    C1 1306   4.730   2.114  13.530  0.3732 -0.9789  0.6888
   11DOPE    HA 1307   4.629   2.079  13.501  0.7956 -1.0772 -0.7353
   11DOPE    HB 1308   4.801   2.062  13.462 -1.0690  0.0553 -1.7154
   11DOPE    C2 1309   4.747   2.265  13.495 -0.3399 -0.6537  0.0491
   11DOPE    HS 1310   4.850   2.287  13.532 -0.2963 -0.3638 -0.2340
   11DOPE   O21 1311   4.642   2.335  13.574 -0.1422 -0.2200 -0.0720
   11DOPE   C21 1312   4.677   2.449  13.633  0.8487 -0.2354  0.2437
   11DOPE   O22 1313   4.782   2.502  13.615  0.0110  0.1696  0.3111
   11DOPE   C22 1314   4.566   2.489  13.732 -0.4788  0.1453  0.7560
   11DOPE   H2R 1315   4.588   2.445  13.831 -0.5369 -1.8663 -0.0749
   11DOPE   H2S 1316   4.469   2.442  13.705  0.7019 -0.8870 -2.1051
   11DOPE    C3 1317   4.721   2.299  13.346 -0.1706  1.0941 -1.3690
   11DOPE    HX 1318   4.628   2.245  13.318 -0.1811  0.1320  0.4183
   11DOPE    HY 1319   4.788   2.238  13.282 -0.8373  0.7084 -1.7224
   11DOPE   O31 1320   4.716   2.433  13.311 -0.1348  0.0442 -0.0787
   11DOPE   C31 1321   4.839   2.498  13.298  0.7209 -0.4737 -0.0857
   11DOPE   O32 1322   4.951   2.453  13.303  0.0571 -0.1613  0.1508
   11DOPE   C32 1323   4.801   2.649  13.284 -0.0644  0.4164  0.6083
   11DOPE   H2X 1324   4.733   2.670  13.370  0.6554 -2.8734  2.1325
   11DOPE   H2Y 1325   4.898   2.703  13.298 -0.0685  1.3314 -2.2126
   11DOPE   C23 1326   4.550   2.637  13.745 -0.5241  0.3022 -0.3326
   11DOPE   H3R 1327   4.651   2.681  13.757 -0.0315 -0.1245 -2.4274
   11DOPE   H3S 1328   4.488   2.650  13.836 -0.6440 -3.3096  0.2555
   11DOPE   C24 1329   4.482   2.706  13.625 -0.4555 -0.5817 -0.1210
   11DOPE   H4R 1330   4.381   2.665  13.603 -0.6685  0.8652 -2.1025
   11DOPE   H4S 1331   4.540   2.688  13.532  0.8162  0.8994  0.3558
   11DOPE   C25 1332   4.458   2.856  13.654  0.0793 -0.2253 -0.3358
   11DOPE   H5R 1333   4.554   2.890  13.697 -0.4652 -1.5476  2.1421
   11DOPE   H5S 1334   4.381   2.864  13.734  0.5705 -2.9015  0.5011
   11DOPE   C26 1335   4.404   2.939  13.539 -0.0396  0.1957  0.1438
   11DOPE   H6R 1336   4.404   3.042  13.579  0.4761  0.6866 -1.1032
   11DOPE   H6S 1337   4.306   2.907  13.496  0.4468  0.8019 -1.4916
   11DOPE   C27 1338   4.511   2.927  13.422  0.6231  0.1472  0.7987
   11DOPE   H7R 1339   4.528   2.823  13.388  1.0548  1.0080 -1.7596
   11DOPE   H7S 1340   4.613   2.961  13.450  1.6698  0.5562 -2.9956
   11DOPE   C28 1341   4.471   2.998  13.294  0.3203  0.3002 -0.3569
   11DOPE   H8R 1342   4.367   2.971  13.264  0.6124 -0.0414 -1.0844
   11DOPE   H8S 1343   4.543   2.947  13.227  1.1649 -1.4640  1.7931
   11DOPE   C29 1344   4.486   3.150  13.308  0.9288  0.2672  0.1466
   11DOPE   H9R 1345   4.406   3.196  13.369  1.8998 -0.1282  1.7867
   11DOPE  C210 1346   4.564   3.230  13.235  0.0674  0.8195 -0.9572
   11DOPE  H10R 1347   4.570   3.336  13.266  2.4001  0.2324  0.7957
   11DOPE  C211 1348   4.678   3.183  13.147 -0.4823  0.1595  0.7154
   11DOPE  H11R 1349   4.735   3.108  13.205  3.5167  1.1330 -1.6213
   11DOPE  H11S 1350   4.751   3.264  13.128 -1.0210  0.9067  1.7226
   11DOPE  C212 1351   4.616   3.131  13.014 -0.2191  0.7537  0.2001
   11DOPE  H12R 1352   4.573   3.218  12.960 -0.1462  2.6485  2.9740
   11DOPE  H12S 1353   4.534   3.057  13.026  0.9263 -0.6049 -0.1091
   11DOPE  C213 1354   4.728   3.072  12.922 -0.2746 -0.1311 -0.1807
   11DOPE  H13R 1355   4.769   2.981  12.971 -1.1249  0.2623  1.3341
   11DOPE  H13S 1356   4.807   3.148  12.904 -0.4928 -0.1605 -1.3083
   11DOPE  C214 1357   4.676   3.030  12.783  0.0423 -0.0502 -0.3816
   11DOPE  H14R 1358   4.600   2.949  12.789 -0.7698  0.7931  1.2017
   11DOPE  H14S 1359   4.766   2.990  12.731  1.2240  1.8224  0.1350
   11DOPE  C215 1360   4.620   3.146  12.700 -0.7469  0.1103  0.2283
   11DOPE  H15R 1361   4.690   3.230  12.721 -0.3725  0.1701 -1.1837
   11DOPE  H15S 1362   4.515   3.172  12.727 -0.3283  1.3872  0.7404
   11DOPE  C216 1363   4.617   3.120  12.548 -0.0943 -0.5303  0.0044
   11DOPE  H16R 1364   4.714   3.112  12.496 -1.0804 -0.9986 -1.8608
   11DOPE  H16S 1365   4.564   3.209  12.506 -0.8808 -1.1893 -0.4306
   11DOPE  C217 1366   4.544   2.994  12.511 -0.0466 -0.2011  0.3106
   11DOPE  H17R 1367   4.459   2.961  12.575 -0.4065  0.2060  0.0485
   11DOPE  H17S 1368   4.620   2.912  12.509  0.6669  0.4599 -0.4629
   11DOPE  C218 1369   4.503   3.010  12.360 -0.1174  0.4261  0.6444
   11DOPE  H18R 1370   4.576   3.067  12.298  0.5278 -0.4125  0.6364
   11DOPE  H18S 1371   4.404   3.061  12.353 -0.7452 -0.7626  0.6667
   11DOPE  H18T 1372   4.497   2.913  12.307  1.6784  2.2883 -3.4705
   11DOPE   C33 1373   4.738   2.662  13.143  0.3258  0.3967 -0.3314
   11DOPE   H3X 1374   4.685   2.759  13.140  0.4458  0.5133  0.8539
   11DOPE   H3Y 1375   4.661   2.583  13.127  1.2134 -0.6045  0.2300
   11DOPE   C34 1376   4.836   2.653  13.029  0.2721  0.4145  0.0129
   11DOPE   H4X 1377   4.903   2.741  13.043 -0.2979  0.5057  2.6070
   11DOPE   H4Y 1378   4.901   2.563  13.033  1.5074  1.3264  2.2604
   11DOPE   C35 1379   4.775   2.640  12.896  0.4681 -0.1739  0.9936
   11DOPE   H5X 1380   4.679   2.695  12.895  0.4174 -0.1983 -1.3599
   11DOPE   H5Y 1381   4.742   2.538  12.870 -1.2251  0.4974  0.4081
   11DOPE   C36 1382   4.857   2.677  12.773 -0.3097  0.0991  0.4636
   11DOPE   H6X 1383   4.943   2.608  12.762  0.2531  0.8971 -0.2484
   11DOPE   H6Y 1384   4.915   2.772  12.785  1.8275 -1.2013  0.9369
   11DOPE   C37 1385   4.772   2.678  12.652  0.8594 -0.0323  0.0580
   11DOPE   H7X 1386   4.722   2.579  12.656  1.3315 -0.2326  1.3558
   11DOPE   H7Y 1387   4.693   2.756  12.648  0.8359 -0.0420  0.3320
   11DOPE   C38 1388   4.849   2.684  12.520 -0.0743 -0.6455 -0.9030
   11DOPE   H8X 1389   4.780   2.644  12.443 -1.3380 -2.0110  0.8591
   11DOPE   H8Y 1390   4.931   2.609  12.525  2.0572  1.6424  0.3561
   11DOPE   C39 1391   4.901   2.823  12.491  0.6066  0.3660 -0.0449
   11DOPE   H9X 1392   4.916   2.891  12.576  1.3394  2.1626 -1.5385
   11DOPE  C310 1393   4.938   2.864  12.370  0.4911 -0.1658 -0.2037
   11DOPE  H10X 1394   4.973   2.967  12.355 -1.9899  0.4671 -2.2773
   11DOPE  C311 1395   4.916   2.787  12.243  0.3944 -1.1585  0.1280
   11DOPE  H11X 1396   5.013   2.751  12.201  0.8470  0.6147 -0.4297
   11DOPE  H11Y 1397   4.848   2.700  12.258 -2.0576  0.4811 -0.9117
   11DOPE  C312 1398   4.865   2.876  12.127 -0.3901 -0.0265 -0.5098
   11DOPE  H12X 1399   4.919   2.973  12.135  0.1896 -0.4959  3.0331
   11DOPE  H12Y 1400   4.759   2.909  12.134 -0.2242  0.1860  1.4250
   11DOPE  C313 1401   4.889   2.818  11.985 -0.1435  0.8471 -0.2359
   11DOPE  H13X 1402   4.999   2.810  11.974 -0.1374  1.1890 -0.4309
   11DOPE  H13Y 1403   4.843   2.717  11.983  0.5153  0.4672  1.4975
   11DOPE  C314 1404   4.849   2.913  11.873  0.6961 -0.8450  0.0991
   11DOPE  H14X 1405   4.909   3.005  11.887  0.0921 -0.1268 -1.7680
   11DOPE  H14Y 1406   4.742   2.945  11.875  0.8490 -0.3227  0.0610
   11DOPE  C315 1407   4.887   2.873  11.731 -0.3048  0.7561 -0.1174
   11DOPE  H15X 1408   4.842   2.944  11.657 -1.3375 -0.1581 -0.3828
   11DOPE  H15Y 1409   4.837   2.775  11.718  0.2204  0.5611 -0.6674
   11DOPE  C316 1410   5.039   2.841  11.720 -0.1694 -0.3472  0.1971
   11DOPE  H16X 1411   5.059   2.744  11.771  1.2539 -0.8785 -1.2739
   11DOPE  H16Y 1412   5.105   2.912  11.775 -2.1976  2.1746 -0.4599
   11DOPE  C317 1413   5.084   2.840  11.576  0.1654 -0.6066 -0.1083
   11DOPE  H17X 1414   5.184   2.794  11.557  0.0577 -1.7440  1.8751
   11DOPE  H17Y 1415   5.005   2.786  11.520 -1.9203  0.1195  1.9478
   11DOPE  C318 1416   5.082   2.975  11.510  0.5847  0.4915 -0.5699
   11DOPE  H18X 1417   5.127   2.983  11.409  1.0182 -0.2200 -0.4370
   11DOPE  H18Y 1418   4.978   3.013  11.493  0.4185  0.9373  1.2276
   11DOPE  H18Z 1419   5.132   3.049  11.577 -0.6838 -1.5427  2.8847
   12DOPE     N 1420   6.720   0.214  13.919 -0.5767 -0.1442 -0.3050
   12DOPE   HN1 1421   6.617   0.210  13.933 -0.3094  0.0327  2.2917
   12DOPE   HN2 1422   6.764   0.138  13.976 -1.4269  0.7265  1.5823
   12DOPE   HN3 1423   6.747   0.309  13.952  0.5094 -0.3357 -0.5736
   12DOPE   C12 1424   6.760   0.188  13.778  0.2250  0.4507 -0.6537
   12DOPE  H12A 1425   6.729   0.279  13.724 -1.3080  1.0898  1.1568
   12DOPE  H12B 1426   6.705   0.099  13.740 -0.1883  1.0400 -1.4734
   12DOPE   C11 1427   6.911   0.152  13.758  0.4099 -0.1253 -0.0356
   12DOPE  H11A 1428   6.967   0.239  13.800 -1.5443  1.9084 -1.4034
   12DOPE  H11B 1429   6.927   0.164  13.649  1.5004  5.2349  0.4116
   12DOPE     P 1430   7.080  -0.042  13.798  0.2512 -0.0337  0.2334
   12DOPE   O13 1431   7.095  -0.164  13.884  0.1698 -0.7220 -0.3830
   12DOPE   O14 1432   7.182   0.066  13.802 -0.2873  0.1181 -0.2766
   12DOPE   O11 1433   7.078  -0.097  13.645  0.5858  0.5781  0.3269
   12DOPE   O12 1434   6.941   0.025  13.810  0.0147 -0.2474 -0.1775
   12DOPE    C1 1435   6.957  -0.153  13.591  0.6538 -0.0133  0.2788
   12DOPE    HA 1436   6.887  -0.071  13.564  0.4354 -1.1432 -3.1766
   12DOPE    HB 1437   6.897  -0.214  13.661 -4.4254 -0.3919 -3.7733
   12DOPE    C2 1438   6.970  -0.252  13.466  0.2652  0.0378  0.4735
   12DOPE    HS 1439   7.037  -0.336  13.497 -0.4866 -1.0146 -0.6515
   12DOPE   O21 1440   7.004  -0.177  13.348  0.2564 -0.1374 -0.0462
   12DOPE   C21 1441   7.133  -0.167  13.329 -0.1086 -0.2925 -0.1296
   12DOPE   O22 1442   7.217  -0.218  13.404  0.2865  0.5459 -0.2121
   12DOPE   C22 1443   7.167  -0.095  13.197  0.4118  0.3725 -0.3486
   12DOPE   H2R 1444   7.272  -0.066  13.223  1.1174 -2.7727  0.7224
   12DOPE   H2S 1445   7.091  -0.015  13.188  2.0101  1.8775 -1.3457
   12DOPE    C3 1446   6.834  -0.309  13.439  0.3172 -0.6170  0.3804
   12DOPE    HX 1447   6.760  -0.227  13.450 -0.4730 -1.1514 -0.7385
   12DOPE    HY 1448   6.806  -0.391  13.508  0.5691 -1.5298 -0.5727
   12DOPE   O31 1449   6.833  -0.360  13.303 -0.0155  0.0794  0.5154
   12DOPE   C31 1450   6.708  -0.362  13.253  0.4260  0.3605 -0.7137
   12DOPE   O32 1451   6.610  -0.314  13.308  0.5027 -0.1501 -0.2368
   12DOPE   C32 1452   6.711  -0.426  13.117  0.3699  0.1717  0.5150
   12DOPE   H2X 1453   6.815  -0.447  13.085 -0.3309 -0.1984 -1.6714
   12DOPE   H2Y 1454   6.652  -0.517  13.142  2.1399 -0.3326  3.2190
   12DOPE   C23 1455   7.142  -0.195  13.071  0.1307  0.4555 -0.3571
   12DOPE   H3R 1456   7.041  -0.239  13.085 -0.2263  0.8086 -1.6475
   12DOPE   H3S 1457   7.225  -0.268  13.063  1.0894  1.6942 -3.4457
   12DOPE   C24 1458   7.145  -0.109  12.944 -0.6288  0.3112  0.4271
   12DOPE   H4R 1459   7.248  -0.070  12.929 -0.6913  0.2844 -0.0910
   12DOPE   H4S 1460   7.069  -0.028  12.952 -0.9405  0.0791 -0.1557
   12DOPE   C25 1461   7.107  -0.194  12.823  0.0077 -0.3883 -0.3224
   12DOPE   H5R 1462   6.997  -0.212  12.828 -0.0272 -0.4690 -1.2181
   12DOPE   H5S 1463   7.171  -0.285  12.830 -1.0265 -1.0893  0.4018
   12DOPE   C26 1464   7.137  -0.130  12.683  0.6987 -1.1773 -0.7710
   12DOPE   H6R 1465   7.246  -0.125  12.658  1.1058  1.4083  1.0745
   12DOPE   H6S 1466   7.109  -0.023  12.693  0.5302 -1.2737 -0.1892
   12DOPE   C27 1467   7.053  -0.193  12.576  0.1838  0.7101  0.5543
   12DOPE   H7R 1468   6.946  -0.189  12.604 -0.5040 -1.6225 -1.3711
   12DOPE   H7S 1469   7.085  -0.300  12.574  1.8747  1.1723  0.9748
   12DOPE   C28 1470   7.065  -0.126  12.441 -0.6648 -0.6520 -0.2486
   12DOPE   H8R 1471   7.174  -0.117  12.423 -0.6149 -1.1319 -0.1896
   12DOPE   H8S 1472   7.033  -0.019  12.440  3.4823  0.8373 -3.5940
   12DOPE   C29 1473   7.019  -0.205  12.321 -0.1580 -0.3209 -0.2064
   12DOPE   H9R 1474   6.956  -0.293  12.343 -0.6216 -0.0389 -0.3760
   12DOPE  C210 1475   7.050  -0.179  12.195 -0.1927 -0.0365 -0.3654
   12DOPE  H10R 1476   7.006  -0.247  12.120 -0.7651 -0.3000  0.1937
   12DOPE  C211 1477   7.123  -0.064  12.132 -0.3527 -0.2547 -0.2926
   12DOPE  H11R 1478   7.211  -0.056  12.200 -0.6036  1.0367 -0.1047
   12DOPE  H11S 1479   7.071   0.032  12.152 -1.2955 -1.0143  1.0604
   12DOPE  C212 1480   7.168  -0.068  11.985  0.3786 -0.2642 -0.3109
   12DOPE  H12R 1481   7.234  -0.156  11.967  0.1016 -0.7245  0.8303
   12DOPE  H12S 1482   7.238   0.016  11.964 -0.1238  0.3808  0.5556
   12DOPE  C213 1483   7.053  -0.063  11.885 -0.6721  0.1037 -0.3635
   12DOPE  H13R 1484   7.002   0.035  11.898 -0.5659 -0.0365  1.3876
   12DOPE  H13S 1485   6.979  -0.142  11.909  1.2725 -1.9107 -0.5900
   12DOPE  C214 1486   7.107  -0.050  11.747 -0.2003  0.1119  0.0361
   12DOPE  H14R 1487   7.171  -0.140  11.732  0.6131  0.4744  1.1731
   12DOPE  H14S 1488   7.177   0.036  11.753  0.0690 -0.1208  0.3055
   12DOPE  C215 1489   7.009  -0.029  11.633 -0.3019  0.1520  0.1584
   12DOPE  H15R 1490   7.064  -0.005  11.540 -1.4757 -0.9674 -0.8723
   12DOPE  H15S 1491   6.938   0.054  11.651 -1.5762 -0.7936 -0.3282
   12DOPE  C216 1492   6.937  -0.151  11.588 -0.0908 -0.3732 -0.2235
   12DOPE  H16R 1493   6.875  -0.190  11.671 -0.9590 -1.7043 -1.4559
   12DOPE  H16S 1494   7.004  -0.228  11.544 -1.5736 -0.6420 -2.1321
   12DOPE  C217 1495   6.842  -0.106  11.479 -0.0637 -0.6106  1.1851
   12DOPE  H17R 1496   6.782  -0.015  11.503 -0.3049 -0.3257 -0.4066
   12DOPE  H17S 1497   6.771  -0.191  11.476 -0.9493  0.1184  0.5358
   12DOPE  C218 1498   6.896  -0.103  11.331  0.7234  0.5689 -0.1914
   12DOPE  H18R 1499   6.900  -0.203  11.284  1.0079 -0.6389  2.2515
   12DOPE  H18S 1500   7.001  -0.066  11.334  0.4466  1.5304 -1.3689
   12DOPE  H18T 1501   6.827  -0.046  11.266 -2.3417 -0.2225  2.1286
   12DOPE   C33 1502   6.640  -0.336  13.006  0.1598  0.1688 -0.2289
   12DOPE   H3X 1503   6.713  -0.255  12.982  0.9027 -1.0014 -2.2354
   12DOPE   H3Y 1504   6.541  -0.300  13.039 -0.8882 -2.9346  0.3694
   12DOPE   C34 1505   6.616  -0.425  12.880 -0.2944 -0.9112  0.1796
   12DOPE   H4X 1506   6.581  -0.526  12.912  1.1525 -1.3588  0.4278
   12DOPE   H4Y 1507   6.537  -0.373  12.821  0.7951  1.1874  0.4782
   12DOPE   C35 1508   6.737  -0.437  12.786  0.2752  0.7352  0.5843
   12DOPE   H5X 1509   6.823  -0.484  12.838  2.6671  1.6958 -2.2288
   12DOPE   H5Y 1510   6.768  -0.332  12.764  0.0758  0.5283 -0.7454
   12DOPE   C36 1511   6.705  -0.520  12.656  0.1010  0.3608 -0.6873
   12DOPE   H6X 1512   6.645  -0.607  12.691  0.1740  1.0982  1.4041
   12DOPE   H6Y 1513   6.806  -0.552  12.620  1.5856  0.9314  2.5563
   12DOPE   C37 1514   6.617  -0.459  12.547 -0.4838 -0.2745  0.2929
   12DOPE   H7X 1515   6.516  -0.443  12.591 -1.0451 -1.7654 -0.3726
   12DOPE   H7Y 1516   6.662  -0.365  12.510 -1.0836  0.5622  1.6017
   12DOPE   C38 1517   6.589  -0.560  12.442 -0.5473  0.2810 -0.7281
   12DOPE   H8X 1518   6.515  -0.530  12.365 -2.4306  0.6621  1.1316
   12DOPE   H8Y 1519   6.541  -0.649  12.488 -0.2204 -0.1514 -1.2044
   12DOPE   C39 1520   6.711  -0.590  12.355  0.4496  0.8514 -0.7844
   12DOPE   H9X 1521   6.781  -0.661  12.403 -1.5499  0.2574  1.4372
   12DOPE  C310 1522   6.737  -0.542  12.229  0.0230  0.5326  0.2499
   12DOPE  H10X 1523   6.837  -0.560  12.187 -0.8153 -0.6500 -1.3744
   12DOPE  C311 1524   6.660  -0.445  12.139 -0.0908  0.4980  0.2109
   12DOPE  H11X 1525   6.554  -0.439  12.171 -0.1499 -0.4595  0.2267
   12DOPE  H11Y 1526   6.701  -0.342  12.149  0.8457 -0.0553  3.2304
   12DOPE  C312 1527   6.654  -0.474  11.986  0.1398 -0.3696  0.4748
   12DOPE  H12X 1528   6.581  -0.401  11.945 -0.2389 -1.2252 -0.4217
   12DOPE  H12Y 1529   6.620  -0.577  11.962  2.3665 -0.8178 -1.0525
   12DOPE  C313 1530   6.786  -0.457  11.915 -0.3385 -0.6295  1.0138
   12DOPE  H13X 1531   6.838  -0.364  11.946  1.9999 -1.1458 -1.0135
   12DOPE  H13Y 1532   6.851  -0.539  11.953  0.9549  0.9711  2.3689
   12DOPE  C314 1533   6.781  -0.444  11.767 -0.3124  0.3863  0.7640
   12DOPE  H14X 1534   6.884  -0.474  11.737 -0.9992 -1.0826 -0.2681
   12DOPE  H14Y 1535   6.755  -0.337  11.752 -1.7718  0.1802  1.6197
   12DOPE  C315 1536   6.682  -0.535  11.701 -0.2421  0.4705  0.4354
   12DOPE  H15X 1537   6.581  -0.493  11.720  1.0122  3.5170  0.9506
   12DOPE  H15Y 1538   6.682  -0.639  11.740  1.6553 -0.8618 -2.7364
   12DOPE  C316 1539   6.700  -0.537  11.551 -0.2559 -0.3412 -0.0090
   12DOPE  H16X 1540   6.788  -0.600  11.525 -0.1057  1.4079 -4.8448
   12DOPE  H16Y 1541   6.725  -0.435  11.512 -0.3386 -0.3090  0.0223
   12DOPE  C317 1542   6.586  -0.608  11.481 -0.5305 -0.1646 -0.0467
   12DOPE  H17X 1543   6.593  -0.715  11.510  1.3645 -0.3422 -1.0368
   12DOPE  H17Y 1544   6.495  -0.557  11.518  0.5887  0.9153  1.3060
   12DOPE  C318 1545   6.604  -0.604  11.334  0.3563 -0.2770 -0.2251
   12DOPE  H18X 1546   6.701  -0.650  11.308  0.7510 -0.3017  1.2109
   12DOPE  H18Y 1547   6.521  -0.663  11.290 -1.5362  0.7406  1.7208
   12DOPE  H18Z 1548   6.606  -0.502  11.290 -1.9939 -1.7599 -4.2547
   13DOPE     N 1549   5.115   1.133  13.176 -0.0288  0.2763  0.6085
   13DOPE   HN1 1550   5.098   1.032  13.163  0.9710  0.0491  0.9603
   13DOPE   HN2 1551   5.019   1.169  13.193 -0.5341 -1.7195  2.4468
   13DOPE   HN3 1552   5.146   1.170  13.084 -2.1892  0.2702 -0.1847
   13DOPE   C12 1553   5.219   1.137  13.286  0.1382 -0.6356 -0.5620
   13DOPE  H12A 1554   5.302   1.069  13.260  0.4352 -0.0307 -1.2465
   13DOPE  H12B 1555   5.173   1.103  13.381  1.9785  2.0526  1.4503
   13DOPE   C11 1556   5.273   1.281  13.295  0.6953  0.3000 -0.1818
   13DOPE  H11A 1557   5.323   1.306  13.200  0.3780  1.2520 -0.1111
   13DOPE  H11B 1558   5.345   1.287  13.380 -0.9498  0.1338  1.2906
   13DOPE     P 1559   5.172   1.505  13.400  0.4822 -0.4444 -0.0928
   13DOPE   O13 1560   5.304   1.522  13.458 -0.7687  0.0208  0.3459
   13DOPE   O14 1561   5.059   1.508  13.494 -0.7104 -0.2706  0.2006
   13DOPE   O11 1562   5.143   1.625  13.302  0.1759 -0.6431  0.4460
   13DOPE   O12 1563   5.166   1.377  13.314 -0.3718  0.1747  0.0590
   13DOPE    C1 1564   5.192   1.623  13.167  0.9400 -0.4888 -0.5559
   13DOPE    HA 1565   5.283   1.561  13.152  0.7311 -0.4510 -2.1378
   13DOPE    HB 1566   5.214   1.727  13.136  0.9928 -0.7525 -1.4587
   13DOPE    C2 1567   5.086   1.575  13.064  0.7577  0.0540 -0.1160
   13DOPE    HS 1568   5.043   1.482  13.107 -0.8384  0.7967 -0.0640
   13DOPE   O21 1569   5.156   1.558  12.943  0.2408 -0.7005 -0.2247
   13DOPE   C21 1570   5.089   1.489  12.848  0.3350 -0.5953  0.3488
   13DOPE   O22 1571   4.977   1.446  12.867  0.0669 -0.0147  0.1337
   13DOPE   C22 1572   5.165   1.495  12.716  0.1958  1.5881  0.6723
   13DOPE   H2R 1573   5.270   1.461  12.725  0.5545  2.0233 -1.4191
   13DOPE   H2S 1574   5.168   1.600  12.681  2.1206  1.8999  1.6698
   13DOPE    C3 1575   4.967   1.674  13.050  0.4824  0.1919 -0.4513
   13DOPE    HX 1576   4.899   1.673  13.137  0.6758 -0.2777 -0.3021
   13DOPE    HY 1577   4.902   1.629  12.972  0.0555  0.0268  0.0018
   13DOPE   O31 1578   5.018   1.809  13.028  0.0378  0.0059  0.1111
   13DOPE   C31 1579   5.029   1.837  12.895 -0.1205 -0.4086  0.3083
   13DOPE   O32 1580   4.996   1.774  12.797 -0.1458  0.1437  0.6091
   13DOPE   C32 1581   5.093   1.975  12.891  0.0448 -0.7714  0.2377
   13DOPE   H2X 1582   5.077   2.041  12.978  2.0015 -2.6861  2.1781
   13DOPE   H2Y 1583   5.200   1.944  12.891  0.0775 -0.8442 -2.1639
   13DOPE   C23 1584   5.098   1.410  12.603  0.1098 -0.6522  0.1725
   13DOPE   H3R 1585   4.987   1.418  12.601  0.0511 -1.4953 -0.5975
   13DOPE   H3S 1586   5.119   1.301  12.614  2.3298 -0.2589  0.3116
   13DOPE   C24 1587   5.140   1.457  12.463  0.2624  0.1740  0.1726
   13DOPE   H4R 1588   5.250   1.453  12.453  0.1575 -0.3922 -0.8801
   13DOPE   H4S 1589   5.106   1.562  12.450 -2.9977 -1.0073 -1.9973
   13DOPE   C25 1590   5.081   1.369  12.354 -0.2567  0.0853  0.3840
   13DOPE   H5R 1591   4.971   1.357  12.366 -0.5597  2.0997 -0.0402
   13DOPE   H5S 1592   5.135   1.272  12.354  0.6264  0.5297 -1.6584
   13DOPE   C26 1593   5.110   1.440  12.217  0.7088 -0.1002  0.4836
   13DOPE   H6R 1594   5.221   1.447  12.207  0.8348 -1.6893  0.5775
   13DOPE   H6S 1595   5.077   1.546  12.230  0.5440  0.2853 -2.3356
   13DOPE   C27 1596   5.038   1.367  12.102 -0.4959 -0.6749 -0.0445
   13DOPE   H7R 1597   4.929   1.360  12.122 -0.3911  1.7299  1.8746
   13DOPE   H7S 1598   5.076   1.264  12.087 -1.5344 -1.2783  1.2675
   13DOPE   C28 1599   5.052   1.451  11.967  0.0098 -0.1820  0.3378
   13DOPE   H8R 1600   5.160   1.479  11.961  0.2137 -0.8705  0.6204
   13DOPE   H8S 1601   5.007   1.545  12.003 -0.0474 -0.3690  0.7624
   13DOPE   C29 1602   4.990   1.390  11.847 -0.2577 -0.2600  0.0049
   13DOPE   H9R 1603   4.880   1.398  11.849 -0.2618 -0.3042 -0.0400
   13DOPE  C210 1604   5.059   1.337  11.743  0.2905 -0.1258  0.1299
   13DOPE  H10R 1605   5.009   1.317  11.647  1.7444 -1.5190 -0.3805
   13DOPE  C211 1606   5.216   1.319  11.742  0.1012  0.7310  0.2513
   13DOPE  H11R 1607   5.239   1.234  11.675 -0.0231  3.2786 -3.3058
   13DOPE  H11S 1608   5.257   1.308  11.844 -2.6361  0.5736  1.4445
   13DOPE  C212 1609   5.285   1.431  11.662  0.1358  0.3803 -0.1188
   13DOPE  H12R 1610   5.393   1.421  11.686 -0.1662  0.6931  1.4993
   13DOPE  H12S 1611   5.249   1.529  11.699  0.2008  0.2689  0.2449
   13DOPE  C213 1612   5.264   1.415  11.510  0.0940 -0.0250  0.0923
   13DOPE  H13R 1613   5.156   1.435  11.490  0.2594  1.8717  0.8101
   13DOPE  H13S 1614   5.281   1.308  11.490 -0.3011  0.0320 -0.5740
   13DOPE  C214 1615   5.351   1.506  11.424  0.6110 -0.3701 -0.9023
   13DOPE  H14R 1616   5.351   1.468  11.319  2.0531 -2.9053 -0.0638
   13DOPE  H14S 1617   5.456   1.490  11.456  0.4889 -0.0376 -0.3273
   13DOPE  C215 1618   5.317   1.654  11.426  0.7774 -0.1426 -0.5726
   13DOPE  H15R 1619   5.404   1.708  11.383 -0.0492  0.7315 -1.1730
   13DOPE  H15S 1620   5.302   1.684  11.532  1.2416 -1.4987 -0.0990
   13DOPE  C216 1621   5.197   1.695  11.345 -0.0359 -0.1090 -0.5239
   13DOPE  H16R 1622   5.107   1.661  11.400 -1.3048  1.5348 -1.5108
   13DOPE  H16S 1623   5.187   1.651  11.244  1.2299  0.6018 -0.9827
   13DOPE  C217 1624   5.182   1.847  11.319  0.5465 -0.3938  0.0903
   13DOPE  H17R 1625   5.154   1.899  11.413 -0.7472  0.2284 -0.5932
   13DOPE  H17S 1626   5.089   1.867  11.261  0.8128 -0.4733 -0.3726
   13DOPE  C218 1627   5.298   1.909  11.248  0.5390 -0.0656  0.6485
   13DOPE  H18R 1628   5.387   1.914  11.314 -0.0649  1.1001  1.4043
   13DOPE  H18S 1629   5.277   2.016  11.225  0.8337 -0.6906 -3.3170
   13DOPE  H18T 1630   5.335   1.855  11.158  2.5383 -0.5195  1.6801
   13DOPE   C33 1631   5.042   2.047  12.766  0.3298 -0.8652 -0.6625
   13DOPE   H3X 1632   4.938   2.086  12.773  0.6881  0.2336 -1.1325
   13DOPE   H3Y 1633   5.066   1.987  12.676 -0.8731 -2.3343 -0.0385
   13DOPE   C34 1634   5.115   2.182  12.748 -0.0199 -0.3874  0.1784
   13DOPE   H4X 1635   5.111   2.230  12.848  0.5214 -1.4995  0.7517
   13DOPE   H4Y 1636   5.222   2.160  12.729  0.4467  0.5533  1.5211
   13DOPE   C35 1637   5.043   2.272  12.645 -0.5912  0.5629  0.0883
   13DOPE   H5X 1638   5.072   2.379  12.656  1.1346  0.6225 -3.5435
   13DOPE   H5Y 1639   4.935   2.250  12.660 -0.1200 -1.3912  0.9220
   13DOPE   C36 1640   5.079   2.223  12.501  0.2163  0.0099  0.2643
   13DOPE   H6X 1641   5.069   2.112  12.504  2.9492 -0.3571  4.2133
   13DOPE   H6Y 1642   5.188   2.234  12.481 -0.3543  1.2636 -2.4777
   13DOPE   C37 1643   5.003   2.295  12.393 -0.1133  0.3529 -0.6111
   13DOPE   H7X 1644   4.897   2.276  12.419  0.0745 -1.6827 -1.1550
   13DOPE   H7Y 1645   5.027   2.403  12.403  0.6921  0.2357 -1.1494
   13DOPE   C38 1646   5.031   2.240  12.249 -0.0274 -0.0225  0.2402
   13DOPE   H8X 1647   4.958   2.288  12.180  1.5110  0.9549 -0.7618
   13DOPE   H8Y 1648   5.022   2.129  12.255 -1.0890 -0.0220 -0.9219
   13DOPE   C39 1649   5.168   2.283  12.198  0.1720 -0.4418 -0.7982
   13DOPE   H9X 1650   5.255   2.224  12.230  0.3717 -1.0632 -2.3484
   13DOPE  C310 1651   5.192   2.377  12.109  0.2594  0.4543 -0.4002
   13DOPE  H10X 1652   5.291   2.414  12.080  0.2170  1.3130  0.4950
   13DOPE  C311 1653   5.086   2.474  12.056  0.2520 -0.0322  0.0128
   13DOPE  H11X 1654   5.022   2.500  12.143  1.9290  0.5236  1.1299
   13DOPE  H11Y 1655   5.131   2.575  12.040 -2.2905  1.5313  1.8744
   13DOPE  C312 1656   4.995   2.425  11.937  0.7646  0.6077 -0.5587
   13DOPE  H12X 1657   4.912   2.499  11.934 -1.1511 -1.4210 -0.2938
   13DOPE  H12Y 1658   4.932   2.338  11.966 -0.8739  1.2739 -1.9536
   13DOPE  C313 1659   5.071   2.400  11.803 -0.2448 -0.4437  0.9405
   13DOPE  H13X 1660   5.143   2.481  11.781 -1.4494  0.6917  1.0483
   13DOPE  H13Y 1661   5.131   2.308  11.822  0.7752 -0.7718 -3.0515
   13DOPE  C314 1662   4.967   2.384  11.690  0.2733  0.3409 -0.1513
   13DOPE  H14X 1663   4.927   2.482  11.655 -1.3986  0.3534  1.6096
   13DOPE  H14Y 1664   4.881   2.326  11.730  1.9276 -0.7855  2.0224
   13DOPE  C315 1665   5.008   2.320  11.561 -0.3652 -0.0443 -0.0976
   13DOPE  H15X 1666   5.033   2.216  11.589 -0.0682 -0.8906 -3.1263
   13DOPE  H15Y 1667   5.096   2.362  11.509 -0.9757  1.1769 -0.1832
   13DOPE  C316 1668   4.895   2.308  11.459  0.4610 -0.0698 -0.7456
   13DOPE  H16X 1669   4.884   2.411  11.419 -0.7881  0.3921  0.6798
   13DOPE  H16Y 1670   4.803   2.273  11.512  0.9060 -0.8182 -0.4541
   13DOPE  C317 1671   4.922   2.204  11.355  0.2644 -0.2401  0.3188
   13DOPE  H17X 1672   5.018   2.237  11.311  0.6658  1.5035  2.3252
   13DOPE  H17Y 1673   4.943   2.103  11.394 -0.4398 -0.4453  0.1919
   13DOPE  C318 1674   4.816   2.206  11.251 -0.1748 -0.4022  0.3205
   13DOPE  H18X 1675   4.814   2.294  11.182  1.3320 -1.4373 -1.1260
   13DOPE  H18Y 1676   4.843   2.127  11.178 -0.1071  1.5656 -1.9054
   13DOPE  H18Z 1677   4.712   2.192  11.287 -0.6856  0.4775 -0.7451
   14DOPE     N 1678   1.295   5.609  13.774 -0.4865  0.1167 -0.2339
   14DOPE   HN1 1679   1.260   5.674  13.847  1.7758 -1.5578  2.6299
   14DOPE   HN2 1680   1.238   5.522  13.775  2.1723 -1.7876  0.7021
   14DOPE   HN3 1681   1.391   5.581  13.805 -1.0912 -1.4827  0.2803
   14DOPE   C12 1682   1.302   5.688  13.647 -0.1171 -0.8645  0.0668
   14DOPE  H12A 1683   1.201   5.732  13.633 -0.6654 -1.9038  0.6480
   14DOPE  H12B 1684   1.325   5.624  13.559 -1.7013  1.7846 -2.4943
   14DOPE   C11 1685   1.411   5.796  13.665  0.4593 -0.4040  0.0845
   14DOPE  H11A 1686   1.382   5.896  13.705  0.9103  1.1909 -3.2771
   14DOPE  H11B 1687   1.439   5.821  13.561 -0.0150 -0.0885  0.0276
   14DOPE     P 1688   1.655   5.828  13.743  0.2991 -0.0435  0.3875
   14DOPE   O13 1689   1.696   5.831  13.886 -0.1362  0.2386 -0.3585
   14DOPE   O14 1690   1.644   5.965  13.681  0.1190  0.0128  0.3317
   14DOPE   O11 1691   1.758   5.759  13.646  0.5132  0.0947 -0.6929
   14DOPE   O12 1692   1.527   5.739  13.721 -0.4684 -0.2201  0.1601
   14DOPE    C1 1693   1.785   5.619  13.624  0.0379  0.2012 -0.2920
   14DOPE    HA 1694   1.735   5.555  13.700  0.5623 -1.0377 -0.9600
   14DOPE    HB 1695   1.893   5.607  13.647 -0.0995 -2.3922 -0.7330
   14DOPE    C2 1696   1.763   5.574  13.479 -0.0998  0.1530  0.1723
   14DOPE    HS 1697   1.801   5.470  13.478 -0.5942 -0.0301  0.3404
   14DOPE   O21 1698   1.844   5.658  13.393 -0.2753 -0.4779  0.4763
   14DOPE   C21 1699   1.936   5.604  13.326  0.8011 -0.2661  0.1592
   14DOPE   O22 1700   1.974   5.487  13.335  0.0059 -0.0000 -0.7808
   14DOPE   C22 1701   1.987   5.708  13.218 -0.1450 -0.1913  0.0517
   14DOPE   H2R 1702   2.096   5.727  13.230 -0.7064  3.6215  0.2919
   14DOPE   H2S 1703   1.941   5.806  13.242  0.7802  0.7391 -1.7015
   14DOPE    C3 1704   1.618   5.561  13.431  0.6241 -0.6186  0.5459
   14DOPE    HX 1705   1.577   5.664  13.427 -0.1022 -0.8935  0.7957
   14DOPE    HY 1706   1.559   5.512  13.512 -1.0412  0.3768 -0.0155
   14DOPE   O31 1707   1.603   5.486  13.309 -0.4115  0.3239  0.2359
   14DOPE   C31 1708   1.584   5.553  13.199  0.4907 -0.2794 -0.3277
   14DOPE   O32 1709   1.558   5.674  13.191  0.1705  0.4058 -0.2498
   14DOPE   C32 1710   1.595   5.466  13.078 -0.1050  0.6391 -0.2075
   14DOPE   H2X 1711   1.700   5.432  13.069 -0.7665 -1.9041  0.7317
   14DOPE   H2Y 1712   1.544   5.367  13.079  3.7395 -1.5272  0.9774
   14DOPE   C23 1713   1.957   5.669  13.070 -0.4457 -0.7328 -0.1708
   14DOPE   H3R 1714   1.941   5.754  13.000 -0.6791  0.3419  1.1606
   14DOPE   H3S 1715   1.856   5.623  13.070 -1.4123  1.3042 -0.1222
   14DOPE   C24 1716   2.056   5.568  13.019 -0.0385  0.3157 -0.5138
   14DOPE   H4R 1717   2.079   5.484  13.088 -2.2346  0.0936  0.0171
   14DOPE   H4S 1718   2.149   5.626  13.003  1.5222 -0.9998  2.8296
   14DOPE   C25 1719   1.994   5.487  12.905 -0.2431  0.0904 -0.6573
   14DOPE   H5R 1720   1.956   5.565  12.835 -1.8093 -1.5167 -1.6498
   14DOPE   H5S 1721   1.900   5.444  12.945  0.2047 -0.1894  0.1231
   14DOPE   C26 1722   2.092   5.381  12.861 -0.4447 -0.0601  0.4484
   14DOPE   H6R 1723   2.136   5.314  12.937  1.0408  2.3170  1.7905
   14DOPE   H6S 1724   2.176   5.427  12.804  1.0755 -1.6048  1.3321
   14DOPE   C27 1725   2.019   5.304  12.742  0.1962 -0.7126  0.9031
   14DOPE   H7R 1726   1.931   5.250  12.781 -1.5110 -0.9301 -2.7955
   14DOPE   H7S 1727   2.102   5.237  12.710 -0.4880 -0.4222 -1.7667
   14DOPE   C28 1728   1.987   5.390  12.617 -0.3236 -0.8010  0.0384
   14DOPE   H8R 1729   2.080   5.411  12.561 -1.9106  1.4286 -1.9670
   14DOPE   H8S 1730   1.942   5.490  12.633  1.0314 -0.3684  1.2972
   14DOPE   C29 1731   1.895   5.305  12.526 -0.3844  0.1475  0.2187
   14DOPE   H9R 1732   1.815   5.246  12.573  1.4397 -2.5966  0.0550
   14DOPE  C210 1733   1.910   5.276  12.399 -0.0412 -0.3798 -0.5703
   14DOPE  H10R 1734   1.839   5.208  12.349 -0.2254  0.0237 -0.8593
   14DOPE  C211 1735   2.014   5.322  12.303  0.1118 -0.1802 -0.0377
   14DOPE  H11R 1736   2.095   5.248  12.284 -1.9960 -2.2030 -1.7972
   14DOPE  H11S 1737   2.059   5.412  12.351  0.3730 -0.5674  0.4545
   14DOPE  C212 1738   1.960   5.368  12.166  0.0802  0.5168 -0.7014
   14DOPE  H12R 1739   2.039   5.422  12.109  0.6862 -1.7196 -2.0762
   14DOPE  H12S 1740   1.872   5.436  12.172  1.4898  2.4579 -0.8627
   14DOPE  C213 1741   1.910   5.247  12.079 -0.4438 -0.8898  0.1150
   14DOPE  H13R 1742   1.821   5.197  12.122 -1.7073  1.0564 -0.1145
   14DOPE  H13S 1743   1.987   5.168  12.088 -1.2457 -1.9135 -1.5489
   14DOPE  C214 1744   1.870   5.292  11.936  0.2075  0.2759 -0.1054
   14DOPE  H14R 1745   1.966   5.322  11.888  0.9133 -0.9947  0.4767
   14DOPE  H14S 1746   1.803   5.381  11.944  1.0193  0.9469 -0.5689
   14DOPE  C215 1747   1.789   5.195  11.857 -0.5610  0.4826 -0.0007
   14DOPE  H15R 1748   1.776   5.245  11.759 -0.4462 -0.9544 -0.7664
   14DOPE  H15S 1749   1.693   5.184  11.913 -0.7238 -0.5432 -0.4639
   14DOPE  C216 1750   1.852   5.059  11.835  0.1369 -1.0202 -0.8874
   14DOPE  H16R 1751   1.896   5.017  11.928 -0.4661 -1.9836 -1.0248
   14DOPE  H16S 1752   1.940   5.067  11.767  0.5399  0.2209 -0.2434
   14DOPE  C217 1753   1.768   4.954  11.753 -0.3595  0.1163 -0.6348
   14DOPE  H17R 1754   1.675   4.929  11.808  0.0032  1.8298  0.8311
   14DOPE  H17S 1755   1.836   4.869  11.730 -0.4689  0.3733 -2.0353
   14DOPE  C218 1756   1.724   5.014  11.619  0.6934  0.3447 -0.3544
   14DOPE  H18R 1757   1.718   4.935  11.542  0.6091  1.0197 -1.0531
   14DOPE  H18S 1758   1.785   5.101  11.584 -0.2568  0.8979 -0.6740
   14DOPE  H18T 1759   1.621   5.054  11.629 -0.2227 -1.8418 -0.6304
   14DOPE   C33 1760   1.566   5.542  12.958  1.1777  0.0853 -0.0063
   14DOPE   H3X 1761   1.637   5.620  12.925 -1.1923  1.4906 -2.1310
   14DOPE   H3Y 1762   1.464   5.582  12.977  0.9254 -0.0370 -1.0251
   14DOPE   C34 1763   1.566   5.452  12.829  0.1758 -0.6036 -0.2056
   14DOPE   H4X 1764   1.670   5.428  12.797  1.3146 -0.5247  3.0324
   14DOPE   H4Y 1765   1.507   5.359  12.843 -1.3138 -0.0461 -2.2744
   14DOPE   C35 1766   1.499   5.529  12.713 -0.2737 -0.0825  0.3146
   14DOPE   H5X 1767   1.560   5.621  12.703  0.6021 -0.5253  1.4196
   14DOPE   H5Y 1768   1.400   5.568  12.747  0.8729  1.5781  1.9057
   14DOPE   C36 1769   1.478   5.457  12.583 -0.0868  0.4454  0.3886
   14DOPE   H6X 1770   1.405   5.374  12.594 -0.9168  0.5139 -3.1884
   14DOPE   H6Y 1771   1.575   5.407  12.561 -0.5559 -0.3965  0.1950
   14DOPE   C37 1772   1.420   5.542  12.467 -0.1670 -0.0987 -0.1842
   14DOPE   H7X 1773   1.316   5.563  12.499 -0.0181 -1.8175  1.5814
   14DOPE   H7Y 1774   1.473   5.639  12.450  0.7034 -0.9521 -3.1276
   14DOPE   C38 1775   1.397   5.459  12.342 -0.0140 -1.6770  0.6777
   14DOPE   H8X 1776   1.309   5.503  12.290 -0.6677 -0.3552  2.7740
   14DOPE   H8Y 1777   1.384   5.353  12.372  0.8456 -1.3021  2.5156
   14DOPE   C39 1778   1.525   5.466  12.263  0.1830  0.1349  0.2564
   14DOPE   H9X 1779   1.614   5.429  12.317 -0.2867 -1.5506 -0.0571
   14DOPE  C310 1780   1.540   5.476  12.135  1.0163  0.3487 -0.3052
   14DOPE  H10X 1781   1.641   5.467  12.092  0.5432 -0.9957 -1.1919
   14DOPE  C311 1782   1.429   5.468  12.038  0.1179 -0.4835 -0.0414
   14DOPE  H11X 1783   1.332   5.422  12.070 -0.7083  0.4045 -1.1852
   14DOPE  H11Y 1784   1.421   5.565  11.984 -1.6871 -0.5697  0.0045
   14DOPE  C312 1785   1.479   5.370  11.922  0.4205  0.2621  0.1193
   14DOPE  H12X 1786   1.484   5.263  11.951  1.9225 -0.3607 -2.2097
   14DOPE  H12Y 1787   1.582   5.400  11.894  0.5324  1.4859  1.6827
   14DOPE  C313 1788   1.377   5.378  11.806 -0.0738 -0.8184  0.2740
   14DOPE  H13X 1789   1.278   5.336  11.835 -0.4322 -0.9273 -1.0323
   14DOPE  H13Y 1790   1.359   5.478  11.760 -0.8587 -2.6771 -3.8538
   14DOPE  C314 1791   1.418   5.310  11.670  0.0056 -0.2909 -0.2802
   14DOPE  H14X 1792   1.465   5.210  11.682  0.8237 -0.1187 -1.8458
   14DOPE  H14Y 1793   1.482   5.383  11.616 -2.0134  1.7983 -0.0310
   14DOPE  C315 1794   1.298   5.283  11.573  0.1487  0.4119  0.3175
   14DOPE  H15X 1795   1.267   5.382  11.532  0.9891  0.1976 -0.8776
   14DOPE  H15Y 1796   1.214   5.230  11.623  0.2542 -1.2808 -1.2127
   14DOPE  C316 1797   1.338   5.203  11.448  0.3700  0.2914  0.6533
   14DOPE  H16X 1798   1.376   5.102  11.475 -0.5237 -0.2622 -0.1047
   14DOPE  H16Y 1799   1.425   5.254  11.402  0.0007  0.1565 -0.2068
   14DOPE  C317 1800   1.221   5.191  11.349 -0.3142  0.6162 -0.7996
   14DOPE  H17X 1801   1.152   5.124  11.404  0.8529  0.7877  0.9740
   14DOPE  H17Y 1802   1.162   5.283  11.333 -2.7829 -0.5224  1.0001
   14DOPE  C318 1803   1.274   5.138  11.213  0.5812 -0.0640  0.0957
   14DOPE  H18X 1804   1.323   5.040  11.229  0.9284 -0.0954 -1.0565
   14DOPE  H18Y 1805   1.185   5.127  11.147  1.5250  0.0407 -1.2305
   14DOPE  H18Z 1806   1.352   5.206  11.172  1.8414 -0.2349  2.0703
   15DOPE     N 1807   4.315   1.483  13.188 -0.0362  0.2166 -0.1995
   15DOPE   HN1 1808   4.353   1.544  13.263  2.4963  1.2739 -2.1551
   15DOPE   HN2 1809   4.284   1.386  13.207 -0.4691  0.3655 -0.1435
   15DOPE   HN3 1810   4.387   1.465  13.115 -0.1851  1.0321 -0.5574
   15DOPE   C12 1811   4.201   1.553  13.123 -0.0539 -0.5804  0.0851
   15DOPE  H12A 1812   4.173   1.486  13.038 -1.6066 -1.0260  0.9268
   15DOPE  H12B 1813   4.229   1.655  13.087 -2.2431  0.0617  0.0778
   15DOPE   C11 1814   4.078   1.544  13.209 -0.4888  0.1736 -0.4620
   15DOPE  H11A 1815   4.056   1.435  13.210 -0.7384  0.2162 -1.1566
   15DOPE  H11B 1816   3.984   1.572  13.158 -1.6884 -2.0473  0.4143
   15DOPE     P 1817   4.010   1.693  13.415  0.0170  0.4986 -0.2840
   15DOPE   O13 1818   4.043   1.692  13.560  0.5449  0.7673 -0.2229
   15DOPE   O14 1819   3.876   1.653  13.383  0.2402 -0.2922 -0.5275
   15DOPE   O11 1820   4.051   1.831  13.346 -0.0831 -0.0634 -0.0617
   15DOPE   O12 1821   4.103   1.599  13.343 -0.1697 -0.2146  0.0652
   15DOPE    C1 1822   4.190   1.871  13.353 -0.3823 -0.1474  0.3070
   15DOPE    HA 1823   4.251   1.801  13.293  0.4058 -0.7073  1.6979
   15DOPE    HB 1824   4.220   1.863  13.460 -0.6773 -2.0713  0.2655
   15DOPE    C2 1825   4.203   2.018  13.298 -0.3584  0.0326 -0.3297
   15DOPE    HS 1826   4.132   2.074  13.363 -0.9984 -0.9330 -0.1620
   15DOPE   O21 1827   4.173   2.009  13.155 -0.4267  0.0711  0.0769
   15DOPE   C21 1828   4.100   2.112  13.111  0.0076  0.0524 -0.2858
   15DOPE   O22 1829   4.025   2.177  13.184 -0.7337  0.1610  0.1492
   15DOPE   C22 1830   4.111   2.116  12.962 -0.1489 -0.4844 -0.1858
   15DOPE   H2R 1831   4.005   2.104  12.929 -0.1585 -1.0795  0.0484
   15DOPE   H2S 1832   4.176   2.032  12.927 -1.2253 -3.5147  4.2242
   15DOPE    C3 1833   4.342   2.074  13.322 -0.4434  0.0595 -0.3565
   15DOPE    HX 1834   4.419   2.024  13.260  1.6097  2.1834  0.3301
   15DOPE    HY 1835   4.377   2.060  13.427  0.0605 -0.2589 -0.5619
   15DOPE   O31 1836   4.348   2.211  13.281 -0.6968 -0.0319  0.2203
   15DOPE   C31 1837   4.363   2.311  13.367  0.1696 -0.5709  0.7308
   15DOPE   O32 1838   4.357   2.303  13.488  0.5528 -0.4073  0.5345
   15DOPE   C32 1839   4.383   2.441  13.288 -0.5787 -0.3307 -0.3816
   15DOPE   H2X 1840   4.456   2.509  13.337 -0.9800 -0.4454  0.3856
   15DOPE   H2Y 1841   4.438   2.416  13.194  1.7425 -0.6079  0.9616
   15DOPE   C23 1842   4.153   2.258  12.907 -0.8057  0.5088 -0.2619
   15DOPE   H3R 1843   4.257   2.266  12.944 -0.3452  1.4749 -1.6771
   15DOPE   H3S 1844   4.098   2.344  12.951  0.2771  1.0911 -0.0232
   15DOPE   C24 1845   4.140   2.260  12.756 -0.3814  0.2739 -0.4541
   15DOPE   H4R 1846   4.209   2.335  12.711 -0.6067 -0.3933 -1.9790
   15DOPE   H4S 1847   4.033   2.280  12.737 -0.5883 -1.5269 -1.4888
   15DOPE   C25 1848   4.172   2.129  12.685  1.1583 -0.0235  0.3489
   15DOPE   H5R 1849   4.095   2.056  12.720  0.3877  0.3634 -0.5325
   15DOPE   H5S 1850   4.276   2.096  12.708  0.9540 -3.5890 -2.8537
   15DOPE   C26 1851   4.147   2.136  12.531 -0.1944  0.5114 -0.2373
   15DOPE   H6R 1852   4.209   2.220  12.493  0.0000  0.1634 -0.6795
   15DOPE   H6S 1853   4.040   2.157  12.509 -0.4996  0.9889  1.5522
   15DOPE   C27 1854   4.188   2.017  12.451 -1.0563  0.7402 -0.2774
   15DOPE   H7R 1855   4.155   1.920  12.493  1.2721 -0.5306 -1.1915
   15DOPE   H7S 1856   4.297   2.010  12.469 -1.1552  0.5163  0.2303
   15DOPE   C28 1857   4.174   2.030  12.294 -1.1101  0.2738  0.0228
   15DOPE   H8R 1858   4.065   2.019  12.276 -0.9510  0.9845 -1.4712
   15DOPE   H8S 1859   4.215   1.940  12.244 -0.1332  0.4375  0.5009
   15DOPE   C29 1860   4.225   2.160  12.227 -0.3885 -0.1052 -0.0568
   15DOPE   H9R 1861   4.213   2.249  12.291 -0.4976 -0.9874  1.1729
   15DOPE  C210 1862   4.277   2.177  12.101  0.0823  0.7423  0.1272
   15DOPE  H10R 1863   4.308   2.277  12.068  1.6777  0.8548  1.7681
   15DOPE  C211 1864   4.301   2.061  12.007 -0.3601  0.1697 -0.3540
   15DOPE  H11R 1865   4.313   1.961  12.054  0.7203 -0.3091 -1.5991
   15DOPE  H11S 1866   4.401   2.081  11.962  1.3469  0.6487  3.2395
   15DOPE  C212 1867   4.179   2.051  11.912  0.2051 -0.1152 -0.0954
   15DOPE  H12R 1868   4.189   2.135  11.840  1.3378 -0.8634 -0.8426
   15DOPE  H12S 1869   4.082   2.061  11.965 -0.2501 -0.9765 -0.7418
   15DOPE  C213 1870   4.178   1.930  11.822  0.1902  0.1567 -0.0994
   15DOPE  H13R 1871   4.176   1.830  11.873  1.4255 -1.3416 -2.7901
   15DOPE  H13S 1872   4.265   1.929  11.754 -0.6323 -0.2178 -1.1760
   15DOPE  C214 1873   4.061   1.940  11.724  0.2733  0.0009 -0.0476
   15DOPE  H14R 1874   4.072   2.040  11.677 -0.7653 -0.3506 -1.1053
   15DOPE  H14S 1875   3.965   1.946  11.780  0.1444  1.3197 -0.3815
   15DOPE  C215 1876   4.054   1.851  11.597  0.5785 -0.5940 -0.3113
   15DOPE  H15R 1877   4.021   1.753  11.637 -0.4019 -0.3599 -0.5002
   15DOPE  H15S 1878   4.153   1.828  11.553  0.4300 -2.4587  0.2491
   15DOPE  C216 1879   3.952   1.896  11.494  0.5284 -0.3652 -0.2015
   15DOPE  H16R 1880   3.985   1.980  11.429 -0.2834  0.2306  0.1415
   15DOPE  H16S 1881   3.871   1.933  11.560 -1.0000 -3.0601 -0.4323
   15DOPE  C217 1882   3.900   1.798  11.392  0.4828 -0.1818  0.5448
   15DOPE  H17R 1883   3.797   1.832  11.369  1.1906  0.1885 -2.6631
   15DOPE  H17S 1884   3.876   1.692  11.415 -1.4499 -1.2126 -4.8055
   15DOPE  C218 1885   3.977   1.805  11.263  0.3149 -0.3278 -0.2801
   15DOPE  H18R 1886   3.912   1.755  11.188  1.0516 -1.0070 -0.4664
   15DOPE  H18S 1887   4.077   1.758  11.275 -0.5174 -1.7881  1.4848
   15DOPE  H18T 1888   3.996   1.910  11.231  0.2610 -0.2068  0.0757
   15DOPE   C33 1889   4.257   2.512  13.254  1.0009  0.4449 -0.3778
   15DOPE   H3X 1890   4.193   2.526  13.344  1.4813  0.6985 -0.0715
   15DOPE   H3Y 1891   4.197   2.446  13.188 -1.0244  0.0135  1.7577
   15DOPE   C34 1892   4.281   2.646  13.194 -0.1560 -0.0549  0.0498
   15DOPE   H4X 1893   4.188   2.706  13.207  0.8621  1.5159  0.3414
   15DOPE   H4Y 1894   4.366   2.700  13.242 -0.5566 -0.2911  1.0462
   15DOPE   C35 1895   4.318   2.640  13.036  0.2148  0.2732  0.7338
   15DOPE   H5X 1896   4.258   2.561  12.986 -0.3563  0.7293  0.6995
   15DOPE   H5Y 1897   4.426   2.615  13.029  0.2322  0.5512 -0.0602
   15DOPE   C36 1898   4.290   2.772  12.963  0.2160  0.0777  0.9477
   15DOPE   H6X 1899   4.310   2.858  13.030 -0.2055  2.0749 -1.3222
   15DOPE   H6Y 1900   4.180   2.786  12.950 -0.0808 -2.4092  0.4320
   15DOPE   C37 1901   4.367   2.783  12.831 -0.1291  0.1333  0.5888
   15DOPE   H7X 1902   4.354   2.884  12.788 -0.6438  1.6715  4.0108
   15DOPE   H7Y 1903   4.474   2.765  12.858  0.7395  1.5610 -1.6672
   15DOPE   C38 1904   4.328   2.686  12.716 -0.6767 -0.0140 -0.0837
   15DOPE   H8X 1905   4.360   2.583  12.743  1.3279  0.5887  0.0074
   15DOPE   H8Y 1906   4.385   2.710  12.624  0.9813 -0.8585  0.6983
   15DOPE   C39 1907   4.180   2.688  12.676  0.1021 -0.6908 -0.0121
   15DOPE   H9X 1908   4.104   2.692  12.756 -1.1148 -1.3360 -1.0874
   15DOPE  C310 1909   4.139   2.678  12.544  0.3379 -0.7065 -0.5885
   15DOPE  H10X 1910   4.031   2.664  12.529  0.5652 -1.7906 -1.3633
   15DOPE  C311 1911   4.212   2.659  12.410  0.2299 -0.5391 -0.3180
   15DOPE  H11X 1912   4.316   2.628  12.435  0.7460  0.2300 -1.4183
   15DOPE  H11Y 1913   4.163   2.585  12.343 -0.6481  1.3781 -1.9164
   15DOPE  C312 1914   4.203   2.783  12.311 -0.4228 -0.5043  0.3895
   15DOPE  H12X 1915   4.247   2.865  12.370  0.2203  0.7796 -1.7495
   15DOPE  H12Y 1916   4.098   2.805  12.282  0.5505  0.1148 -3.1680
   15DOPE  C313 1917   4.287   2.764  12.185  0.1616  0.5303 -0.0049
   15DOPE  H13X 1918   4.393   2.736  12.205 -0.0723 -0.5388 -0.1833
   15DOPE  H13Y 1919   4.242   2.671  12.144  1.3247 -0.3096  0.5430
   15DOPE  C314 1920   4.290   2.886  12.090  0.4122 -0.4839  0.4579
   15DOPE  H14X 1921   4.307   2.974  12.156 -0.8623  0.1245  0.0086
   15DOPE  H14Y 1922   4.190   2.896  12.042  0.8690  0.8229 -0.2550
   15DOPE  C315 1923   4.411   2.882  11.988 -0.0709  0.1132 -0.2897
   15DOPE  H15X 1924   4.411   2.785  11.933  1.2731 -0.0678 -0.0218
   15DOPE  H15Y 1925   4.513   2.885  12.032  1.2750  0.1819 -3.1764
   15DOPE  C316 1926   4.398   2.991  11.886 -0.0907  0.4070 -0.3896
   15DOPE  H16X 1927   4.436   3.086  11.931  0.5636  0.5361 -1.1910
   15DOPE  H16Y 1928   4.291   3.000  11.858  0.0327 -0.4788 -1.2036
   15DOPE  C317 1929   4.475   2.959  11.757 -0.0999 -0.0223 -0.0162
   15DOPE  H17X 1930   4.561   2.892  11.778 -1.2465 -1.9241 -1.1186
   15DOPE  H17Y 1931   4.414   2.902  11.684  0.7134 -4.5375  2.4468
   15DOPE  C318 1932   4.519   3.088  11.701 -0.2760  0.1975  0.3691
   15DOPE  H18X 1933   4.432   3.147  11.666  0.1296 -0.2186 -1.4811
   15DOPE  H18Y 1934   4.591   3.154  11.754  1.4868 -0.7439 -0.7154
   15DOPE  H18Z 1935   4.583   3.067  11.612 -0.3147 -0.6709  0.5379
   16DOPE     N 1936   4.200   4.052  13.833  0.2498  0.5042 -0.6500
   16DOPE   HN1 1937   4.262   3.999  13.898 -0.2211  2.5198  1.6035
   16DOPE   HN2 1938   4.155   4.000  13.756  0.8071 -0.3836 -0.3922
   16DOPE   HN3 1939   4.264   4.125  13.793 -1.7341  2.3374 -0.6601
   16DOPE   C12 1940   4.111   4.131  13.926 -0.4305  0.1582  0.6001
   16DOPE  H12A 1941   4.047   4.068  13.992  0.3463 -1.4829 -0.1477
   16DOPE  H12B 1942   4.065   4.213  13.867  0.9182  1.4925  1.3280
   16DOPE   C11 1943   4.200   4.208  14.035 -0.1358 -0.2944 -0.2439
   16DOPE  H11A 1944   4.239   4.121  14.092  1.6099  0.7802  0.2611
   16DOPE  H11B 1945   4.125   4.265  14.094  0.4976  2.3429 -1.8346
   16DOPE     P 1946   4.332   4.427  14.036 -0.2476 -0.1488 -0.1874
   16DOPE   O13 1947   4.378   4.415  14.178 -0.2566  0.2724 -0.3301
   16DOPE   O14 1948   4.215   4.514  14.012  0.1843 -0.1895 -0.4848
   16DOPE   O11 1949   4.454   4.498  13.953  0.6820 -0.2046  0.4070
   16DOPE   O12 1950   4.311   4.283  13.973  0.5149 -0.1886  0.4327
   16DOPE    C1 1951   4.538   4.408  13.875 -0.6402 -0.8413  0.2850
   16DOPE    HA 1952   4.554   4.311  13.929 -0.9707 -1.4861 -0.7504
   16DOPE    HB 1953   4.644   4.443  13.882 -0.8909 -0.1468  0.6755
   16DOPE    C2 1954   4.483   4.357  13.742  0.5246  0.1117 -0.2441
   16DOPE    HS 1955   4.443   4.255  13.759  3.9828 -1.4276 -0.5432
   16DOPE   O21 1956   4.593   4.355  13.650 -0.3341  0.2167 -0.3297
   16DOPE   C21 1957   4.700   4.280  13.673 -0.2397 -0.4053 -0.9418
   16DOPE   O22 1958   4.703   4.185  13.746 -0.9464 -0.1946 -0.6207
   16DOPE   C22 1959   4.823   4.338  13.612 -0.3375  0.3310  0.0133
   16DOPE   H2R 1960   4.908   4.329  13.682 -0.3114 -1.7888 -0.2208
   16DOPE   H2S 1961   4.820   4.449  13.602  2.3331  0.7484  2.7426
   16DOPE    C3 1962   4.382   4.456  13.682  0.3073  0.3291  0.2033
   16DOPE    HX 1963   4.421   4.560  13.685 -2.0474  1.2719 -0.2601
   16DOPE    HY 1964   4.290   4.468  13.743  0.0301 -1.1276  0.1042
   16DOPE   O31 1965   4.348   4.413  13.542 -0.2669 -0.2547  0.0818
   16DOPE   C31 1966   4.272   4.310  13.539 -1.0823  0.6505 -0.2699
   16DOPE   O32 1967   4.209   4.258  13.630 -0.4903 -0.7971  0.5333
   16DOPE   C32 1968   4.251   4.264  13.393  0.2973  0.4921 -0.2871
   16DOPE   H2X 1969   4.220   4.157  13.397  1.2026  0.2560  2.7741
   16DOPE   H2Y 1970   4.171   4.330  13.352 -0.0421 -0.6217 -1.5084
   16DOPE   C23 1971   4.865   4.267  13.480  0.5437 -0.5103 -0.0358
   16DOPE   H3R 1972   4.845   4.159  13.502  1.6141 -0.3473  2.0065
   16DOPE   H3S 1973   4.973   4.274  13.459 -0.0100 -2.4000 -4.6420
   16DOPE   C24 1974   4.793   4.335  13.363  0.0419  0.3294 -0.2264
   16DOPE   H4R 1975   4.825   4.441  13.374 -1.9430  0.9176  0.3401
   16DOPE   H4S 1976   4.683   4.345  13.370  0.1226  1.3065 -0.1676
   16DOPE   C25 1977   4.832   4.290  13.218 -0.2793  0.3362 -0.1387
   16DOPE   H5R 1978   4.943   4.288  13.214 -0.2522  0.7909  0.3373
   16DOPE   H5S 1979   4.793   4.369  13.151 -0.3346  0.8081  0.4334
   16DOPE   C26 1980   4.782   4.153  13.179 -0.1869  0.4866  0.3094
   16DOPE   H6R 1981   4.671   4.142  13.181  0.0410 -3.4652  1.2216
   16DOPE   H6S 1982   4.821   4.070  13.242 -2.8251 -1.7256 -0.7491
   16DOPE   C27 1983   4.842   4.127  13.042 -0.3602  0.0996  0.3222
   16DOPE   H7R 1984   4.947   4.110  13.074 -0.1382  2.7700  1.3352
   16DOPE   H7S 1985   4.825   4.204  12.963 -2.2384 -0.9741 -0.3901
   16DOPE   C28 1986   4.784   3.999  12.978  0.0278 -0.1772 -0.8276
   16DOPE   H8R 1987   4.791   3.909  13.042 -1.1350  1.0330  1.0984
   16DOPE   H8S 1988   4.838   3.971  12.885 -0.5475 -1.3291 -0.8318
   16DOPE   C29 1989   4.640   4.011  12.949  0.7829 -0.9975 -0.1313
   16DOPE   H9R 1990   4.561   4.006  13.025  0.0969 -2.5827 -0.8952
   16DOPE  C210 1991   4.597   4.013  12.819 -0.7175 -0.1221  0.7791
   16DOPE  H10R 1992   4.492   3.997  12.791 -0.4646 -1.1576  0.3815
   16DOPE  C211 1993   4.680   4.027  12.697 -0.7336  0.8262  0.4969
   16DOPE  H11R 1994   4.710   3.921  12.682  0.7875  1.5664 -2.5931
   16DOPE  H11S 1995   4.778   4.074  12.718 -0.0515  1.4858 -3.4565
   16DOPE  C212 1996   4.609   4.062  12.561 -0.0827 -0.1193  0.8010
   16DOPE  H12R 1997   4.564   4.162  12.543  0.9096  0.2205  0.0820
   16DOPE  H12S 1998   4.537   3.978  12.552 -0.5538  0.4522 -1.1228
   16DOPE  C213 1999   4.703   4.038  12.435  0.5655  0.7457  0.5725
   16DOPE  H13R 2000   4.634   4.033  12.348  1.3000 -0.2243  0.0214
   16DOPE  H13S 2001   4.747   3.936  12.434 -1.7642 -0.3257 -0.2602
   16DOPE  C214 2002   4.807   4.144  12.407  0.8748  1.0001  0.0987
   16DOPE  H14R 2003   4.894   4.127  12.474  1.1598  0.4800 -0.3915
   16DOPE  H14S 2004   4.762   4.243  12.429  0.5531  0.7768  0.4469
   16DOPE  C215 2005   4.863   4.148  12.263 -0.0356  0.6989  0.6621
   16DOPE  H15R 2006   4.863   4.043  12.225  0.9739  0.3927  1.4547
   16DOPE  H15S 2007   4.969   4.179  12.273 -0.0298  0.5428  1.1240
   16DOPE  C216 2008   4.781   4.229  12.158 -0.0188  0.1157  0.7281
   16DOPE  H16R 2009   4.779   4.330  12.205  1.9811 -0.8355  3.0900
   16DOPE  H16S 2010   4.677   4.192  12.166 -0.3529  0.6658 -0.7053
   16DOPE  C217 2011   4.842   4.229  12.013  0.1171  0.3886 -1.0662
   16DOPE  H17R 2012   4.866   4.126  11.977  4.0676  0.6770  0.2480
   16DOPE  H17S 2013   4.937   4.285  12.025  0.4378 -0.6616  2.4380
   16DOPE  C218 2014   4.766   4.304  11.907 -0.3754 -0.5026  0.3740
   16DOPE  H18R 2015   4.669   4.255  11.884 -1.0035  1.8539 -2.7049
   16DOPE  H18S 2016   4.821   4.314  11.811 -0.3568 -0.7757  0.3557
   16DOPE  H18T 2017   4.749   4.408  11.943  2.0113  0.2304 -0.4391
   16DOPE   C33 2018   4.366   4.282  13.296  0.5795 -0.1635 -0.1210
   16DOPE   H3X 2019   4.454   4.238  13.347  0.1831 -2.8070 -1.5529
   16DOPE   H3Y 2020   4.393   4.389  13.286  1.2893 -0.1851  1.3379
   16DOPE   C34 2021   4.351   4.218  13.158 -0.2391  0.1702  0.2091
   16DOPE   H4X 2022   4.445   4.227  13.100 -0.6153 -0.5780 -0.5242
   16DOPE   H4Y 2023   4.347   4.108  13.173 -0.3012  0.2738  1.0066
   16DOPE   C35 2024   4.219   4.256  13.084 -0.0469  0.8019  0.9049
   16DOPE   H5X 2025   4.204   4.365  13.066 -2.0164  0.4714  0.2778
   16DOPE   H5Y 2026   4.138   4.224  13.154 -1.4106 -2.8519 -2.0053
   16DOPE   C36 2027   4.207   4.177  12.950 -0.4778 -0.0815  0.6194
   16DOPE   H6X 2028   4.099   4.176  12.922 -0.2765 -1.2337 -0.1814
   16DOPE   H6Y 2029   4.232   4.069  12.957 -2.2329 -0.5876 -0.3074
   16DOPE   C37 2030   4.278   4.256  12.839 -0.0486  0.8342  0.1129
   16DOPE   H7X 2031   4.268   4.360  12.876 -0.9962  0.2394  1.6260
   16DOPE   H7Y 2032   4.387   4.236  12.839 -0.3804 -1.2454  0.9990
   16DOPE   C38 2033   4.211   4.241  12.707 -0.1105 -0.6370  0.7782
   16DOPE   H8X 2034   4.220   4.333  12.646 -1.3132  0.4129  2.1487
   16DOPE   H8Y 2035   4.102   4.244  12.726 -0.3765  2.9702 -0.6024
   16DOPE   C39 2036   4.256   4.116  12.629  0.0577  0.3141 -0.0490
   16DOPE   H9X 2037   4.236   4.015  12.668  1.3080  0.4317  0.9533
   16DOPE  C310 2038   4.280   4.128  12.495  0.4272  0.0958 -0.5606
   16DOPE  H10X 2039   4.299   4.035  12.440  1.4636  1.7675 -3.2412
   16DOPE  C311 2040   4.271   4.248  12.400 -0.5118 -0.7869  0.3169
   16DOPE  H11X 2041   4.221   4.338  12.443 -0.5349 -0.8364  0.3951
   16DOPE  H11Y 2042   4.376   4.276  12.377 -0.1097 -2.1697  0.3933
   16DOPE  C312 2043   4.190   4.220  12.267  0.0791  0.2126 -0.4468
   16DOPE  H12X 2044   4.192   4.313  12.207 -3.6338  0.8933  0.2327
   16DOPE  H12Y 2045   4.091   4.188  12.307  0.9082 -0.3985  1.1887
   16DOPE  C313 2046   4.237   4.098  12.192 -0.4142 -0.7992  0.5499
   16DOPE  H13X 2047   4.220   4.011  12.260  1.0607 -1.0212  0.6679
   16DOPE  H13Y 2048   4.163   4.085  12.110 -0.1206 -0.5515  0.2445
   16DOPE  C314 2049   4.377   4.108  12.132  0.3002 -0.5178 -0.0920
   16DOPE  H14X 2050   4.450   4.147  12.206 -0.1008  0.1515 -0.0417
   16DOPE  H14Y 2051   4.375   4.177  12.046 -1.1738  0.5275  0.7465
   16DOPE  C315 2052   4.437   3.973  12.094  0.6013  0.7994 -0.7174
   16DOPE  H15X 2053   4.359   3.905  12.053  1.4298  0.0299 -1.0623
   16DOPE  H15Y 2054   4.475   3.921  12.185 -0.7656 -0.2754 -0.7124
   16DOPE  C316 2055   4.548   3.979  11.991 -0.4916  0.0438  0.3619
   16DOPE  H16X 2056   4.633   4.030  12.041  0.1058 -0.6415  0.0725
   16DOPE  H16Y 2057   4.512   4.035  11.903 -0.8945 -0.8024 -0.0210
   16DOPE  C317 2058   4.606   3.844  11.951 -0.0488 -0.1157  0.4803
   16DOPE  H17X 2059   4.525   3.767  11.951  0.2245 -0.5053 -2.1104
   16DOPE  H17Y 2060   4.643   3.848  11.847  0.2187 -2.1786  0.4504
   16DOPE  C318 2061   4.724   3.799  12.039  0.0232  0.3989  0.4536
   16DOPE  H18X 2062   4.759   3.694  12.029 -0.3970  0.3509 -0.6077
   16DOPE  H18Y 2063   4.812   3.857  12.005  3.3721 -3.6747  1.3365
   16DOPE  H18Z 2064   4.698   3.823  12.145 -1.2148  2.8185 -0.3290
   17DOPE     N 2065   6.215   0.997  12.782  0.1569 -0.1684  0.1338
   17DOPE   HN1 2066   6.271   0.977  12.867 -0.1816 -0.3618  0.3148
   17DOPE   HN2 2067   6.220   0.914  12.720  0.1984  1.0746 -1.5938
   17DOPE   HN3 2068   6.252   1.085  12.740 -1.9883  1.6543  1.7878
   17DOPE   C12 2069   6.071   1.029  12.828  0.3330 -0.1779  0.2930
   17DOPE  H12A 2070   6.006   1.055  12.742  1.1896  0.1192 -0.2805
   17DOPE  H12B 2071   6.081   1.118  12.894  1.3142  0.7975 -1.1036
   17DOPE   C11 2072   6.012   0.917  12.912  0.1003 -0.4233 -0.8887
   17DOPE  H11A 2073   6.068   0.901  13.007 -0.8213 -1.7873 -0.5340
   17DOPE  H11B 2074   6.015   0.826  12.849 -0.4527  0.2442 -1.9072
   17DOPE     P 2075   5.781   0.854  13.021 -0.0266 -0.0441  0.0688
   17DOPE   O13 2076   5.641   0.893  12.999 -0.2914  0.2159 -0.4445
   17DOPE   O14 2077   5.829   0.858  13.161  0.0165 -0.2541  0.1326
   17DOPE   O11 2078   5.801   0.705  12.973  0.4589  0.0737  0.2524
   17DOPE   O12 2079   5.873   0.946  12.926  0.0313  0.2933 -0.3761
   17DOPE    C1 2080   5.773   0.655  12.842 -0.5027  0.2437  0.3093
   17DOPE    HA 2081   5.769   0.737  12.768 -1.4334  0.1681  0.2537
   17DOPE    HB 2082   5.683   0.589  12.847  1.5073 -2.7035  0.5295
   17DOPE    C2 2083   5.889   0.560  12.806  0.4370 -0.7380  0.2766
   17DOPE    HS 2084   5.981   0.622  12.801  0.5118 -0.8730 -0.0119
   17DOPE   O21 2085   5.850   0.503  12.675 -0.7658  0.2782  0.0378
   17DOPE   C21 2086   5.941   0.537  12.578  0.3056  0.2977  0.6094
   17DOPE   O22 2087   6.037   0.610  12.586 -0.5523  0.1368  0.0548
   17DOPE   C22 2088   5.903   0.467  12.452 -0.3148  0.4371  0.1574
   17DOPE   H2R 2089   5.864   0.366  12.477 -1.9741  1.0476  0.1998
   17DOPE   H2S 2090   5.997   0.453  12.395 -1.2099 -2.0055 -0.8530
   17DOPE    C3 2091   5.902   0.453  12.917  0.7549  0.3480 -0.2500
   17DOPE    HX 2092   5.803   0.410  12.940  0.9100  0.3974  0.5231
   17DOPE    HY 2093   5.927   0.507  13.011  0.5687 -0.0326  0.0158
   17DOPE   O31 2094   5.998   0.351  12.882 -0.1067  0.8494 -0.4325
   17DOPE   C31 2095   6.121   0.393  12.889  0.2920  0.1208  0.0158
   17DOPE   O32 2096   6.151   0.509  12.920  0.1273  0.0573  0.2303
   17DOPE   C32 2097   6.224   0.283  12.867 -0.2572  0.4402  0.6386
   17DOPE   H2X 2098   6.278   0.269  12.963 -0.4073 -1.1587  0.5113
   17DOPE   H2Y 2099   6.174   0.191  12.831 -1.1239  0.9598  0.4746
   17DOPE   C23 2100   5.797   0.547  12.377 -0.2858 -0.4313  0.3198
   17DOPE   H3R 2101   5.838   0.648  12.356 -0.0219 -0.7050 -0.5340
   17DOPE   H3S 2102   5.707   0.569  12.438  0.7295  2.0564  1.0445
   17DOPE   C24 2103   5.765   0.476  12.243  0.8500  0.1816  0.3544
   17DOPE   H4R 2104   5.714   0.378  12.263  1.7184 -0.2228  0.6355
   17DOPE   H4S 2105   5.863   0.463  12.192  1.4160  0.8292  1.2487
   17DOPE   C25 2106   5.673   0.566  12.154 -0.4444 -0.6011  0.0373
   17DOPE   H5R 2107   5.725   0.659  12.122 -1.4218 -0.3235 -0.7903
   17DOPE   H5S 2108   5.580   0.599  12.205 -1.8784 -2.1893 -1.4083
   17DOPE   C26 2109   5.636   0.490  12.024  0.1141 -1.2627 -0.1732
   17DOPE   H6R 2110   5.556   0.419  12.053  0.7990 -2.4659 -1.1008
   17DOPE   H6S 2111   5.722   0.430  11.984  0.3332 -0.7983 -0.4033
   17DOPE   C27 2112   5.573   0.571  11.909 -0.0745 -0.1744  1.3501
   17DOPE   H7R 2113   5.642   0.655  11.884 -0.7644  0.3324  1.1312
   17DOPE   H7S 2114   5.491   0.637  11.943 -1.6504 -1.0329 -0.5550
   17DOPE   C28 2115   5.533   0.484  11.786 -0.4323 -0.3775 -0.4504
   17DOPE   H8R 2116   5.449   0.417  11.812 -1.2723  0.2702 -1.4254
   17DOPE   H8S 2117   5.621   0.425  11.753 -0.5487  0.0664 -1.5999
   17DOPE   C29 2118   5.491   0.590  11.684 -0.8095  0.3675  0.4637
   17DOPE   H9R 2119   5.409   0.656  11.717  0.6907  1.2695  2.5661
   17DOPE  C210 2120   5.553   0.608  11.560  0.1005 -0.6119 -0.1711
   17DOPE  H10R 2121   5.525   0.692  11.494  0.6265  0.5537  1.0429
   17DOPE  C211 2122   5.677   0.542  11.507 -0.1321 -0.1375  0.2184
   17DOPE  H11R 2123   5.669   0.431  11.505  1.3771 -0.2816  0.7700
   17DOPE  H11S 2124   5.770   0.555  11.566  2.1359 -1.3693 -2.8121
   17DOPE  C212 2125   5.716   0.585  11.365  0.4139 -0.3600 -0.2892
   17DOPE  H12R 2126   5.715   0.696  11.357  1.3047 -0.3257 -0.0203
   17DOPE  H12S 2127   5.638   0.544  11.297 -0.3045 -1.1750  0.9823
   17DOPE  C213 2128   5.852   0.541  11.326 -0.4301  0.1767  0.0355
   17DOPE  H13R 2129   5.876   0.435  11.351  0.8357  0.2470 -0.7654
   17DOPE  H13S 2130   5.931   0.595  11.382  1.3034 -3.2412  1.2085
   17DOPE  C214 2131   5.883   0.549  11.172 -0.8175  0.1357  0.6950
   17DOPE  H14R 2132   5.858   0.650  11.134  0.7763 -0.5878 -2.6657
   17DOPE  H14S 2133   5.812   0.480  11.121 -1.6005  2.8338 -2.2284
   17DOPE  C215 2134   6.026   0.511  11.140 -0.2546  0.3804 -0.1883
   17DOPE  H15R 2135   6.018   0.410  11.093 -0.7558  0.4822 -0.3323
   17DOPE  H15S 2136   6.092   0.523  11.228 -0.6658 -1.0134  0.3433
   17DOPE  C216 2137   6.080   0.595  11.027 -0.0791 -0.6332  0.0931
   17DOPE  H16R 2138   6.191   0.585  11.026  0.0485  0.6327 -0.7560
   17DOPE  H16S 2139   6.066   0.701  11.055 -0.2302 -0.8676  0.9208
   17DOPE  C217 2140   6.012   0.556  10.897 -0.0894  0.2268 -0.3253
   17DOPE  H17R 2141   5.902   0.560  10.912 -0.1047 -0.9128 -0.0236
   17DOPE  H17S 2142   6.032   0.454  10.860  0.8201  0.8760 -1.6882
   17DOPE  C218 2143   6.050   0.647  10.781  0.8577  0.4596  0.8441
   17DOPE  H18R 2144   5.996   0.743  10.781  0.2831  0.2662 -2.7362
   17DOPE  H18S 2145   6.029   0.596  10.685 -2.8465  0.5894  1.4527
   17DOPE  H18T 2146   6.158   0.673  10.792  1.6229 -0.6763 -2.6541
   17DOPE   C33 2147   6.332   0.327  12.760 -0.0390  0.6854 -0.2132
   17DOPE   H3X 2148   6.426   0.270  12.769 -1.0200 -0.8959  0.3540
   17DOPE   H3Y 2149   6.355   0.432  12.788 -1.8476  0.5339  2.1817
   17DOPE   C34 2150   6.286   0.310  12.616 -0.0281  0.4687  0.1971
   17DOPE   H4X 2151   6.197   0.374  12.598  0.0716  0.4419 -0.4261
   17DOPE   H4Y 2152   6.376   0.339  12.558  1.8380 -0.6963  2.3581
   17DOPE   C35 2153   6.257   0.156  12.590 -0.6661  0.3455 -0.0295
   17DOPE   H5X 2154   6.155   0.132  12.624 -0.8093  2.1375  0.9107
   17DOPE   H5Y 2155   6.333   0.103  12.651  1.3160  0.5090 -2.1673
   17DOPE   C36 2156   6.269   0.120  12.440 -0.1917  0.8443  0.5061
   17DOPE   H6X 2157   6.285   0.010  12.439 -1.7814  0.5775 -0.3409
   17DOPE   H6Y 2158   6.360   0.165  12.396  0.0247 -0.2083 -0.1434
   17DOPE   C37 2159   6.145   0.135  12.352  0.4841 -0.5459 -0.0709
   17DOPE   H7X 2160   6.082   0.066  12.411  0.7064 -0.6165  0.0828
   17DOPE   H7Y 2161   6.096   0.235  12.360 -0.5581 -0.9884 -0.7035
   17DOPE   C38 2162   6.158   0.084  12.210 -0.4494 -0.6990  0.1452
   17DOPE   H8X 2163   6.058   0.079  12.162  0.4001  0.6102 -1.8945
   17DOPE   H8Y 2164   6.207  -0.016  12.212  0.8092 -0.1657 -1.5702
   17DOPE   C39 2165   6.247   0.169  12.127 -0.0893 -0.2867  0.5817
   17DOPE   H9X 2166   6.348   0.178  12.170  0.2207  2.3755 -0.5158
   17DOPE  C310 2167   6.232   0.217  12.002 -0.2312  0.3606 -1.0467
   17DOPE  H10X 2168   6.317   0.267  11.955 -0.0859  0.6989 -0.4319
   17DOPE  C311 2169   6.119   0.176  11.917  0.4218 -0.0320 -0.6113
   17DOPE  H11X 2170   6.162   0.134  11.823 -0.3801  1.3991 -1.6551
   17DOPE  H11Y 2171   6.057   0.100  11.968  2.8312 -1.2918  0.6227
   17DOPE  C312 2172   6.031   0.295  11.877  0.0538 -0.3764 -0.0551
   17DOPE  H12X 2173   6.090   0.388  11.861 -1.4369  0.4433 -0.9583
   17DOPE  H12Y 2174   5.963   0.313  11.963  1.8245  1.2809  1.0838
   17DOPE  C313 2175   5.936   0.273  11.758  0.7794 -0.5434 -0.8445
   17DOPE  H13X 2176   5.909   0.165  11.752 -0.7253 -0.1329 -1.8103
   17DOPE  H13Y 2177   5.845   0.328  11.789  0.6144 -2.3528  2.3896
   17DOPE  C314 2178   5.985   0.308  11.617  0.1179  0.0768  0.2385
   17DOPE  H14X 2179   6.020   0.414  11.613  0.1574  0.0182 -1.3830
   17DOPE  H14Y 2180   5.904   0.299  11.542 -0.1358  1.3478  0.3337
   17DOPE  C315 2181   6.100   0.216  11.562 -0.1728 -0.0172 -0.1334
   17DOPE  H15X 2182   6.072   0.110  11.579  3.2300 -1.2255 -1.1953
   17DOPE  H15Y 2183   6.196   0.222  11.618  0.1827 -0.1818 -0.7116
   17DOPE  C316 2184   6.129   0.239  11.410  0.2598 -0.2956 -0.4934
   17DOPE  H16X 2185   6.124   0.349  11.398  0.0294 -0.1007  1.1588
   17DOPE  H16Y 2186   6.050   0.187  11.351 -1.1160  0.9642  0.1708
   17DOPE  C317 2187   6.266   0.186  11.362 -0.4003 -0.1550 -0.2384
   17DOPE  H17X 2188   6.346   0.228  11.427 -1.5472  0.9896  0.4798
   17DOPE  H17Y 2189   6.269   0.076  11.351 -1.5128 -0.4555  1.8951
   17DOPE  C318 2190   6.300   0.246  11.222  0.3566  0.7904  0.1546
   17DOPE  H18X 2191   6.246   0.178  11.153  0.4263  0.4988  0.3831
   17DOPE  H18Y 2192   6.274   0.354  11.214 -3.3894  0.1234  1.3842
   17DOPE  H18Z 2193   6.409   0.230  11.211  0.1130 -2.1067  1.1355
   18DOPE     N 2194   3.228   4.061  13.796  0.3964  0.5070 -0.1356
   18DOPE   HN1 2195   3.222   3.990  13.872  1.6807 -0.4988 -0.9360
   18DOPE   HN2 2196   3.298   4.124  13.841 -0.9211  1.5226  0.5545
   18DOPE   HN3 2197   3.137   4.110  13.790  1.1614  1.8140 -1.5420
   18DOPE   C12 2198   3.284   4.022  13.665 -0.7204  0.2399  0.3027
   18DOPE  H12A 2199   3.289   4.116  13.607  1.3261  0.9696  1.5476
   18DOPE  H12B 2200   3.214   3.944  13.628  2.7476 -4.6104  2.7452
   18DOPE   C11 2201   3.431   3.970  13.686 -0.6704 -1.0562 -0.7319
   18DOPE  H11A 2202   3.483   4.052  13.740 -0.0249 -0.7684 -1.7624
   18DOPE  H11B 2203   3.486   3.950  13.592 -1.7920 -0.9417 -1.4416
   18DOPE     P 2204   3.556   3.758  13.796 -0.0634 -0.2092 -0.5835
   18DOPE   O13 2205   3.517   3.647  13.877  0.2314  0.2711  0.3833
   18DOPE   O14 2206   3.673   3.838  13.837  0.2557 -0.4265 -0.3190
   18DOPE   O11 2207   3.579   3.702  13.646 -0.8225 -0.0929 -0.2185
   18DOPE   O12 2208   3.433   3.857  13.771  0.1643  0.4117 -0.2547
   18DOPE    C1 2209   3.473   3.629  13.581 -0.1388 -0.3798 -0.6035
   18DOPE    HA 2210   3.375   3.677  13.600  1.4486  2.8759 -0.0241
   18DOPE    HB 2211   3.471   3.526  13.623 -1.2817 -0.6249 -1.2052
   18DOPE    C2 2212   3.490   3.626  13.429  0.0881  0.4505 -0.1548
   18DOPE    HS 2213   3.397   3.582  13.388 -0.9827  1.4910  1.0633
   18DOPE   O21 2214   3.612   3.555  13.394  0.7237 -0.3175  0.0626
   18DOPE   C21 2215   3.602   3.427  13.408 -0.3179 -0.3199  0.4716
   18DOPE   O22 2216   3.504   3.357  13.436 -0.5163  0.0071 -0.6656
   18DOPE   C22 2217   3.738   3.360  13.372  0.5493  0.9434 -0.0959
   18DOPE   H2R 2218   3.751   3.280  13.448 -0.0072  1.0773  0.1449
   18DOPE   H2S 2219   3.823   3.431  13.374  0.0509  1.7751 -3.2642
   18DOPE    C3 2220   3.500   3.765  13.371  0.5883  0.2846 -0.5575
   18DOPE    HX 2221   3.580   3.820  13.425  0.2866  0.7586 -0.5895
   18DOPE    HY 2222   3.400   3.808  13.394 -1.2344 -2.0847 -3.3138
   18DOPE   O31 2223   3.530   3.761  13.228  0.0149  0.1917  0.1984
   18DOPE   C31 2224   3.477   3.854  13.155 -0.1535  0.3712  0.2955
   18DOPE   O32 2225   3.393   3.933  13.190  0.6901  0.0545  0.3469
   18DOPE   C32 2226   3.524   3.833  13.010 -0.4385 -0.0141  0.2242
   18DOPE   H2X 2227   3.632   3.856  13.014  0.3320 -2.6214 -2.1805
   18DOPE   H2Y 2228   3.523   3.725  12.986  6.5840 -0.7489  1.1033
   18DOPE   C23 2229   3.729   3.305  13.233  0.2476 -0.0281  0.1243
   18DOPE   H3R 2230   3.648   3.230  13.224  0.3472 -0.1755  0.4607
   18DOPE   H3S 2231   3.826   3.257  13.209  0.1616 -0.7022  1.0914
   18DOPE   C24 2232   3.702   3.403  13.113  0.2852  0.2369  0.4220
   18DOPE   H4R 2233   3.796   3.462  13.118 -0.3281  1.3903 -0.9704
   18DOPE   H4S 2234   3.615   3.469  13.132 -0.0759  0.4190 -1.5800
   18DOPE   C25 2235   3.695   3.326  12.982 -0.1321 -0.4347 -0.3585
   18DOPE   H5R 2236   3.589   3.292  12.982 -0.0733 -0.6264 -0.1434
   18DOPE   H5S 2237   3.762   3.237  12.976  0.1541 -0.4173  1.7500
   18DOPE   C26 2238   3.729   3.411  12.861 -0.7027  0.5160 -0.2021
   18DOPE   H6R 2239   3.827   3.464  12.872 -1.7816  2.3102  1.3673
   18DOPE   H6S 2240   3.649   3.487  12.847 -0.0953  0.9259 -1.7699
   18DOPE   C27 2241   3.747   3.315  12.741 -0.3852 -0.4665 -0.0953
   18DOPE   H7R 2242   3.657   3.249  12.746 -0.7666  0.1298  3.8926
   18DOPE   H7S 2243   3.834   3.249  12.758 -0.1229  0.3171  1.7381
   18DOPE   C28 2244   3.755   3.377  12.602 -0.0131 -0.1675  1.2461
   18DOPE   H8R 2245   3.786   3.298  12.530 -0.3506 -0.4135  1.3664
   18DOPE   H8S 2246   3.839   3.449  12.589 -1.4384  1.5554  1.2471
   18DOPE   C29 2247   3.629   3.452  12.564 -0.3764  0.1188  0.4073
   18DOPE   H9R 2248   3.570   3.487  12.650 -1.3815 -1.0012  0.1884
   18DOPE  C210 2249   3.577   3.458  12.447  0.3080  0.6224 -0.6843
   18DOPE  H10R 2250   3.472   3.488  12.434 -0.1964 -1.3660 -1.6039
   18DOPE  C211 2251   3.649   3.411  12.326 -1.0360 -0.1029 -0.3683
   18DOPE  H11R 2252   3.633   3.301  12.320 -4.4370  0.0461  2.4403
   18DOPE  H11S 2253   3.758   3.435  12.321 -0.7399 -1.3111 -0.1078
   18DOPE  C212 2254   3.605   3.480  12.197  0.5127  0.2448  0.1807
   18DOPE  H12R 2255   3.665   3.438  12.113 -0.1037  0.8986 -0.6107
   18DOPE  H12S 2256   3.628   3.587  12.210 -0.9162  0.4823  0.9489
   18DOPE  C213 2257   3.459   3.464  12.161 -0.4535 -0.9666  0.9902
   18DOPE  H13R 2258   3.394   3.509  12.239 -0.7693  2.0198 -0.8069
   18DOPE  H13S 2259   3.436   3.356  12.148 -0.3020 -1.1355  2.0879
   18DOPE  C214 2260   3.419   3.540  12.030 -0.0854  0.2675  0.0408
   18DOPE  H14R 2261   3.475   3.501  11.942  0.4461 -0.8230  0.8379
   18DOPE  H14S 2262   3.453   3.646  12.044  1.9514 -0.3314 -0.0247
   18DOPE  C215 2263   3.266   3.539  12.016 -0.0234  0.2950 -0.5461
   18DOPE  H15R 2264   3.218   3.585  12.106  0.7784  0.3678 -0.1446
   18DOPE  H15S 2265   3.239   3.431  12.015 -0.4694  0.3828  0.4895
   18DOPE  C216 2266   3.206   3.604  11.893 -0.6427 -0.3932 -0.7934
   18DOPE  H16R 2267   3.247   3.707  11.882 -1.8721  0.2976  0.7491
   18DOPE  H16S 2268   3.096   3.607  11.911 -0.6333 -1.7336 -0.3985
   18DOPE  C217 2269   3.222   3.536  11.756  0.2694 -0.1658 -0.6206
   18DOPE  H17R 2270   3.203   3.428  11.773  0.8913 -0.0680  0.8627
   18DOPE  H17S 2271   3.322   3.567  11.719 -0.2696  0.2268 -1.8024
   18DOPE  C218 2272   3.119   3.585  11.645  0.3380 -0.0608 -0.3286
   18DOPE  H18R 2273   3.138   3.520  11.557  0.1433  1.4146 -1.5078
   18DOPE  H18S 2274   3.138   3.692  11.622  0.9766  0.4982  2.3831
   18DOPE  H18T 2275   3.017   3.570  11.685  1.5911 -2.2000  2.4383
   18DOPE   C33 2276   3.453   3.922  12.909 -0.4377  0.4665 -0.6098
   18DOPE   H3X 2277   3.463   4.029  12.934  0.6951  0.4252 -0.8027
   18DOPE   H3Y 2278   3.344   3.904  12.923 -0.4756  1.5941  0.6757
   18DOPE   C34 2279   3.508   3.907  12.763 -0.0389 -0.1174 -0.1775
   18DOPE   H4X 2280   3.614   3.940  12.753  0.1715 -1.0896 -1.4854
   18DOPE   H4Y 2281   3.496   3.800  12.734  0.2282 -0.0506 -0.5483
   18DOPE   C35 2282   3.418   3.978  12.652  0.3585  0.1282  0.1925
   18DOPE   H5X 2283   3.421   4.088  12.667  2.0278  0.4735 -2.1300
   18DOPE   H5Y 2284   3.316   3.935  12.663  0.5582 -0.3962  0.0513
   18DOPE   C36 2285   3.466   3.942  12.503  0.2390  0.3163  0.2266
   18DOPE   H6X 2286   3.512   3.842  12.512 -1.9396 -0.6252  1.9818
   18DOPE   H6Y 2287   3.543   4.021  12.490  1.5028 -0.2130  3.4568
   18DOPE   C37 2288   3.348   3.937  12.404  0.5975  0.1565  0.3514
   18DOPE   H7X 2289   3.293   3.845  12.433  1.6013 -1.5621 -2.8093
   18DOPE   H7Y 2290   3.280   4.025  12.409  0.9936  0.6631 -2.0281
   18DOPE   C38 2291   3.387   3.908  12.260  0.7023  0.4878  0.5148
   18DOPE   H8X 2292   3.455   3.820  12.261  1.9227  1.3949 -0.0723
   18DOPE   H8Y 2293   3.445   3.992  12.217 -1.4045  0.2896 -3.0744
   18DOPE   C39 2294   3.258   3.882  12.182 -0.0976 -0.1852  0.0049
   18DOPE   H9X 2295   3.185   3.807  12.218  0.4549 -0.8479 -0.2357
   18DOPE  C310 2296   3.212   3.935  12.065  1.4001  0.4309  0.2024
   18DOPE  H10X 2297   3.109   3.906  12.042  0.1616  2.2323  3.0071
   18DOPE  C311 2298   3.274   4.023  11.959  0.1295 -0.5111 -0.1929
   18DOPE  H11X 2299   3.213   4.002  11.869 -0.8105 -0.3599  0.3969
   18DOPE  H11Y 2300   3.246   4.122  12.002  1.0674 -1.1614  2.0857
   18DOPE  C312 2301   3.416   4.008  11.933 -0.5054  0.7133  0.0960
   18DOPE  H12X 2302   3.429   3.898  11.930 -1.3057  0.6220 -0.5986
   18DOPE  H12Y 2303   3.483   4.060  12.004 -1.0493  1.8064 -0.1707
   18DOPE  C313 2304   3.456   4.066  11.789 -0.2190  0.2481 -0.4591
   18DOPE  H13X 2305   3.402   3.996  11.722  0.7089  0.6635 -1.6736
   18DOPE  H13Y 2306   3.409   4.167  11.782 -3.0837 -0.9728 -0.0551
   18DOPE  C314 2307   3.606   4.075  11.753 -0.0947 -0.0004 -0.2335
   18DOPE  H14X 2308   3.662   3.992  11.802 -1.1054 -2.1652 -2.5530
   18DOPE  H14Y 2309   3.632   4.181  11.776 -0.9433  0.4085 -1.1276
   18DOPE  C315 2310   3.616   4.048  11.609  0.1701 -0.1638 -0.2185
   18DOPE  H15X 2311   3.559   4.119  11.545 -0.4635 -0.2304  0.2629
   18DOPE  H15Y 2312   3.578   3.944  11.593  1.1890 -0.4488 -0.8744
   18DOPE  C316 2313   3.761   4.042  11.561  0.0233 -0.1405 -0.9422
   18DOPE  H16X 2314   3.824   3.979  11.626  0.5384  0.8742 -0.4245
   18DOPE  H16Y 2315   3.813   4.140  11.572 -0.5529  0.1587 -0.7995
   18DOPE  C317 2316   3.770   4.002  11.413  0.7596 -0.2865 -0.1031
   18DOPE  H17X 2317   3.715   3.907  11.395  1.5139 -0.5256 -1.2096
   18DOPE  H17Y 2318   3.719   4.086  11.361  3.4766  0.2281 -2.1489
   18DOPE  C318 2319   3.907   3.990  11.355 -0.2870 -0.4968 -0.4268
   18DOPE  H18X 2320   3.960   4.086  11.339  0.5821 -1.1770 -1.7789
   18DOPE  H18Y 2321   3.973   3.932  11.424 -0.7936  1.6858  2.0667
   18DOPE  H18Z 2322   3.909   3.942  11.255 -0.3924 -0.9467 -0.2142
   19DOPE     N 2323   3.026   4.422  14.115  0.1998 -0.1771  0.1220
   19DOPE   HN1 2324   2.924   4.441  14.129  0.1556  0.3109 -0.7603
   19DOPE   HN2 2325   3.079   4.493  14.168  1.9794  1.0663 -3.0629
   19DOPE   HN3 2326   3.042   4.445  14.015 -0.6127 -1.8977 -0.4399
   19DOPE   C12 2327   3.076   4.280  14.146  0.2043  0.3575 -0.1152
   19DOPE  H12A 2328   3.060   4.210  14.061  1.1933 -1.4615  1.1185
   19DOPE  H12B 2329   3.013   4.245  14.230 -2.0531  3.1261 -0.5236
   19DOPE   C11 2330   3.226   4.285  14.178 -0.6022  0.9319 -0.6295
   19DOPE  H11A 2331   3.271   4.187  14.202  1.0986  1.7727 -0.2391
   19DOPE  H11B 2332   3.235   4.340  14.274  0.4062  0.2949 -0.3454
   19DOPE     P 2333   3.434   4.306  14.017 -0.0290 -0.1415 -0.1362
   19DOPE   O13 2334   3.404   4.182  13.944 -0.5843 -0.3307 -0.2185
   19DOPE   O14 2335   3.540   4.291  14.122  0.3585 -0.4014  0.7515
   19DOPE   O11 2336   3.470   4.426  13.919  0.1401 -0.2528 -0.0994
   19DOPE   O12 2337   3.293   4.365  14.074  0.0455 -0.6603 -0.2397
   19DOPE    C1 2338   3.381   4.500  13.833 -0.0299  0.0743  0.0102
   19DOPE    HA 2339   3.410   4.604  13.856  0.1382 -0.9392  5.8509
   19DOPE    HB 2340   3.272   4.491  13.851 -0.4510 -0.2165 -2.3475
   19DOPE    C2 2341   3.404   4.458  13.681 -0.2327 -0.0615 -0.2283
   19DOPE    HS 2342   3.370   4.356  13.653 -0.7051 -0.0883  0.4144
   19DOPE   O21 2343   3.541   4.472  13.658 -0.5950 -0.8128  0.1761
   19DOPE   C21 2344   3.620   4.371  13.683  0.2001  0.5892 -0.2210
   19DOPE   O22 2345   3.580   4.260  13.713 -0.1939 -0.3569  0.2375
   19DOPE   C22 2346   3.764   4.417  13.659 -0.4751 -0.5372 -0.2473
   19DOPE   H2R 2347   3.819   4.389  13.751 -0.3505 -1.6880 -0.6509
   19DOPE   H2S 2348   3.756   4.525  13.634 -0.3389 -0.4904 -0.0940
   19DOPE    C3 2349   3.330   4.547  13.581  0.7260  0.1145 -0.3259
   19DOPE    HX 2350   3.382   4.643  13.600  1.0641 -0.0660 -0.3205
   19DOPE    HY 2351   3.226   4.556  13.618  1.0727 -1.9794  1.3709
   19DOPE   O31 2352   3.348   4.521  13.437  0.1598 -0.0642  0.5422
   19DOPE   C31 2353   3.276   4.427  13.390  0.9609  0.0461 -0.0232
   19DOPE   O32 2354   3.202   4.355  13.449  0.4213  0.1236  0.1520
   19DOPE   C32 2355   3.298   4.433  13.239  0.7133  0.2837 -0.6138
   19DOPE   H2X 2356   3.262   4.534  13.208 -2.2907 -0.8281 -1.0644
   19DOPE   H2Y 2357   3.407   4.430  13.217  0.8397 -1.5076  0.0903
   19DOPE   C23 2358   3.842   4.362  13.541 -0.0045 -0.2022 -0.2416
   19DOPE   H3R 2359   3.872   4.255  13.552  0.1776 -0.2277 -0.9528
   19DOPE   H3S 2360   3.933   4.425  13.542 -1.3804  2.0771  3.5477
   19DOPE   C24 2361   3.784   4.382  13.403  0.5636  0.1170 -0.1735
   19DOPE   H4R 2362   3.727   4.477  13.393  0.3159  0.1785  1.6321
   19DOPE   H4S 2363   3.707   4.303  13.397  0.9856 -0.2530 -0.9265
   19DOPE   C25 2364   3.869   4.339  13.284 -0.0314 -0.7185 -0.4264
   19DOPE   H5R 2365   3.918   4.241  13.304 -1.9003 -1.2135  2.2825
   19DOPE   H5S 2366   3.944   4.419  13.261 -2.5019  1.9502  0.2218
   19DOPE   C26 2367   3.779   4.335  13.165  0.1077 -1.1183 -1.0797
   19DOPE   H6R 2368   3.753   4.442  13.149 -2.2234 -0.6239  3.9778
   19DOPE   H6S 2369   3.687   4.279  13.187 -0.7683  0.1333 -1.4314
   19DOPE   C27 2370   3.838   4.263  13.042  0.3222 -0.3493 -0.0145
   19DOPE   H7R 2371   3.899   4.182  13.087  1.5204  0.7450  0.4200
   19DOPE   H7S 2372   3.915   4.331  12.999  0.5233  1.0585  2.3664
   19DOPE   C28 2373   3.735   4.208  12.946 -0.4983 -0.1183 -0.0138
   19DOPE   H8R 2374   3.647   4.275  12.936 -1.1133 -1.0739 -1.2511
   19DOPE   H8S 2375   3.701   4.114  12.994 -1.6808  1.3685  2.2595
   19DOPE   C29 2376   3.799   4.169  12.822 -0.9727 -0.1057  0.4968
   19DOPE   H9R 2377   3.881   4.097  12.838  0.9463  1.6552 -0.8210
   19DOPE  C210 2378   3.788   4.238  12.708 -0.7021  0.1798  0.2447
   19DOPE  H10R 2379   3.850   4.214  12.620 -1.8343 -1.3961 -0.1783
   19DOPE  C211 2380   3.677   4.343  12.674  0.5016 -0.0744  0.3349
   19DOPE  H11R 2381   3.715   4.444  12.651 -1.5869  0.6688 -0.0495
   19DOPE  H11S 2382   3.609   4.372  12.757  1.3727  2.7097  0.1662
   19DOPE  C212 2383   3.598   4.302  12.550  0.1324  0.0597  0.0987
   19DOPE  H12R 2384   3.528   4.384  12.526  2.4051  2.1389  0.2195
   19DOPE  H12S 2385   3.537   4.211  12.569 -0.0395  0.0158 -0.6372
   19DOPE  C213 2386   3.686   4.279  12.423  0.2552 -0.0981 -0.5933
   19DOPE  H13R 2387   3.743   4.185  12.436  1.0524  0.2288 -1.6059
   19DOPE  H13S 2388   3.750   4.369  12.420 -0.9886  0.9788  2.1964
   19DOPE  C214 2389   3.605   4.275  12.298 -0.1557 -0.6063 -0.8109
   19DOPE  H14R 2390   3.564   4.373  12.265 -1.5217 -1.3568 -1.3710
   19DOPE  H14S 2391   3.532   4.192  12.304  1.3705 -1.8930  1.9003
   19DOPE  C215 2392   3.703   4.244  12.176 -0.0139  0.5328 -0.0958
   19DOPE  H15R 2393   3.636   4.249  12.087 -0.0137 -0.8971 -0.1865
   19DOPE  H15S 2394   3.737   4.139  12.177 -0.2620  0.4529  0.4343
   19DOPE  C216 2395   3.805   4.354  12.159 -0.2464 -0.3229 -0.0855
   19DOPE  H16R 2396   3.860   4.344  12.255 -2.9820 -0.8635  1.5313
   19DOPE  H16S 2397   3.760   4.454  12.173  1.1855  0.2968  0.2157
   19DOPE  C217 2398   3.889   4.342  12.028  0.4999 -0.5343 -0.7357
   19DOPE  H17R 2399   3.906   4.233  12.014 -2.8241 -1.5336  1.7566
   19DOPE  H17S 2400   3.991   4.383  12.042  1.3317 -2.9221  0.8176
   19DOPE  C218 2401   3.816   4.394  11.905 -0.6818 -0.5938  0.0680
   19DOPE  H18R 2402   3.818   4.505  11.909  0.1795 -0.5707 -0.7626
   19DOPE  H18S 2403   3.714   4.349  11.899 -0.5596 -0.7032 -1.7102
   19DOPE  H18T 2404   3.867   4.360  11.813  1.2244 -2.1301  1.5985
   19DOPE   C33 2405   3.211   4.322  13.161  0.6510 -0.2089 -0.7016
   19DOPE   H3X 2406   3.103   4.344  13.171  1.0973  1.4001  1.1877
   19DOPE   H3Y 2407   3.230   4.227  13.214 -1.8913 -1.9338 -2.6494
   19DOPE   C34 2408   3.255   4.324  13.009  0.0615  0.4395 -0.4929
   19DOPE   H4X 2409   3.364   4.303  13.007  0.2054  1.1661 -0.5580
   19DOPE   H4Y 2410   3.198   4.244  12.957 -0.8573  1.2665 -0.8073
   19DOPE   C35 2411   3.217   4.457  12.942 -0.0614  0.5546 -0.3811
   19DOPE   H5X 2412   3.297   4.528  12.971 -0.3993  0.9468 -0.4153
   19DOPE   H5Y 2413   3.114   4.486  12.970  0.6639  0.0339  3.4130
   19DOPE   C36 2414   3.221   4.465  12.784 -0.0829  0.9858 -0.0483
   19DOPE   H6X 2415   3.328   4.457  12.754  0.4466  1.8975  1.4526
   19DOPE   H6Y 2416   3.191   4.567  12.753  1.2774  1.2651 -0.5058
   19DOPE   C37 2417   3.125   4.365  12.708  0.4335  0.9366 -0.5233
   19DOPE   H7X 2418   3.165   4.264  12.731 -1.7136 -0.1285 -1.1432
   19DOPE   H7Y 2419   3.027   4.363  12.760 -1.0593  0.5285 -3.1777
   19DOPE   C38 2420   3.098   4.399  12.560 -0.0903 -0.6599  0.4633
   19DOPE   H8X 2421   3.086   4.509  12.548 -0.5676 -0.8446 -1.0355
   19DOPE   H8Y 2422   2.996   4.361  12.539 -0.6233  0.9021  0.0754
   19DOPE   C39 2423   3.195   4.338  12.461  0.2227  0.5445  0.2651
   19DOPE   H9X 2424   3.259   4.259  12.504 -0.0560  1.4130  2.3892
   19DOPE  C310 2425   3.211   4.381  12.338  1.0577  0.3666 -0.2420
   19DOPE  H10X 2426   3.269   4.318  12.269  1.1187 -1.3660  1.3183
   19DOPE  C311 2427   3.144   4.500  12.286 -0.2577 -0.4311  0.1530
   19DOPE  H11X 2428   3.040   4.512  12.322  0.4601  0.7507  2.0117
   19DOPE  H11Y 2429   3.201   4.590  12.318 -0.1525 -0.3227 -0.3298
   19DOPE  C312 2430   3.130   4.500  12.132  0.7612  0.1073  0.2433
   19DOPE  H12X 2431   3.063   4.585  12.108  1.1742  1.2111  2.6781
   19DOPE  H12Y 2432   3.073   4.412  12.095  2.6913 -1.4040  0.6538
   19DOPE  C313 2433   3.253   4.501  12.048 -0.0748 -1.0072  0.2363
   19DOPE  H13X 2434   3.320   4.581  12.085 -1.0521 -0.4553  0.8325
   19DOPE  H13Y 2435   3.297   4.399  12.044  2.3856 -0.0366  0.3790
   19DOPE  C314 2436   3.243   4.539  11.900 -0.0245  0.3467  0.2801
   19DOPE  H14X 2437   3.208   4.644  11.887  1.4868  0.6327 -2.2596
   19DOPE  H14Y 2438   3.170   4.474  11.847 -0.5668  0.8857  0.3493
   19DOPE  C315 2439   3.376   4.517  11.813  0.2882  0.5909 -0.5785
   19DOPE  H15X 2440   3.380   4.408  11.791 -1.4598  0.9420 -2.8860
   19DOPE  H15Y 2441   3.464   4.549  11.873 -0.4030 -0.2956  0.9665
   19DOPE  C316 2442   3.380   4.597  11.686  0.2220 -0.1183  0.6775
   19DOPE  H16X 2443   3.365   4.704  11.709  1.1169  0.0664  0.4220
   19DOPE  H16Y 2444   3.290   4.562  11.630 -0.1777 -0.1521  1.3323
   19DOPE  C317 2445   3.512   4.569  11.611  0.0619  0.0555  0.2795
   19DOPE  H17X 2446   3.600   4.559  11.678  1.0292 -1.2439 -1.1145
   19DOPE  H17Y 2447   3.501   4.468  11.565 -2.4735  0.7387 -0.7857
   19DOPE  C318 2448   3.539   4.656  11.491 -0.4329 -0.2652  0.1785
   19DOPE  H18X 2449   3.443   4.660  11.434  0.3743 -1.3594 -1.3127
   19DOPE  H18Y 2450   3.568   4.761  11.513 -0.4637  0.0354 -1.1147
   19DOPE  H18Z 2451   3.627   4.614  11.439 -0.5679  0.7485 -0.9379
   20DOPE     N 2452   3.701   0.456  13.340 -0.0924 -0.5065  0.6599
   20DOPE   HN1 2453   3.723   0.515  13.257  0.1882  1.3082  1.9804
   20DOPE   HN2 2454   3.655   0.520  13.408 -0.8751  0.2127 -0.4994
   20DOPE   HN3 2455   3.791   0.415  13.372 -0.1618 -2.4963 -1.4139
   20DOPE   C12 2456   3.598   0.347  13.304 -0.6139 -0.0630  0.2998
   20DOPE  H12A 2457   3.580   0.291  13.398 -1.1490 -1.4861 -0.6170
   20DOPE  H12B 2458   3.651   0.279  13.233  2.3526 -0.5743  2.7876
   20DOPE   C11 2459   3.470   0.411  13.243 -0.1238 -0.4726  0.4551
   20DOPE  H11A 2460   3.401   0.329  13.212 -1.9127  0.9826  0.3964
   20DOPE  H11B 2461   3.502   0.469  13.154  1.1548 -0.4614  0.8979
   20DOPE     P 2462   3.283   0.439  13.416 -0.0146  0.3593 -0.9279
   20DOPE   O13 2463   3.241   0.542  13.510  0.3157  1.0109 -0.0606
   20DOPE   O14 2464   3.333   0.313  13.479 -0.6760 -0.0400 -0.3585
   20DOPE   O11 2465   3.163   0.412  13.313 -0.6984 -0.4710  0.1188
   20DOPE   O12 2466   3.408   0.497  13.338  0.2975 -0.0093  0.0865
   20DOPE    C1 2467   3.153   0.481  13.192  0.7493 -0.4821 -0.0343
   20DOPE    HA 2468   3.110   0.412  13.117  2.1613  0.3649 -1.6998
   20DOPE    HB 2469   3.248   0.527  13.156 -0.3428  1.6260 -0.4026
   20DOPE    C2 2470   3.063   0.611  13.225 -0.0801  0.2764 -0.0915
   20DOPE    HS 2471   3.089   0.649  13.326  2.1311  1.4598 -1.0404
   20DOPE   O21 2472   2.924   0.579  13.205  0.3807 -0.1707 -0.3197
   20DOPE   C21 2473   2.833   0.667  13.249  0.0860 -0.5393  0.6305
   20DOPE   O22 2474   2.860   0.753  13.334 -0.8894  0.3272  0.1058
   20DOPE   C22 2475   2.693   0.639  13.204 -0.7979  0.1766  0.8832
   20DOPE   H2R 2476   2.643   0.592  13.291 -0.9919  1.3061  1.4019
   20DOPE   H2S 2477   2.700   0.565  13.122  0.5019  1.7643 -0.5124
   20DOPE    C3 2478   3.100   0.731  13.133  0.2714  0.0199  0.0586
   20DOPE    HX 2479   3.210   0.745  13.136  0.1541  0.8927  1.1459
   20DOPE    HY 2480   3.056   0.824  13.176 -1.5658 -1.5476  1.7603
   20DOPE   O31 2481   3.063   0.711  12.997 -0.5604  0.1044 -0.0977
   20DOPE   C31 2482   3.065   0.820  12.918  0.5453  0.4691  0.3974
   20DOPE   O32 2483   3.106   0.929  12.957  0.0831 -0.4422  0.0968
   20DOPE   C32 2484   3.001   0.787  12.776  0.5831  1.0241  0.0317
   20DOPE   H2X 2485   2.903   0.742  12.803  1.6369 -0.3603  1.7891
   20DOPE   H2Y 2486   2.969   0.880  12.724 -0.6499  0.4854 -0.2254
   20DOPE   C23 2487   2.615   0.764  13.159 -0.6163 -0.1069 -0.1780
   20DOPE   H3R 2488   2.608   0.834  13.245  0.1149  1.1970 -1.1523
   20DOPE   H3S 2489   2.508   0.742  13.140 -1.2697  0.2506  2.5835
   20DOPE   C24 2490   2.672   0.840  13.041  0.3264 -0.3512  0.0947
   20DOPE   H4R 2491   2.686   0.759  12.966  3.5767 -1.0459  1.2802
   20DOPE   H4S 2492   2.775   0.874  13.065  0.0380  1.1090 -0.6393
   20DOPE   C25 2493   2.577   0.957  12.985  0.1716  0.7291 -0.3844
   20DOPE   H5R 2494   2.586   1.047  13.049 -1.1712  1.8367 -1.6642
   20DOPE   H5S 2495   2.473   0.918  12.990  1.0244 -1.6412  0.1587
   20DOPE   C26 2496   2.598   0.988  12.837 -0.6300 -0.3627  0.0720
   20DOPE   H6R 2497   2.703   0.974  12.803 -0.6250  0.4480 -0.2548
   20DOPE   H6S 2498   2.561   1.091  12.821 -0.5711 -0.5072 -1.1126
   20DOPE   C27 2499   2.515   0.894  12.750 -0.0444  0.2276  0.2355
   20DOPE   H7R 2500   2.406   0.910  12.765 -0.4940  1.1937 -3.1528
   20DOPE   H7S 2501   2.537   0.789  12.781  1.6771  0.0812 -1.3154
   20DOPE   C28 2502   2.540   0.916  12.603 -0.0039  0.3805 -0.5295
   20DOPE   H8R 2503   2.642   0.884  12.571  0.8028  1.9381  0.3576
   20DOPE   H8S 2504   2.534   1.025  12.582 -0.4990  0.7096  1.1875
   20DOPE   C29 2505   2.438   0.840  12.521  0.0516  0.2032  0.4125
   20DOPE   H9R 2506   2.334   0.873  12.517 -0.1068 -0.3771 -2.6514
   20DOPE  C210 2507   2.459   0.722  12.455  0.7907 -0.1947 -0.9072
   20DOPE  H10R 2508   2.372   0.689  12.397  1.5014  0.4345 -2.3823
   20DOPE  C211 2509   2.581   0.635  12.446 -0.3692  0.4699 -0.2265
   20DOPE  H11R 2510   2.551   0.528  12.445 -0.5262  0.4769 -2.5087
   20DOPE  H11S 2511   2.651   0.656  12.529 -1.7548  0.0356  1.0823
   20DOPE  C212 2512   2.669   0.656  12.314 -0.0382  0.2243  0.2073
   20DOPE  H12R 2513   2.764   0.598  12.314 -0.6649 -0.9034 -1.9062
   20DOPE  H12S 2514   2.688   0.765  12.311 -2.1317  0.6679  1.2764
   20DOPE  C213 2515   2.600   0.620  12.184 -0.6275  0.3806 -0.2204
   20DOPE  H13R 2516   2.501   0.669  12.173  0.1665  1.9435 -0.6506
   20DOPE  H13S 2517   2.586   0.512  12.161  0.5488  0.8546 -3.7650
   20DOPE  C214 2518   2.687   0.666  12.068 -1.2641 -0.4186  0.7263
   20DOPE  H14R 2519   2.781   0.611  12.088 -0.5478  0.0303 -1.1772
   20DOPE  H14S 2520   2.710   0.775  12.072 -0.6886 -0.5486  0.9793
   20DOPE  C215 2521   2.639   0.605  11.934 -0.2200 -0.1667  0.7501
   20DOPE  H15R 2522   2.535   0.637  11.912 -0.0590  1.3290  1.9388
   20DOPE  H15S 2523   2.641   0.495  11.927  1.1390 -0.0353 -2.3361
   20DOPE  C216 2524   2.717   0.646  11.810 -0.3953 -1.2065  1.3914
   20DOPE  H16R 2525   2.688   0.747  11.774 -0.0648 -1.8683 -0.9055
   20DOPE  H16S 2526   2.681   0.580  11.729 -2.2125  2.9011 -1.5034
   20DOPE  C217 2527   2.867   0.637  11.816  0.0134 -0.5769 -0.5886
   20DOPE  H17R 2528   2.907   0.542  11.858  2.6739  0.9884  0.7510
   20DOPE  H17S 2529   2.899   0.716  11.888 -1.2585 -0.5536 -0.0372
   20DOPE  C218 2530   2.932   0.670  11.682 -0.2426 -0.0456 -0.1180
   20DOPE  H18R 2531   2.882   0.611  11.602  1.3891  1.1144 -2.0926
   20DOPE  H18S 2532   3.039   0.642  11.682  0.4821  2.4462 -0.1593
   20DOPE  H18T 2533   2.921   0.778  11.659 -2.5338 -0.4394 -1.1440
   20DOPE   C33 2534   3.082   0.700  12.684 -0.5331 -0.1407  0.0744
   20DOPE   H3X 2535   3.116   0.605  12.731  0.4728  0.1889  0.0318
   20DOPE   H3Y 2536   3.175   0.759  12.667 -0.2287 -0.3851  0.8138
   20DOPE   C34 2537   3.014   0.678  12.553  0.6010  0.2399 -0.4232
   20DOPE   H4X 2538   2.937   0.600  12.571  0.5019  0.5836  0.7319
   20DOPE   H4Y 2539   2.954   0.769  12.533  0.7561  0.2821 -0.7027
   20DOPE   C35 2540   3.106   0.644  12.447 -0.3599 -0.9192  0.4673
   20DOPE   H5X 2541   3.161   0.553  12.479  0.2410 -0.6214  0.2995
   20DOPE   H5Y 2542   3.185   0.722  12.441 -0.4928 -0.8019  0.1973
   20DOPE   C36 2543   3.055   0.614  12.299  0.7420 -0.4680 -0.3162
   20DOPE   H6X 2544   2.981   0.688  12.262  0.2606 -0.9927 -0.4150
   20DOPE   H6Y 2545   3.001   0.517  12.304  2.5233 -1.4401  1.8539
   20DOPE   C37 2546   3.166   0.606  12.187 -0.2308 -0.5561 -0.2273
   20DOPE   H7X 2547   3.192   0.708  12.153 -1.6330  0.0087  0.2953
   20DOPE   H7Y 2548   3.255   0.576  12.246  0.8160  1.8926 -0.4590
   20DOPE   C38 2549   3.122   0.503  12.080 -0.3179  0.5732 -1.0604
   20DOPE   H8X 2550   3.013   0.501  12.058 -0.2079  0.6143 -1.6084
   20DOPE   H8Y 2551   3.130   0.412  12.144 -2.5777  1.4886  0.6672
   20DOPE   C39 2552   3.202   0.501  11.951 -0.6305 -0.2829 -0.6512
   20DOPE   H9X 2553   3.207   0.602  11.909 -1.6234  0.2706  0.4908
   20DOPE  C310 2554   3.261   0.398  11.897 -0.0682 -0.9536 -0.1142
   20DOPE  H10X 2555   3.327   0.419  11.812  1.1700 -0.8905  0.8405
   20DOPE  C311 2556   3.245   0.259  11.946 -0.1405  0.0957  0.5944
   20DOPE  H11X 2557   3.332   0.212  11.996  1.3968  0.5445 -1.5066
   20DOPE  H11Y 2558   3.167   0.242  12.024 -0.7189 -1.3385 -0.2640
   20DOPE  C312 2559   3.198   0.166  11.828  0.3989 -0.3375  0.0414
   20DOPE  H12X 2560   3.280   0.169  11.754  0.6151 -0.7290  0.2637
   20DOPE  H12Y 2561   3.107   0.206  11.778 -0.0441  1.9725  2.5006
   20DOPE  C313 2562   3.174   0.021  11.849 -0.1075  0.1579  0.0987
   20DOPE  H13X 2563   3.086   0.012  11.916  0.1753  0.1265  0.4684
   20DOPE  H13Y 2564   3.143  -0.019  11.751  1.3635  2.3513 -1.3653
   20DOPE  C314 2565   3.298  -0.051  11.913  0.4825  0.1929 -0.2150
   20DOPE  H14X 2566   3.308  -0.014  12.017 -0.9305 -0.1847  0.0741
   20DOPE  H14Y 2567   3.383  -0.036  11.843 -0.6632  1.2451 -1.4340
   20DOPE  C315 2568   3.268  -0.205  11.923  0.0059 -0.5159  0.2227
   20DOPE  H15X 2569   3.241  -0.242  11.821 -0.4130 -0.0630  0.1654
   20DOPE  H15Y 2570   3.175  -0.210  11.983 -0.2221 -1.6580 -0.1838
   20DOPE  C316 2571   3.383  -0.286  11.986  0.5988 -0.5079  0.2268
   20DOPE  H16X 2572   3.375  -0.272  12.096  3.5313  3.7579  0.1541
   20DOPE  H16Y 2573   3.480  -0.246  11.951 -0.0077  0.6170 -0.2549
   20DOPE  C317 2574   3.373  -0.433  11.944 -0.3442  0.4205 -0.2579
   20DOPE  H17X 2575   3.291  -0.478  12.003  0.7834  0.9685  1.8299
   20DOPE  H17Y 2576   3.335  -0.440  11.840 -1.2146  1.5194 -0.0312
   20DOPE  C318 2577   3.510  -0.506  11.980 -0.3717 -0.6295  0.6765
   20DOPE  H18X 2578   3.538  -0.473  12.082  1.6064 -1.3953  0.4236
   20DOPE  H18Y 2579   3.503  -0.617  11.978 -1.3838 -0.5756  0.5118
   20DOPE  H18Z 2580   3.578  -0.472  11.898 -1.4772  2.2908  0.8394
   21DOPE     N 2581   6.565   1.164  13.234  0.1473 -0.3609  0.6393
   21DOPE   HN1 2582   6.554   1.065  13.265 -2.6307  0.0642  1.2364
   21DOPE   HN2 2583   6.665   1.185  13.253  0.4457  0.3209 -1.4224
   21DOPE   HN3 2584   6.508   1.223  13.298 -0.9512 -0.6152 -0.0705
   21DOPE   C12 2585   6.508   1.173  13.094 -0.0713 -0.8203 -0.1695
   21DOPE  H12A 2586   6.509   1.277  13.054  3.1610 -0.8408 -0.4244
   21DOPE  H12B 2587   6.406   1.130  13.103 -0.0122 -0.6991  1.4032
   21DOPE   C11 2588   6.597   1.095  12.993 -0.0177 -0.0344  0.1165
   21DOPE  H11A 2589   6.696   1.145  12.986  0.9519 -2.0684 -3.1195
   21DOPE  H11B 2590   6.558   1.107  12.889 -1.1238  3.5897  0.7993
   21DOPE     P 2591   6.499   0.859  12.992 -0.1349  0.7365 -0.3948
   21DOPE   O13 2592   6.369   0.928  12.979  0.0793 -0.4124 -0.2417
   21DOPE   O14 2593   6.499   0.752  13.096 -0.5774  0.9362  0.5638
   21DOPE   O11 2594   6.534   0.798  12.855 -0.2474 -0.1276 -0.6891
   21DOPE   O12 2595   6.619   0.962  13.028 -0.2850  0.0398  0.3823
   21DOPE    C1 2596   6.670   0.763  12.818 -0.1768 -0.1412  0.7627
   21DOPE    HA 2597   6.715   0.699  12.896  0.0310 -0.5134  0.3386
   21DOPE    HB 2598   6.731   0.856  12.816 -1.0958  0.4689 -0.6541
   21DOPE    C2 2599   6.684   0.687  12.684 -0.7760 -0.6293  0.2012
   21DOPE    HS 2600   6.790   0.654  12.678 -0.5820  0.0228 -0.0476
   21DOPE   O21 2601   6.671   0.782  12.575  0.3436 -0.1174 -0.0305
   21DOPE   C21 2602   6.781   0.855  12.546  0.4523  0.8277 -0.0697
   21DOPE   O22 2603   6.891   0.832  12.589  0.2993  0.0892 -0.0235
   21DOPE   C22 2604   6.752   0.948  12.429  0.1661 -0.5698 -0.3535
   21DOPE   H2R 2605   6.837   1.020  12.430  1.4469 -1.8527  3.9177
   21DOPE   H2S 2606   6.656   0.999  12.452 -0.1058 -2.2704  2.9015
   21DOPE    C3 2607   6.578   0.574  12.675  0.0206 -0.0057  0.2382
   21DOPE    HX 2608   6.480   0.619  12.703 -0.4890  0.2894 -1.8429
   21DOPE    HY 2609   6.611   0.487  12.736  3.1809 -0.8840 -2.4491
   21DOPE   O31 2610   6.579   0.522  12.537 -0.7698  0.5000 -0.5345
   21DOPE   C31 2611   6.487   0.571  12.458 -0.0182 -0.1756 -0.2075
   21DOPE   O32 2612   6.406   0.658  12.489  0.8159  0.7928  0.0753
   21DOPE   C32 2613   6.502   0.507  12.318 -0.6953  0.8286 -0.8222
   21DOPE   H2X 2614   6.602   0.543  12.286 -0.0410 -1.5680 -1.6571
   21DOPE   H2Y 2615   6.503   0.396  12.326 -1.1636  0.9308  1.2528
   21DOPE   C23 2616   6.739   0.879  12.294  0.2487  0.2100  1.1778
   21DOPE   H3R 2617   6.663   0.798  12.296 -0.5157  0.5493 -3.2839
   21DOPE   H3S 2618   6.833   0.829  12.261 -1.9070 -1.7009 -2.7657
   21DOPE   C24 2619   6.705   0.970  12.177 -0.6500 -0.2607  0.5070
   21DOPE   H4R 2620   6.799   1.025  12.158 -0.4756 -0.8308 -0.3230
   21DOPE   H4S 2621   6.619   1.036  12.201 -1.6821 -1.1278 -0.6644
   21DOPE   C25 2622   6.669   0.891  12.048  0.2863 -0.4874  0.0136
   21DOPE   H5R 2623   6.593   0.817  12.081 -0.1033 -0.4090 -0.6831
   21DOPE   H5S 2624   6.756   0.834  12.009  0.0722  0.7255 -2.4495
   21DOPE   C26 2625   6.615   0.993  11.949  0.3033  0.1865  0.1767
   21DOPE   H6R 2626   6.546   1.059  12.005 -1.0937 -1.4526  0.5053
   21DOPE   H6S 2627   6.559   0.942  11.867  1.7140  0.4632 -1.0079
   21DOPE   C27 2628   6.722   1.072  11.884  0.3435 -0.7443 -0.1389
   21DOPE   H7R 2629   6.808   1.007  11.857 -0.3351 -1.9990  0.6184
   21DOPE   H7S 2630   6.776   1.143  11.950  0.1820 -0.6319 -0.1267
   21DOPE   C28 2631   6.680   1.161  11.757  0.4332  0.2575  0.2249
   21DOPE   H8R 2632   6.773   1.202  11.715  0.3438  1.5842  1.2622
   21DOPE   H8S 2633   6.614   1.242  11.795 -2.1279 -1.2313 -0.7332
   21DOPE   C29 2634   6.604   1.082  11.654  0.3375 -0.0682  0.2828
   21DOPE   H9R 2635   6.513   1.030  11.689  0.8106 -2.2988 -1.6273
   21DOPE  C210 2636   6.632   1.081  11.521 -0.1399  0.0443 -0.1823
   21DOPE  H10R 2637   6.555   1.037  11.457  0.2689  0.1336 -0.7370
   21DOPE  C211 2638   6.735   1.153  11.443 -0.8313  0.1962 -0.0793
   21DOPE  H11R 2639   6.737   1.264  11.455 -0.6680  0.2757 -0.7535
   21DOPE  H11S 2640   6.711   1.132  11.336  0.2648  0.1939 -0.3375
   21DOPE  C212 2641   6.875   1.098  11.471 -0.3579  0.3863 -0.2949
   21DOPE  H12R 2642   6.894   0.991  11.448  2.5798  1.0329 -1.3693
   21DOPE  H12S 2643   6.900   1.122  11.577 -0.5948  1.4922 -0.4848
   21DOPE  C213 2644   6.979   1.164  11.383  0.4364  0.5275  0.2056
   21DOPE  H13R 2645   7.082   1.132  11.410  0.6128 -0.3371 -1.3971
   21DOPE  H13S 2646   6.974   1.275  11.395  1.9766  0.8231 -1.4642
   21DOPE  C214 2647   6.956   1.113  11.236  0.4596  0.4210  0.3936
   21DOPE  H14R 2648   6.881   1.031  11.230  1.8094 -0.8014 -0.8905
   21DOPE  H14S 2649   7.041   1.062  11.185 -1.6662 -3.9476  0.7821
   21DOPE  C215 2650   6.910   1.236  11.146 -0.1373  0.7470 -0.4760
   21DOPE  H15R 2651   6.991   1.312  11.150 -0.2217  0.8357 -0.4525
   21DOPE  H15S 2652   6.817   1.280  11.186 -1.9585 -3.0310 -0.0980
   21DOPE  C216 2653   6.879   1.212  10.998  1.1912  0.0046 -0.4679
   21DOPE  H16R 2654   6.772   1.193  10.975  1.1062 -1.4891  0.9975
   21DOPE  H16S 2655   6.932   1.121  10.963  1.7940  0.3954 -0.5788
   21DOPE  C217 2656   6.924   1.321  10.899  0.5353 -0.4587  0.0311
   21DOPE  H17R 2657   6.874   1.322  10.800 -1.8344 -0.0604  1.1607
   21DOPE  H17S 2658   7.030   1.309  10.868  0.7930  0.2041  0.6170
   21DOPE  C218 2659   6.915   1.470  10.939  0.5121  0.2922  0.9632
   21DOPE  H18R 2660   6.981   1.491  11.025  0.7819  0.8054  0.6360
   21DOPE  H18S 2661   6.810   1.492  10.967 -0.1972 -1.0253 -0.4818
   21DOPE  H18T 2662   6.919   1.538  10.851 -3.0254 -2.8065 -1.9688
   21DOPE   C33 2663   6.392   0.551  12.220  0.0843 -0.3298 -0.2227
   21DOPE   H3X 2664   6.378   0.659  12.239 -0.7067 -0.6847  1.4534
   21DOPE   H3Y 2665   6.303   0.489  12.247  0.8442 -1.2063  0.3399
   21DOPE   C34 2666   6.429   0.527  12.074 -0.4014  0.1007  0.6903
   21DOPE   H4X 2667   6.525   0.581  12.059 -0.8661  0.4428 -1.3590
   21DOPE   H4Y 2668   6.447   0.420  12.052 -0.7915  0.1654  0.0291
   21DOPE   C35 2669   6.319   0.556  11.972 -0.1591  0.0262 -0.8456
   21DOPE   H5X 2670   6.283   0.658  11.994  1.0473 -0.0432  1.8293
   21DOPE   H5Y 2671   6.238   0.480  11.979 -0.0224 -0.1298 -0.9306
   21DOPE   C36 2672   6.369   0.549  11.829 -0.3298  0.0494 -0.3632
   21DOPE   H6X 2673   6.398   0.443  11.814  1.0901  0.6056 -1.8977
   21DOPE   H6Y 2674   6.460   0.614  11.826  0.1315 -0.5179  0.8597
   21DOPE   C37 2675   6.280   0.582  11.712 -1.1655 -0.3562  0.4783
   21DOPE   H7X 2676   6.192   0.517  11.698 -1.7906  0.4208  0.7437
   21DOPE   H7Y 2677   6.241   0.685  11.727  1.4053  0.8498 -0.5318
   21DOPE   C38 2678   6.367   0.592  11.578  0.7305  0.4689 -0.1594
   21DOPE   H8X 2679   6.410   0.490  11.563 -1.6686 -0.4735 -1.1108
   21DOPE   H8Y 2680   6.452   0.662  11.592 -0.0268  0.9736  2.4582
   21DOPE   C39 2681   6.282   0.624  11.451 -0.3348  0.4103  0.0344
   21DOPE   H9X 2682   6.182   0.578  11.442 -1.0200  2.0046 -1.0218
   21DOPE  C310 2683   6.329   0.705  11.348  0.1370  1.1230  0.1976
   21DOPE  H10X 2684   6.262   0.717  11.261 -2.1582 -1.9261  1.3403
   21DOPE  C311 2685   6.463   0.771  11.346 -0.2132  0.2458 -0.4093
   21DOPE  H11X 2686   6.441   0.879  11.332 -1.0963 -0.1009 -1.8866
   21DOPE  H11Y 2687   6.522   0.757  11.439  0.4860  1.0393 -0.7219
   21DOPE  C312 2688   6.567   0.732  11.235 -0.5093  0.6143  0.3414
   21DOPE  H12X 2689   6.515   0.703  11.141  0.2856  0.2833 -0.0062
   21DOPE  H12Y 2690   6.615   0.645  11.284 -1.1805  0.3107  0.4565
   21DOPE  C313 2691   6.676   0.834  11.196 -0.3997 -0.3697  0.3880
   21DOPE  H13X 2692   6.628   0.931  11.170 -1.9703 -1.3525 -0.5835
   21DOPE  H13Y 2693   6.739   0.858  11.284  0.3660  0.0535 -0.2651
   21DOPE  C314 2694   6.761   0.778  11.088 -0.0933  0.0612 -0.2950
   21DOPE  H14X 2695   6.801   0.856  11.020 -1.0488  0.4988 -0.3693
   21DOPE  H14Y 2696   6.705   0.706  11.024 -1.4845  1.5398 -0.8120
   21DOPE  C315 2697   6.876   0.705  11.153 -0.0818  0.3597  0.0197
   21DOPE  H15X 2698   6.840   0.616  11.211 -1.3622  3.0256  3.7164
   21DOPE  H15Y 2699   6.930   0.770  11.225  2.1861 -1.0405 -0.2882
   21DOPE  C316 2700   6.989   0.658  11.058  0.6379  0.3806  0.0184
   21DOPE  H16X 2701   7.077   0.623  11.116  1.0874 -0.2200 -0.9925
   21DOPE  H16Y 2702   7.015   0.759  11.020 -1.6439  1.0687  0.1307
   21DOPE  C317 2703   6.959   0.575  10.938 -0.2220 -0.1638  1.0408
   21DOPE  H17X 2704   6.934   0.474  10.977 -0.5829  0.1805  1.7403
   21DOPE  H17Y 2705   6.874   0.616  10.880  1.3423  1.4961 -0.2062
   21DOPE  C318 2706   7.081   0.567  10.842 -0.2125 -0.7966 -0.3908
   21DOPE  H18X 2707   7.070   0.499  10.755  1.5708  0.2543 -1.4942
   21DOPE  H18Y 2708   7.109   0.669  10.808  1.0009 -0.3133  1.8385
   21DOPE  H18Z 2709   7.170   0.535  10.900  0.4481  1.2882 -0.1694
   22DOPE     N 2710   3.711   5.164  14.421  0.0261 -0.9587  0.0739
   22DOPE   HN1 2711   3.711   5.150  14.524 -3.2686 -0.9617  0.1619
   22DOPE   HN2 2712   3.613   5.174  14.389 -0.2347 -3.0377  0.0380
   22DOPE   HN3 2713   3.741   5.073  14.379  0.9755 -0.7318  0.2364
   22DOPE   C12 2714   3.795   5.282  14.362  0.3685 -0.9719 -0.2412
   22DOPE  H12A 2715   3.903   5.259  14.374  0.8347  0.3681 -1.5623
   22DOPE  H12B 2716   3.766   5.367  14.427 -1.2523 -0.8871 -1.0371
   22DOPE   C11 2717   3.745   5.306  14.218 -0.2820  0.2221 -0.0356
   22DOPE  H11A 2718   3.752   5.207  14.167  0.7461  0.0848  0.3349
   22DOPE  H11B 2719   3.814   5.369  14.159 -1.5194  0.5300 -1.1940
   22DOPE     P 2720   3.482   5.310  14.206 -0.1386 -0.5148  0.0265
   22DOPE   O13 2721   3.390   5.424  14.195  0.2067 -0.1601  0.0915
   22DOPE   O14 2722   3.468   5.224  14.325  0.6252 -0.9458  1.0078
   22DOPE   O11 2723   3.489   5.233  14.070  0.0026  0.7038 -0.6057
   22DOPE   O12 2724   3.626   5.377  14.209  1.0586  0.5137  0.1159
   22DOPE    C1 2725   3.533   5.298  13.958  0.5704 -0.0062  0.0048
   22DOPE    HA 2726   3.642   5.285  13.939  0.7332  0.6040  0.4889
   22DOPE    HB 2727   3.497   5.403  13.958  0.6642  0.0449  1.5129
   22DOPE    C2 2728   3.468   5.229  13.831  0.5230 -0.3108  0.1541
   22DOPE    HS 2729   3.367   5.203  13.869  1.2529 -1.9365  1.1036
   22DOPE   O21 2730   3.552   5.116  13.800 -0.0862  0.0431 -0.3279
   22DOPE   C21 2731   3.482   5.014  13.753 -0.0428  0.2022  0.4723
   22DOPE   O22 2732   3.364   5.009  13.737  0.8852  0.2371 -0.0432
   22DOPE   C22 2733   3.574   4.897  13.712  0.3013  0.4750  0.7390
   22DOPE   H2R 2734   3.519   4.801  13.721  2.5069 -1.1281 -1.4987
   22DOPE   H2S 2735   3.650   4.882  13.791  0.5766 -3.9077 -0.0747
   22DOPE    C3 2736   3.449   5.317  13.701 -0.5022 -0.6403 -0.2236
   22DOPE    HX 2737   3.549   5.357  13.673 -0.0332 -0.0174  2.0853
   22DOPE    HY 2738   3.390   5.406  13.734  0.9094 -0.4858  2.0736
   22DOPE   O31 2739   3.406   5.249  13.583  0.2226  0.1142  0.3676
   22DOPE   C31 2740   3.274   5.254  13.558 -0.1019 -0.2933 -0.0639
   22DOPE   O32 2741   3.194   5.303  13.640 -0.4839  0.1694  0.2756
   22DOPE   C32 2742   3.242   5.187  13.425 -0.0903  0.1203 -0.3195
   22DOPE   H2X 2743   3.280   5.082  13.429  0.4494  0.3057 -0.4959
   22DOPE   H2Y 2744   3.134   5.186  13.400 -0.2150  2.6225 -0.0652
   22DOPE   C23 2745   3.637   4.914  13.577 -0.0225 -0.6364  0.7991
   22DOPE   H3R 2746   3.728   4.851  13.579  0.7226  0.3765  3.6725
   22DOPE   H3S 2747   3.669   5.020  13.564 -2.8796  0.3896  1.3784
   22DOPE   C24 2748   3.553   4.872  13.447 -0.1380 -0.1674  0.4884
   22DOPE   H4R 2749   3.467   4.942  13.451  0.7261  1.1652 -2.1648
   22DOPE   H4S 2750   3.516   4.767  13.454  1.2656 -0.7157  0.0164
   22DOPE   C25 2751   3.642   4.875  13.318  0.2055 -0.2165  0.0050
   22DOPE   H5R 2752   3.725   4.804  13.339 -1.1524 -1.0959  3.0394
   22DOPE   H5S 2753   3.688   4.976  13.322 -0.4565  0.0469  1.9585
   22DOPE   C26 2754   3.557   4.854  13.189 -0.0921  0.4618 -0.1215
   22DOPE   H6R 2755   3.466   4.911  13.218  0.1274  0.5876  0.3308
   22DOPE   H6S 2756   3.534   4.746  13.180 -2.1734  0.6832  1.7187
   22DOPE   C27 2757   3.625   4.899  13.062  0.3715  0.6913 -0.6239
   22DOPE   H7R 2758   3.722   4.849  13.041  0.2802  0.7256 -1.1452
   22DOPE   H7S 2759   3.638   5.008  13.046  1.4682  0.4122 -1.8506
   22DOPE   C28 2760   3.539   4.856  12.938 -0.9598 -0.0461  1.1053
   22DOPE   H8R 2761   3.459   4.933  12.932 -0.9674 -0.1175 -0.0950
   22DOPE   H8S 2762   3.486   4.759  12.951 -1.6421  0.2708  0.7629
   22DOPE   C29 2763   3.619   4.845  12.813  0.3705 -0.0198  0.1426
   22DOPE   H9R 2764   3.715   4.898  12.815  1.5126 -1.8089 -2.3509
   22DOPE  C210 2765   3.590   4.786  12.691 -0.5607 -0.2132 -0.3414
   22DOPE  H10R 2766   3.671   4.776  12.618 -0.4805  0.0671 -0.2926
   22DOPE  C211 2767   3.471   4.700  12.662 -0.7033 -0.0035 -0.2813
   22DOPE  H11R 2768   3.392   4.716  12.739  0.1498 -1.2151  0.8814
   22DOPE  H11S 2769   3.495   4.591  12.656 -0.9846 -0.0108 -1.5363
   22DOPE  C212 2770   3.422   4.737  12.518 -0.0934 -0.3014  0.3177
   22DOPE  H12R 2771   3.380   4.839  12.524  1.0948  0.2301 -0.2024
   22DOPE  H12S 2772   3.346   4.662  12.485 -0.7859  0.9055 -0.9321
   22DOPE  C213 2773   3.532   4.749  12.405 -0.2481 -0.4522 -0.5183
   22DOPE  H13R 2774   3.569   4.644  12.402 -0.8598 -0.7755  1.5046
   22DOPE  H13S 2775   3.614   4.818  12.434 -0.1932 -0.1604 -1.3508
   22DOPE  C214 2776   3.484   4.802  12.277 -0.1199 -0.0580 -0.1119
   22DOPE  H14R 2777   3.455   4.909  12.285  1.2897  0.4359 -1.1874
   22DOPE  H14S 2778   3.391   4.751  12.244 -0.4309 -0.0483  0.7354
   22DOPE  C215 2779   3.591   4.794  12.161 -0.2294  1.0470 -0.2333
   22DOPE  H15R 2780   3.620   4.689  12.136 -0.7271  0.3166  2.0295
   22DOPE  H15S 2781   3.684   4.847  12.189  1.7613 -1.9158 -0.7475
   22DOPE  C216 2782   3.534   4.862  12.032 -0.3130 -0.2752 -0.4348
   22DOPE  H16R 2783   3.510   4.964  12.069  1.5702 -0.1209  0.4782
   22DOPE  H16S 2784   3.438   4.814  12.002 -0.4269 -0.4622  0.2028
   22DOPE  C217 2785   3.637   4.851  11.917 -0.4093  0.3568  0.4407
   22DOPE  H17R 2786   3.661   4.745  11.898 -0.0823  0.5000  0.0318
   22DOPE  H17S 2787   3.732   4.902  11.944  0.6791 -1.0398 -0.5986
   22DOPE  C218 2788   3.586   4.920  11.783  0.2453 -0.0938 -0.0146
   22DOPE  H18R 2789   3.537   5.017  11.810  2.0609  1.3776 -1.7291
   22DOPE  H18S 2790   3.519   4.860  11.718  1.1386  1.6497 -2.6832
   22DOPE  H18T 2791   3.675   4.944  11.721  0.9685 -2.2866  0.0884
   22DOPE   C33 2792   3.307   5.250  13.304  0.0409 -0.0945 -0.0036
   22DOPE   H3X 2793   3.418   5.241  13.312  0.0135 -0.5557 -0.1253
   22DOPE   H3Y 2794   3.274   5.356  13.303 -0.0662 -0.0970  1.7388
   22DOPE   C34 2795   3.246   5.186  13.178  0.1255 -0.0404  0.6908
   22DOPE   H4X 2796   3.251   5.075  13.185 -1.5476 -0.0994  1.2170
   22DOPE   H4Y 2797   3.138   5.207  13.166 -0.1168 -1.2687  0.6219
   22DOPE   C35 2798   3.317   5.231  13.046 -0.2067  0.1442 -0.4003
   22DOPE   H5X 2799   3.416   5.181  13.057 -1.1123 -1.8981 -0.9025
   22DOPE   H5Y 2800   3.351   5.336  13.049  1.1274 -0.2799  2.8896
   22DOPE   C36 2801   3.267   5.187  12.909  0.5022 -0.7670  0.7450
   22DOPE   H6X 2802   3.172   5.243  12.896 -0.2323 -2.2327 -0.4632
   22DOPE   H6Y 2803   3.233   5.082  12.900 -1.1972 -0.3543  1.8872
   22DOPE   C37 2804   3.366   5.206  12.787 -0.2784  0.5837  0.6944
   22DOPE   H7X 2805   3.403   5.310  12.772  1.0054 -0.1366 -1.8339
   22DOPE   H7Y 2806   3.461   5.148  12.789 -0.1412  0.4194 -3.0902
   22DOPE   C38 2807   3.295   5.156  12.654 -0.1100 -0.1456  0.0857
   22DOPE   H8X 2808   3.259   5.053  12.669 -0.8028 -0.2187 -1.8427
   22DOPE   H8Y 2809   3.381   5.144  12.584  0.3196  1.0992  0.3663
   22DOPE   C39 2810   3.185   5.248  12.607 -0.1950  1.2206  0.2623
   22DOPE   H9X 2811   3.097   5.247  12.673 -0.2423  2.4278  0.2554
   22DOPE  C310 2812   3.188   5.325  12.495  0.3983 -0.3103  0.2815
   22DOPE  H10X 2813   3.099   5.385  12.473  1.8488  1.0753 -2.2946
   22DOPE  C311 2814   3.299   5.311  12.388 -0.3443 -0.5485  0.2415
   22DOPE  H11X 2815   3.390   5.369  12.415  0.5363 -2.3946  1.3782
   22DOPE  H11Y 2816   3.314   5.204  12.362 -2.4684 -0.8431  0.0344
   22DOPE  C312 2817   3.248   5.368  12.245  0.7512  0.5315 -0.2862
   22DOPE  H12X 2818   3.223   5.475  12.253 -0.4177  0.2710 -0.3277
   22DOPE  H12Y 2819   3.149   5.320  12.226  2.1222 -2.3020 -0.8680
   22DOPE  C313 2820   3.353   5.319  12.142 -0.4219 -0.0345 -0.0134
   22DOPE  H13X 2821   3.449   5.369  12.167  0.7608 -1.3593 -1.6599
   22DOPE  H13Y 2822   3.368   5.209  12.146 -0.1522  0.0455  2.9661
   22DOPE  C314 2823   3.326   5.381  12.004  0.3956 -0.1864 -0.2257
   22DOPE  H14X 2824   3.416   5.362  11.941 -0.1798 -0.7261 -0.9139
   22DOPE  H14Y 2825   3.311   5.490  12.018  2.0414 -0.0829  0.9966
   22DOPE  C315 2826   3.184   5.333  11.950  0.1466 -0.7020 -0.4482
   22DOPE  H15X 2827   3.103   5.374  12.015 -1.3057 -0.8156 -2.1038
   22DOPE  H15Y 2828   3.174   5.223  11.961 -0.1906 -0.6685 -0.3991
   22DOPE  C316 2829   3.157   5.382  11.806  0.2874 -0.1287 -0.0695
   22DOPE  H16X 2830   3.233   5.340  11.737  1.8520  1.3330  0.7031
   22DOPE  H16Y 2831   3.157   5.493  11.800  0.2523 -0.1050  0.3324
   22DOPE  C317 2832   3.019   5.339  11.749  0.0158 -0.2723 -0.2442
   22DOPE  H17X 2833   2.994   5.383  11.650 -1.3095  1.4955  0.7987
   22DOPE  H17Y 2834   3.027   5.229  11.738 -0.6672 -0.1509 -2.3420
   22DOPE  C318 2835   2.901   5.360  11.850 -0.7672  0.4560 -0.0405
   22DOPE  H18X 2836   2.923   5.306  11.945  0.5590 -3.5625 -2.3656
   22DOPE  H18Y 2837   2.899   5.469  11.870 -1.0341 -0.1474  3.9813
   22DOPE  H18Z 2838   2.806   5.315  11.814 -1.0788 -0.6328  2.0254
   23DOPE     N 2839   1.654   0.822  13.308 -0.0054  0.0036 -0.2871
   23DOPE   HN1 2840   1.585   0.809  13.232 -0.7019  3.6267 -0.4241
   23DOPE   HN2 2841   1.692   0.916  13.284  0.2957 -0.4102 -1.4677
   23DOPE   HN3 2842   1.721   0.745  13.290 -0.6608 -0.6466  0.0003
   23DOPE   C12 2843   1.597   0.808  13.442  0.2672 -0.5338 -0.3909
   23DOPE  H12A 2844   1.679   0.848  13.505 -0.3141 -0.4171  0.3098
   23DOPE  H12B 2845   1.579   0.699  13.449 -1.4077 -0.3411 -1.1203
   23DOPE   C11 2846   1.455   0.877  13.459  0.2480 -0.6361  0.3055
   23DOPE  H11A 2847   1.420   0.875  13.564 -1.5967  0.5179 -0.2257
   23DOPE  H11B 2848   1.386   0.818  13.394  3.6381 -1.6288 -2.7395
   23DOPE     P 2849   1.332   1.104  13.437 -0.1550 -0.6318 -0.2578
   23DOPE   O13 2850   1.378   1.243  13.419  0.0541  0.3169  0.4488
   23DOPE   O14 2851   1.257   1.081  13.560  0.0759  0.4646 -0.9614
   23DOPE   O11 2852   1.236   1.062  13.326 -0.2060 -0.2830  0.1946
   23DOPE   O12 2853   1.453   1.009  13.414  0.0228  0.0680 -0.3233
   23DOPE    C1 2854   1.279   1.010  13.195  0.4753 -1.0999  0.5319
   23DOPE    HA 2855   1.228   0.914  13.169  0.2629 -0.4876 -1.5111
   23DOPE    HB 2856   1.388   1.003  13.173  0.4443  0.0544 -0.0834
   23DOPE    C2 2857   1.219   1.110  13.086  0.5628 -0.6496 -0.0848
   23DOPE    HS 2858   1.130   1.164  13.127  1.2345  2.8249 -2.7465
   23DOPE   O21 2859   1.191   1.041  12.965 -0.2007 -0.4371  0.3210
   23DOPE   C21 2860   1.097   1.109  12.891 -0.1896 -0.3994  0.6056
   23DOPE   O22 2861   1.047   1.210  12.931  0.1999  0.2039  0.0467
   23DOPE   C22 2862   1.057   1.024  12.769  0.3358 -0.1708 -0.6622
   23DOPE   H2R 2863   0.993   0.944  12.811  0.6495  0.8211  1.8570
   23DOPE   H2S 2864   1.150   0.992  12.716 -0.1625 -0.9193 -1.0974
   23DOPE    C3 2865   1.323   1.233  13.075 -0.3449  0.9723 -1.4441
   23DOPE    HX 2866   1.424   1.186  13.067 -0.6242  0.0305  0.1984
   23DOPE    HY 2867   1.302   1.286  13.170 -1.5296 -0.4115 -0.8922
   23DOPE   O31 2868   1.298   1.320  12.963  0.1381  0.3732 -0.0418
   23DOPE   C31 2869   1.293   1.451  12.999  0.5201  0.3046  0.4996
   23DOPE   O32 2870   1.302   1.485  13.117  1.3886 -0.0278  0.0047
   23DOPE   C32 2871   1.279   1.540  12.878  0.6608  0.5286  0.2034
   23DOPE   H2X 2872   1.181   1.593  12.884 -0.7801 -1.5475 -2.6429
   23DOPE   H2Y 2873   1.355   1.620  12.892  0.1706  0.9367  0.5841
   23DOPE   C23 2874   0.953   1.092  12.680 -0.2751  0.7547  0.2846
   23DOPE   H3R 2875   0.894   1.162  12.743  1.4495 -0.7365  3.7909
   23DOPE   H3S 2876   0.888   1.020  12.625 -0.4500  0.8078  0.4199
   23DOPE   C24 2877   1.031   1.173  12.572 -0.1637 -0.3944 -0.3043
   23DOPE   H4R 2878   1.085   1.109  12.499  1.8057 -0.0691  0.7768
   23DOPE   H4S 2879   1.106   1.237  12.622 -0.7933 -0.7803  1.1737
   23DOPE   C25 2880   0.934   1.255  12.484  0.3440 -0.0315  0.3562
   23DOPE   H5R 2881   0.999   1.314  12.416  2.1785 -2.7160 -0.3379
   23DOPE   H5S 2882   0.891   1.330  12.554 -0.7662 -0.1408 -0.1802
   23DOPE   C26 2883   0.816   1.195  12.407 -0.1092 -0.3047  0.1091
   23DOPE   H6R 2884   0.746   1.275  12.376 -0.5723 -0.6837  0.1437
   23DOPE   H6S 2885   0.764   1.129  12.481  1.7330 -0.1076  1.6634
   23DOPE   C27 2886   0.860   1.110  12.289  0.4706  0.5849 -0.1106
   23DOPE   H7R 2887   0.767   1.073  12.241 -0.5062  0.6312  1.6911
   23DOPE   H7S 2888   0.921   1.029  12.333  0.8348  0.7123 -0.3750
   23DOPE   C28 2889   0.941   1.175  12.180  0.4810  0.2680  0.8640
   23DOPE   H8R 2890   0.970   1.094  12.111  0.2243  0.8135  0.1041
   23DOPE   H8S 2891   1.038   1.215  12.218 -1.1414  3.2593  2.1899
   23DOPE   C29 2892   0.887   1.292  12.105 -0.4345 -0.0983  0.0987
   23DOPE   H9R 2893   0.886   1.388  12.158  2.1298  1.2573 -2.0309
   23DOPE  C210 2894   0.830   1.286  11.986 -0.3036 -0.8451 -0.2095
   23DOPE  H10R 2895   0.795   1.377  11.936 -2.2320 -3.1759 -3.5541
   23DOPE  C211 2896   0.835   1.166  11.890 -0.0749 -0.9444 -0.4852
   23DOPE  H11R 2897   0.754   1.170  11.814  0.2083 -2.2278 -0.8727
   23DOPE  H11S 2898   0.831   1.074  11.952  1.6437  0.4083  1.8188
   23DOPE  C212 2899   0.969   1.159  11.822  0.6821  0.1108  0.4483
   23DOPE  H12R 2900   1.048   1.122  11.891  1.3098  0.0293 -0.3039
   23DOPE  H12S 2901   0.989   1.263  11.789  2.5111  0.0643  1.2847
   23DOPE  C213 2902   0.971   1.067  11.694  0.9062  0.3555  0.0724
   23DOPE  H13R 2903   0.940   0.966  11.728  0.4166 -0.1875 -1.8930
   23DOPE  H13S 2904   1.076   1.058  11.660  1.3152  2.8078  0.4992
   23DOPE  C214 2905   0.882   1.126  11.581 -0.9989  1.0873 -0.2444
   23DOPE  H14R 2906   0.925   1.225  11.555  0.7395  0.5291  0.3842
   23DOPE  H14S 2907   0.774   1.137  11.606 -1.3426  1.9247 -1.9760
   23DOPE  C215 2908   0.904   1.047  11.450  0.5381  0.8914 -0.1052
   23DOPE  H15R 2909   0.874   0.941  11.462  1.9240  0.5006  0.0227
   23DOPE  H15S 2910   1.011   1.058  11.421  0.4118  2.0936 -0.1833
   23DOPE  C216 2911   0.813   1.095  11.336 -0.2188 -0.0969 -0.6663
   23DOPE  H16R 2912   0.808   1.206  11.340 -0.9881 -0.1349 -0.4684
   23DOPE  H16S 2913   0.718   1.040  11.350  1.1816 -2.5371 -0.1656
   23DOPE  C217 2914   0.866   1.051  11.200  0.2851 -0.2718  0.1770
   23DOPE  H17R 2915   0.909   0.949  11.211 -0.1698 -0.2356  2.9021
   23DOPE  H17S 2916   0.939   1.129  11.172 -1.4926  1.3236 -0.2368
   23DOPE  C218 2917   0.757   1.042  11.089  0.6406 -0.1860  0.7096
   23DOPE  H18R 2918   0.700   1.136  11.083  2.1299  0.6778 -0.6606
   23DOPE  H18S 2919   0.691   0.957  11.117 -0.4743  0.5996  0.4967
   23DOPE  H18T 2920   0.816   1.010  11.001  0.9074  1.9057  0.0801
   23DOPE   C33 2921   1.286   1.460  12.746 -0.1363 -0.8867  0.4684
   23DOPE   H3X 2922   1.199   1.390  12.742 -1.7812  1.1164 -1.8628
   23DOPE   H3Y 2923   1.387   1.412  12.740  1.3428  2.0327  0.2544
   23DOPE   C34 2924   1.282   1.546  12.627 -0.3391 -0.1818  0.1079
   23DOPE   H4X 2925   1.196   1.615  12.644 -0.6327 -0.5294  0.0560
   23DOPE   H4Y 2926   1.370   1.613  12.626 -0.6653  0.2612 -1.4682
   23DOPE   C35 2927   1.262   1.475  12.496 -0.0913  0.3736 -1.1220
   23DOPE   H5X 2928   1.193   1.390  12.517  0.2177 -0.1003 -2.0007
   23DOPE   H5Y 2929   1.356   1.419  12.473 -0.7238 -0.8587 -0.8277
   23DOPE   C36 2930   1.204   1.558  12.382  0.3252  0.8849  0.2772
   23DOPE   H6X 2931   1.220   1.668  12.390  0.9979  0.7354  1.0578
   23DOPE   H6Y 2932   1.096   1.549  12.406  0.7799 -0.9804  1.8291
   23DOPE   C37 2933   1.224   1.503  12.233  0.0441 -0.8095 -0.3263
   23DOPE   H7X 2934   1.330   1.494  12.203  0.1170 -1.2618  0.0521
   23DOPE   H7Y 2935   1.189   1.397  12.236  0.2426 -0.8507  1.2937
   23DOPE   C38 2936   1.146   1.587  12.134 -0.6765  0.3902  0.7667
   23DOPE   H8X 2937   1.167   1.695  12.148  1.5855 -0.1115  1.6474
   23DOPE   H8Y 2938   1.039   1.566  12.156 -0.5225 -1.6340 -0.2404
   23DOPE   C39 2939   1.154   1.542  11.989  0.0451  0.1622  0.1681
   23DOPE   H9X 2940   1.086   1.460  11.962  0.3289  0.0555 -0.2289
   23DOPE  C310 2941   1.231   1.589  11.892 -0.4070 -0.0797  1.1122
   23DOPE  H10X 2942   1.227   1.552  11.788 -0.3120 -0.6893  1.3205
   23DOPE  C311 2943   1.328   1.705  11.898  0.2443 -0.4856 -0.1350
   23DOPE  H11X 2944   1.294   1.756  11.990  0.0166  0.5696 -0.7898
   23DOPE  H11Y 2945   1.431   1.667  11.915  0.8721  1.2006 -0.0333
   23DOPE  C312 2946   1.308   1.789  11.771 -0.8483 -0.9375 -0.5346
   23DOPE  H12X 2947   1.352   1.888  11.794 -1.8590 -0.6441  0.2215
   23DOPE  H12Y 2948   1.204   1.827  11.761 -1.4987 -1.9814  1.5646
   23DOPE  C313 2949   1.374   1.738  11.645 -0.3610  0.0076  0.1051
   23DOPE  H13X 2950   1.476   1.713  11.681 -0.9664 -3.1653 -0.1417
   23DOPE  H13Y 2951   1.339   1.635  11.625  1.3615 -0.3203 -1.4555
   23DOPE  C314 2952   1.355   1.831  11.535 -0.2091  0.1997 -0.4481
   23DOPE  H14X 2953   1.411   1.922  11.566  0.9820  0.0496 -2.0227
   23DOPE  H14Y 2954   1.250   1.849  11.506 -0.8430  0.1970  1.6913
   23DOPE  C315 2955   1.428   1.775  11.408  0.2058 -0.2523  0.6823
   23DOPE  H15X 2956   1.355   1.707  11.360 -0.1632  0.6058 -0.0004
   23DOPE  H15Y 2957   1.519   1.721  11.441 -0.1488 -1.1486  0.2042
   23DOPE  C316 2958   1.469   1.896  11.318 -0.3787 -0.6631  0.1608
   23DOPE  H16X 2959   1.527   1.969  11.379  0.9911  1.7545 -3.6736
   23DOPE  H16Y 2960   1.373   1.949  11.309 -0.0785  0.0921  1.1862
   23DOPE  C317 2961   1.547   1.860  11.195  0.0432  0.2999 -0.7326
   23DOPE  H17X 2962   1.570   1.952  11.136 -0.4325 -0.7113 -2.5689
   23DOPE  H17Y 2963   1.638   1.799  11.211 -0.4987 -0.3352 -0.0519
   23DOPE  C318 2964   1.467   1.780  11.090 -0.5194  0.0215 -0.4582
   23DOPE  H18X 2965   1.386   1.846  11.053 -0.1161  0.8529  0.1187
   23DOPE  H18Y 2966   1.524   1.762  10.996 -2.0893  0.5047 -1.5539
   23DOPE  H18Z 2967   1.421   1.690  11.137  2.3281 -0.8647  0.7943
   24DOPE     N 2968   3.348   0.033  13.499  0.2023  0.4486 -0.2280
   24DOPE   HN1 2969   3.300  -0.012  13.417 -0.9982  0.9666  0.1680
   24DOPE   HN2 2970   3.323   0.133  13.505  0.3295  0.4100  1.2069
   24DOPE   HN3 2971   3.451   0.019  13.490 -0.0708 -0.8513 -2.1903
   24DOPE   C12 2972   3.305  -0.036  13.628  0.2772 -0.1091  0.1770
   24DOPE  H12A 2973   3.214   0.016  13.666 -0.1886 -0.0218 -1.0150
   24DOPE  H12B 2974   3.390  -0.012  13.696 -1.7173  2.0603  2.0760
   24DOPE   C11 2975   3.267  -0.184  13.606  0.8359  0.0305 -0.1913
   24DOPE  H11A 2976   3.170  -0.189  13.551  2.2589  3.1419 -3.4121
   24DOPE  H11B 2977   3.246  -0.219  13.709 -1.3695 -0.0010 -0.5974
   24DOPE     P 2978   3.348  -0.408  13.528  0.3753  0.0057  0.5327
   24DOPE   O13 2979   3.207  -0.446  13.545  0.1912  0.4754 -0.3106
   24DOPE   O14 2980   3.440  -0.472  13.618  0.6020 -0.2400  0.2020
   24DOPE   O11 2981   3.392  -0.424  13.382  0.2011 -0.0110 -0.1262
   24DOPE   O12 2982   3.367  -0.251  13.540 -0.4522  0.5630  0.0483
   24DOPE    C1 2983   3.524  -0.427  13.333  0.2921 -0.5412 -0.0354
   24DOPE    HA 2984   3.600  -0.493  13.380 -0.9490 -1.2270  1.0978
   24DOPE    HB 2985   3.570  -0.326  13.331 -1.4151  0.2730 -0.7891
   24DOPE    C2 2986   3.522  -0.477  13.188 -0.1663 -1.2093 -0.0258
   24DOPE    HS 2987   3.629  -0.467  13.160 -0.0741 -0.0219  0.6747
   24DOPE   O21 2988   3.437  -0.395  13.101  0.5902 -0.4789  0.4543
   24DOPE   C21 2989   3.482  -0.359  12.977 -0.1844 -0.1270 -0.4177
   24DOPE   O22 2990   3.584  -0.401  12.929 -0.0217  0.2748  0.1140
   24DOPE   C22 2991   3.383  -0.265  12.910  0.5524  0.6145  0.2940
   24DOPE   H2R 2992   3.424  -0.235  12.812  2.9140  1.7102  1.5350
   24DOPE   H2S 2993   3.369  -0.175  12.974 -1.9101 -1.3615  2.7990
   24DOPE    C3 2994   3.491  -0.631  13.182 -0.5845  0.0118  0.0780
   24DOPE    HX 2995   3.381  -0.646  13.193 -0.4810 -0.6408  0.3118
   24DOPE    HY 2996   3.538  -0.681  13.269  0.3978  1.5155  0.4434
   24DOPE   O31 2997   3.536  -0.700  13.064  0.0436 -0.4408  0.5700
   24DOPE   C31 2998   3.463  -0.707  12.960  0.4509 -0.2420  0.3510
   24DOPE   O32 2999   3.343  -0.675  12.951  0.1581 -0.1830 -0.7706
   24DOPE   C32 3000   3.539  -0.766  12.844  0.1881 -0.4711  0.2591
   24DOPE   H2X 3001   3.631  -0.704  12.835  0.2843 -0.0832  2.8913
   24DOPE   H2Y 3002   3.569  -0.868  12.877  1.2365 -0.6159 -1.0765
   24DOPE   C23 3003   3.241  -0.331  12.905 -0.4810 -0.1668  0.7369
   24DOPE   H3R 3004   3.190  -0.351  13.002  1.0181 -2.3188  1.1727
   24DOPE   H3S 3005   3.255  -0.432  12.860 -0.6769 -0.8129  2.0649
   24DOPE   C24 3006   3.148  -0.263  12.813  1.0140 -0.1189 -0.3861
   24DOPE   H4R 3007   3.201  -0.238  12.719  0.5905 -0.5738 -0.7513
   24DOPE   H4S 3008   3.119  -0.169  12.865 -3.4770 -1.8395  0.6703
   24DOPE   C25 3009   3.012  -0.337  12.797 -0.4863 -0.1636 -0.7701
   24DOPE   H5R 3010   2.969  -0.357  12.897  0.0004 -1.4475 -0.7866
   24DOPE   H5S 3011   3.037  -0.431  12.741 -1.5713  0.9330 -3.2592
   24DOPE   C26 3012   2.916  -0.264  12.704  0.0496 -0.1821 -1.0710
   24DOPE   H6R 3013   2.964  -0.263  12.604  2.3915  2.2996 -0.0458
   24DOPE   H6S 3014   2.908  -0.155  12.724  1.2723  0.1251 -2.1549
   24DOPE   C27 3015   2.776  -0.333  12.694 -0.1808  0.1922 -0.3491
   24DOPE   H7R 3016   2.717  -0.266  12.628 -4.5130 -4.5087 -1.8623
   24DOPE   H7S 3017   2.729  -0.328  12.795  1.0045  0.1317  0.2266
   24DOPE   C28 3018   2.783  -0.480  12.646 -0.0829 -0.6751 -0.1927
   24DOPE   H8R 3019   2.833  -0.536  12.728  1.6028 -0.1349 -0.8077
   24DOPE   H8S 3020   2.845  -0.503  12.557 -0.5741 -2.2783 -0.1459
   24DOPE   C29 3021   2.650  -0.535  12.604  0.4667 -0.2461 -0.6281
   24DOPE   H9R 3022   2.590  -0.557  12.693  0.4887  0.9923 -0.2813
   24DOPE  C210 3023   2.595  -0.547  12.479 -0.3356  0.0097  0.1537
   24DOPE  H10R 3024   2.499  -0.599  12.467 -0.9224  0.7889  1.2651
   24DOPE  C211 3025   2.653  -0.507  12.350  1.1758 -0.6006 -0.1257
   24DOPE  H11R 3026   2.703  -0.408  12.360 -1.3664  0.6956  0.6246
   24DOPE  H11S 3027   2.562  -0.477  12.294  0.7461 -1.6754 -0.0239
   24DOPE  C212 3028   2.726  -0.627  12.284  0.3598  0.4704  0.4023
   24DOPE  H12R 3029   2.638  -0.693  12.269 -1.1545  2.5423 -0.3166
   24DOPE  H12S 3030   2.799  -0.679  12.349 -0.2467 -0.0826  0.6502
   24DOPE  C213 3031   2.797  -0.600  12.146  0.0639  0.7060  0.1906
   24DOPE  H13R 3032   2.840  -0.697  12.113  0.5064  1.1180 -0.4732
   24DOPE  H13S 3033   2.880  -0.531  12.171  1.3078 -1.2809  1.8297
   24DOPE  C214 3034   2.710  -0.544  12.034  0.0538  0.5371 -0.5273
   24DOPE  H14R 3035   2.669  -0.455  12.087  0.0443  0.7482 -0.8804
   24DOPE  H14S 3036   2.625  -0.604  11.995 -1.4594  1.5883  0.9733
   24DOPE  C215 3037   2.789  -0.496  11.912  0.2211  0.1300  0.2274
   24DOPE  H15R 3038   2.707  -0.475  11.840 -0.4592  1.6378  1.3870
   24DOPE  H15S 3039   2.849  -0.572  11.858  0.4591  0.8747 -0.5821
   24DOPE  C216 3040   2.861  -0.362  11.933  0.0447  0.6193  0.1823
   24DOPE  H16R 3041   2.941  -0.385  12.006  1.5775  0.6878 -1.3924
   24DOPE  H16S 3042   2.791  -0.283  11.968 -1.4176 -0.8041  0.5720
   24DOPE  C217 3043   2.930  -0.312  11.808  1.0021 -0.0381  0.8606
   24DOPE  H17R 3044   2.988  -0.393  11.760  2.4009  0.1031  2.2137
   24DOPE  H17S 3045   3.003  -0.237  11.846  1.3209 -0.2399  0.6539
   24DOPE  C218 3046   2.837  -0.235  11.712  0.0071  0.4108  0.2600
   24DOPE  H18R 3047   2.897  -0.169  11.646 -0.5036  0.0826 -0.5515
   24DOPE  H18S 3048   2.759  -0.171  11.758 -2.5474 -1.7024 -0.8571
   24DOPE  H18T 3049   2.768  -0.294  11.647 -0.6576  1.2326  0.2161
   24DOPE   C33 3050   3.447  -0.773  12.715 -0.1876 -0.0139  0.2872
   24DOPE   H3X 3051   3.351  -0.825  12.733  0.9345 -2.0781  0.6998
   24DOPE   H3Y 3052   3.504  -0.833  12.640  1.7442  3.0344 -0.8902
   24DOPE   C34 3053   3.424  -0.631  12.667 -0.2084 -0.1454  0.0569
   24DOPE   H4X 3054   3.321  -0.596  12.689  0.0519  1.2652 -0.8232
   24DOPE   H4Y 3055   3.489  -0.565  12.728  1.2179  1.1685 -2.7163
   24DOPE   C35 3056   3.453  -0.621  12.515 -0.3244  0.8113 -0.5486
   24DOPE   H5X 3057   3.380  -0.683  12.460  2.5784 -1.5850 -1.9669
   24DOPE   H5Y 3058   3.547  -0.671  12.485  1.0856  2.4621  0.8957
   24DOPE   C36 3059   3.458  -0.477  12.473 -0.3174  0.4392 -0.2861
   24DOPE   H6X 3060   3.470  -0.471  12.362  2.6687 -0.6369 -0.1263
   24DOPE   H6Y 3061   3.545  -0.427  12.520 -0.0816  0.4347 -0.7052
   24DOPE   C37 3062   3.334  -0.391  12.517 -0.7172 -0.5984  0.4686
   24DOPE   H7X 3063   3.332  -0.396  12.628 -0.9793 -2.1889  0.4090
   24DOPE   H7Y 3064   3.343  -0.284  12.487 -0.1001 -0.8619 -0.2980
   24DOPE   C38 3065   3.203  -0.448  12.449 -0.0380  0.7164  0.0431
   24DOPE   H8X 3066   3.120  -0.390  12.496  1.8724  1.7436  2.3713
   24DOPE   H8Y 3067   3.191  -0.556  12.473 -3.2870  1.0921  0.5598
   24DOPE   C39 3068   3.207  -0.434  12.299 -0.5877 -0.3302  0.4993
   24DOPE   H9X 3069   3.294  -0.476  12.247 -1.8410  0.5632 -2.5014
   24DOPE  C310 3070   3.125  -0.350  12.225  0.0735  0.0983 -0.4120
   24DOPE  H10X 3071   3.153  -0.324  12.122  1.4318 -0.2398 -0.1524
   24DOPE  C311 3072   2.996  -0.278  12.267 -0.6055  0.4963 -0.6856
   24DOPE  H11X 3073   2.902  -0.329  12.238 -0.5984  0.3735 -0.4888
   24DOPE  H11Y 3074   2.990  -0.264  12.377 -0.9035 -1.1240 -0.4807
   24DOPE  C312 3075   2.984  -0.134  12.206 -0.2459 -0.4105  0.6774
   24DOPE  H12X 3076   2.881  -0.095  12.225  0.6649  2.0423  0.9259
   24DOPE  H12Y 3077   2.995  -0.160  12.099 -0.7361 -1.4967  0.8723
   24DOPE  C313 3078   3.094  -0.033  12.261 -0.0216  0.5500  0.0634
   24DOPE  H13X 3079   3.190  -0.058  12.211 -0.1515 -3.2778  1.3725
   24DOPE  H13Y 3080   3.060   0.063  12.218 -0.6047  0.9089  1.2907
   24DOPE  C314 3081   3.109  -0.023  12.410  0.1209 -0.0534 -0.4740
   24DOPE  H14X 3082   3.134  -0.122  12.452 -1.1308  0.2285  1.0183
   24DOPE  H14Y 3083   3.009   0.010  12.447 -0.3503 -3.1798  1.3302
   24DOPE  C315 3084   3.221   0.078  12.435 -0.6257  0.0700 -0.3554
   24DOPE  H15X 3085   3.181   0.181  12.427 -1.8843 -0.4378 -0.7882
   24DOPE  H15Y 3086   3.292   0.072  12.350 -1.3331  0.8548 -1.0091
   24DOPE  C316 3087   3.291   0.058  12.568  0.3744 -0.7494 -0.2002
   24DOPE  H16X 3088   3.396   0.092  12.557  0.1528  0.0618  0.1650
   24DOPE  H16Y 3089   3.291  -0.052  12.589  1.4028 -0.8218 -0.5627
   24DOPE  C317 3090   3.225   0.131  12.686 -0.1007 -0.0924  0.4159
   24DOPE  H17X 3091   3.235   0.237  12.655  1.4942  0.2464  1.9521
   24DOPE  H17Y 3092   3.116   0.112  12.685 -0.2450  0.7370 -0.1838
   24DOPE  C318 3093   3.299   0.116  12.822 -0.2767 -0.0063 -0.1690
   24DOPE  H18X 3094   3.257   0.188  12.895  0.8998  0.1552  0.3678
   24DOPE  H18Y 3095   3.281   0.013  12.862 -0.2421 -0.6276 -1.6797
   24DOPE  H18Z 3096   3.405   0.142  12.802 -0.3321 -0.1266 -0.6143
   25DOPE     N 3097   3.880   5.991  14.180 -0.3196  0.0665  0.1272
   25DOPE   HN1 3098   3.874   5.916  14.252 -0.3346  1.2489  1.4001
   25DOPE   HN2 3099   3.867   6.073  14.242 -0.6798 -0.7955  1.2128
   25DOPE   HN3 3100   3.803   5.981  14.111 -2.1787  1.4477  1.8945
   25DOPE   C12 3101   4.019   5.999  14.112  0.6002 -0.2803  0.3481
   25DOPE  H12A 3102   4.028   5.924  14.032  2.6283 -2.2735  2.2960
   25DOPE  H12B 3103   4.092   5.973  14.191  0.3876 -0.5059  0.4714
   25DOPE   C11 3104   4.052   6.139  14.057  0.5630  0.5438 -0.7401
   25DOPE  H11A 3105   4.154   6.140  14.013  0.6675 -0.7303 -0.5513
   25DOPE  H11B 3106   4.054   6.221  14.132 -0.0796 -0.1824  0.0805
   25DOPE     P 3107   3.949   6.300  13.868 -0.1066  0.0989 -0.2559
   25DOPE   O13 3108   3.944   6.419  13.950  0.3427  0.3352 -0.0683
   25DOPE   O14 3109   3.834   6.290  13.777  0.1480  0.2600 -0.0284
   25DOPE   O11 3110   4.080   6.299  13.783  0.6822 -0.3199 -0.3428
   25DOPE   O12 3111   3.958   6.169  13.961  0.9777 -0.2826 -0.0400
   25DOPE    C1 3112   4.117   6.183  13.721  0.5351  0.6828  0.5960
   25DOPE    HA 3113   4.054   6.093  13.733 -1.3690  2.0031  0.9734
   25DOPE    HB 3114   4.219   6.168  13.761  0.1342  1.4840  2.0148
   25DOPE    C2 3115   4.120   6.203  13.567 -0.4178  0.0276 -0.2568
   25DOPE    HS 3116   4.214   6.157  13.530  0.6915  2.1770 -0.2676
   25DOPE   O21 3117   4.123   6.343  13.528  0.0499  0.2547  0.0609
   25DOPE   C21 3118   4.245   6.390  13.527 -0.3706 -0.5477  0.3772
   25DOPE   O22 3119   4.348   6.335  13.563 -0.2378 -0.4535 -0.1217
   25DOPE   C22 3120   4.237   6.536  13.470 -0.5648  0.5291 -0.5987
   25DOPE   H2R 3121   4.213   6.594  13.561  0.3127  0.9543 -0.6328
   25DOPE   H2S 3122   4.146   6.552  13.408 -2.0729 -1.2802  1.0026
   25DOPE    C3 3123   4.002   6.130  13.490  0.0035  0.0494  0.1953
   25DOPE    HX 3124   3.909   6.188  13.508  1.6121  3.9508 -2.6696
   25DOPE    HY 3125   3.987   6.029  13.534 -1.6068  0.1110 -0.1588
   25DOPE   O31 3126   4.039   6.109  13.352  0.0163  0.2244 -0.4060
   25DOPE   C31 3127   3.956   6.164  13.266 -0.0116  0.4245  0.1120
   25DOPE   O32 3128   3.858   6.229  13.288 -0.6129  0.2507 -0.5336
   25DOPE   C32 3129   4.013   6.147  13.135  0.2441 -0.0913 -0.4350
   25DOPE   H2X 3130   4.113   6.195  13.127  0.5909 -0.3265  1.8646
   25DOPE   H2Y 3131   4.019   6.037  13.119 -0.1574 -0.2677  0.5815
   25DOPE   C23 3132   4.376   6.581  13.414 -0.1460 -0.3344 -0.1590
   25DOPE   H3R 3133   4.467   6.553  13.471  1.3443  2.1425 -1.1576
   25DOPE   H3S 3134   4.379   6.692  13.405 -2.2252 -0.2559 -0.3917
   25DOPE   C24 3135   4.385   6.526  13.267  0.1322 -0.0363 -0.7242
   25DOPE   H4R 3136   4.401   6.416  13.274  0.8325  0.1636  2.4677
   25DOPE   H4S 3137   4.489   6.560  13.248  0.8613 -0.8437  1.4801
   25DOPE   C25 3138   4.283   6.582  13.160  0.0618  0.7196 -0.5730
   25DOPE   H5R 3139   4.301   6.692  13.167 -0.3982  0.7404  0.5518
   25DOPE   H5S 3140   4.181   6.548  13.191  1.2426  0.0541  3.1282
   25DOPE   C26 3141   4.310   6.520  13.018 -0.0647  0.9095  0.2516
   25DOPE   H6R 3142   4.329   6.412  13.033  0.9281  1.0286 -0.1082
   25DOPE   H6S 3143   4.402   6.560  12.972  0.3771  0.4070  0.6876
   25DOPE   C27 3144   4.196   6.525  12.921 -0.1948  0.2507  0.5061
   25DOPE   H7R 3145   4.157   6.629  12.929  0.6827  0.6160  0.1136
   25DOPE   H7S 3146   4.122   6.450  12.955  0.5808 -1.1665 -0.8259
   25DOPE   C28 3147   4.229   6.483  12.778 -0.2464 -0.7174 -0.3738
   25DOPE   H8R 3148   4.134   6.478  12.720  0.5255  0.6622 -1.8379
   25DOPE   H8S 3149   4.280   6.385  12.786  1.4671  0.1514 -0.3960
   25DOPE   C29 3150   4.311   6.582  12.694  0.1196  0.2036 -0.6616
   25DOPE   H9R 3151   4.353   6.668  12.749 -1.4958  1.6516 -1.5933
   25DOPE  C210 3152   4.321   6.566  12.563 -0.8413 -0.0257  0.3679
   25DOPE  H10R 3153   4.372   6.641  12.501 -1.1163 -0.4308 -0.3590
   25DOPE  C211 3154   4.258   6.460  12.478  0.2174  0.5892  0.6363
   25DOPE  H11R 3155   4.153   6.476  12.447 -0.4543  0.9244  2.9075
   25DOPE  H11S 3156   4.241   6.371  12.543 -1.1885  0.2060 -0.2180
   25DOPE  C212 3157   4.345   6.422  12.361 -0.1368  0.0151  0.2895
   25DOPE  H12R 3158   4.436   6.374  12.402 -0.1923 -0.1576  0.2090
   25DOPE  H12S 3159   4.382   6.504  12.295  0.1409 -0.1218  0.2725
   25DOPE  C213 3160   4.278   6.315  12.265 -0.3328 -0.5895 -0.6329
   25DOPE  H13R 3161   4.249   6.231  12.332  1.4596 -1.0543 -0.3673
   25DOPE  H13S 3162   4.361   6.276  12.201  0.2900  1.1558 -0.9420
   25DOPE  C214 3163   4.162   6.362  12.178  0.3451  0.1619  0.0304
   25DOPE  H14R 3164   4.077   6.406  12.235  1.6471  2.1675  0.5300
   25DOPE  H14S 3165   4.124   6.269  12.132  0.9406 -0.0872  0.0353
   25DOPE  C215 3166   4.198   6.464  12.064  0.0410  0.8582 -0.9014
   25DOPE  H15R 3167   4.218   6.565  12.106  0.2667 -0.2839  1.9806
   25DOPE  H15S 3168   4.118   6.465  11.987  0.0912 -0.2219 -0.9917
   25DOPE  C216 3169   4.318   6.429  11.978  0.2386  0.2147  0.6429
   25DOPE  H16R 3170   4.295   6.333  11.926 -0.7640  1.1471 -0.7211
   25DOPE  H16S 3171   4.413   6.413  12.034  1.0391 -0.0008 -0.7309
   25DOPE  C217 3172   4.336   6.523  11.856  0.0221 -0.2886  0.9068
   25DOPE  H17R 3173   4.366   6.626  11.885  1.5952 -0.5627  0.3519
   25DOPE  H17S 3174   4.236   6.526  11.809 -0.0529  1.1029  1.1202
   25DOPE  C218 3175   4.438   6.456  11.766  0.1331 -0.1254  0.2593
   25DOPE  H18R 3176   4.390   6.367  11.720 -0.1341 -0.9479  2.0187
   25DOPE  H18S 3177   4.537   6.427  11.809  1.4901 -1.3515 -3.3424
   25DOPE  H18T 3178   4.463   6.528  11.685 -1.4176 -1.4119 -1.4427
   25DOPE   C33 3179   3.921   6.196  13.022  0.3450  0.0927  0.6234
   25DOPE   H3X 3180   3.898   6.304  13.038 -0.4927 -0.2209  1.6906
   25DOPE   H3Y 3181   3.821   6.147  13.026  1.5608 -2.5028  0.6940
   25DOPE   C34 3182   3.994   6.175  12.889  0.0986  0.2278 -0.0144
   25DOPE   H4X 3183   4.059   6.263  12.872 -0.8085  0.9719  0.3092
   25DOPE   H4Y 3184   4.055   6.082  12.891  1.9197  1.3737  0.0561
   25DOPE   C35 3185   3.888   6.154  12.782  0.6566 -0.6346 -1.0097
   25DOPE   H5X 3186   3.823   6.244  12.794  0.7483 -0.8327  1.5703
   25DOPE   H5Y 3187   3.840   6.057  12.807 -0.4219 -0.2490 -1.4775
   25DOPE   C36 3188   3.945   6.150  12.642 -0.1618  0.6503  0.2867
   25DOPE   H6X 3189   4.009   6.060  12.632 -0.2848  0.3850  1.7335
   25DOPE   H6Y 3190   4.014   6.234  12.621  1.0942  0.0296  1.8094
   25DOPE   C37 3191   3.842   6.127  12.523  0.2985 -0.5370  0.0614
   25DOPE   H7X 3192   3.801   6.026  12.539  3.2563 -1.4810  2.8566
   25DOPE   H7Y 3193   3.761   6.200  12.546  2.0456  1.8997 -0.9725
   25DOPE   C38 3194   3.903   6.154  12.386  0.3845 -0.1343  0.5676
   25DOPE   H8X 3195   3.986   6.089  12.350  0.4844 -0.0137  0.5805
   25DOPE   H8Y 3196   3.950   6.254  12.393  0.3435 -0.1072  0.4710
   25DOPE   C39 3197   3.805   6.171  12.264 -0.0007  0.0706 -0.1325
   25DOPE   H9X 3198   3.713   6.226  12.289 -0.2719  0.1974 -1.3548
   25DOPE  C310 3199   3.811   6.110  12.143 -0.0052  0.6235 -0.4039
   25DOPE  H10X 3200   3.733   6.130  12.068  0.3999 -2.8341 -1.9162
   25DOPE  C311 3201   3.923   6.027  12.080 -0.0538  0.0860  0.0999
   25DOPE  H11X 3202   3.953   6.059  11.977 -0.4785  2.5100  0.6687
   25DOPE  H11Y 3203   4.014   6.033  12.143  0.1616 -1.5540 -0.0098
   25DOPE  C312 3204   3.880   5.879  12.081 -0.2294  0.3555  0.8852
   25DOPE  H12X 3205   3.866   5.837  12.183  0.5805 -2.4031 -0.0382
   25DOPE  H12Y 3206   3.976   5.839  12.042 -0.8201 -0.4940  0.2473
   25DOPE  C313 3207   3.759   5.833  12.000  0.1410 -0.3689  0.1956
   25DOPE  H13X 3208   3.763   5.722  12.007 -0.3174 -0.3692  0.5084
   25DOPE  H13Y 3209   3.668   5.868  12.054 -0.2289 -1.3045  0.2017
   25DOPE  C314 3210   3.761   5.869  11.854 -0.0947 -0.2649 -0.8264
   25DOPE  H14X 3211   3.856   5.830  11.810 -0.0705  1.2541 -2.2430
   25DOPE  H14Y 3212   3.768   5.980  11.842  1.8112 -0.3712 -1.0840
   25DOPE  C315 3213   3.644   5.815  11.772  0.6460 -0.4205 -1.0638
   25DOPE  H15X 3214   3.620   5.876  11.683  0.0645  0.6771 -0.1791
   25DOPE  H15Y 3215   3.553   5.826  11.835  0.6671  0.3547 -1.1604
   25DOPE  C316 3216   3.663   5.667  11.724  0.0278  1.2158 -0.5313
   25DOPE  H16X 3217   3.721   5.613  11.802 -0.8074  0.4480 -0.4300
   25DOPE  H16Y 3218   3.720   5.661  11.628 -1.8724 -2.2981 -1.5933
   25DOPE  C317 3219   3.529   5.586  11.695  0.6810 -0.3013 -0.3128
   25DOPE  H17X 3220   3.453   5.603  11.773 -1.4410 -0.3334 -2.2599
   25DOPE  H17Y 3221   3.488   5.630  11.601 -2.2277 -0.9378  0.5749
   25DOPE  C318 3222   3.544   5.440  11.667  0.4753 -0.0238 -0.0929
   25DOPE  H18X 3223   3.625   5.420  11.593  1.1050  0.7479  0.3834
   25DOPE  H18Y 3224   3.567   5.373  11.753 -1.0955 -0.5702 -0.0530
   25DOPE  H18Z 3225   3.453   5.396  11.619 -0.9767  1.4371  1.1954
   26DOPE     N 3226   3.619   6.441  13.763  0.0297 -0.0594  0.3229
   26DOPE   HN1 3227   3.549   6.397  13.701 -0.2305 -0.7353  1.0759
   26DOPE   HN2 3228   3.693   6.367  13.766 -1.2168 -1.4320 -1.1605
   26DOPE   HN3 3229   3.591   6.453  13.863  0.0778 -0.5351  0.3965
   26DOPE   C12 3230   3.675   6.569  13.698  0.6436  0.1715  0.0205
   26DOPE  H12A 3231   3.755   6.602  13.768  0.9224 -0.5273  0.0428
   26DOPE  H12B 3232   3.596   6.647  13.708  0.1047 -0.3484 -0.1371
   26DOPE   C11 3233   3.733   6.539  13.557 -0.5793 -0.2871 -0.7267
   26DOPE  H11A 3234   3.646   6.540  13.488 -0.3978  0.8695 -0.9637
   26DOPE  H11B 3235   3.792   6.445  13.563  0.4855  0.4257  0.5893
   26DOPE     P 3236   3.750   6.791  13.474  0.6584  0.4144 -0.0383
   26DOPE   O13 3237   3.835   6.902  13.520  0.0116 -0.9915  0.1127
   26DOPE   O14 3238   3.605   6.800  13.493  0.7137  0.3431 -0.6719
   26DOPE   O11 3239   3.780   6.779  13.321  0.3858  0.1250 -0.0670
   26DOPE   O12 3240   3.812   6.657  13.534 -0.1466  0.1900 -0.1767
   26DOPE    C1 3241   3.923   6.751  13.281 -0.3083 -0.0863  0.1545
   26DOPE    HA 3242   3.959   6.663  13.340 -0.6795  0.3083  0.9915
   26DOPE    HB 3243   3.984   6.842  13.298 -2.3362  2.0341 -2.9044
   26DOPE    C2 3244   3.933   6.725  13.133 -0.4389  0.3886  0.3596
   26DOPE    HS 3245   4.034   6.688  13.104 -0.1755 -0.3567  2.1270
   26DOPE   O21 3246   3.892   6.844  13.060 -0.6338 -0.2754 -0.2842
   26DOPE   C21 3247   3.984   6.904  12.981  0.1082 -0.8685  0.1366
   26DOPE   O22 3248   4.102   6.871  12.971  0.2315 -0.4535  0.1916
   26DOPE   C22 3249   3.907   7.021  12.916 -0.0283 -0.3033  0.6319
   26DOPE   H2R 3250   3.984   7.087  12.871 -0.5039 -1.0371 -1.3914
   26DOPE   H2S 3251   3.841   7.069  12.991 -1.0556 -0.1419 -0.3471
   26DOPE    C3 3252   3.847   6.595  13.103  0.0916  0.0098  0.3580
   26DOPE    HX 3253   3.741   6.616  13.130 -0.4630 -0.6825 -1.1618
   26DOPE    HY 3254   3.886   6.510  13.163 -1.2812 -0.9591 -0.0656
   26DOPE   O31 3255   3.866   6.551  12.968  0.1715 -0.0502  0.2623
   26DOPE   C31 3256   3.778   6.607  12.881  0.1124  0.1669 -0.7830
   26DOPE   O32 3257   3.677   6.660  12.912 -0.1056  0.3985 -0.3054
   26DOPE   C32 3258   3.824   6.586  12.739  0.5708  0.0806  0.5538
   26DOPE   H2X 3259   3.891   6.668  12.705  0.7216 -0.0327  0.5779
   26DOPE   H2Y 3260   3.875   6.487  12.740  0.9436  0.2180 -1.0203
   26DOPE   C23 3261   3.804   6.966  12.800 -0.2836 -0.1815  0.0921
   26DOPE   H3R 3262   3.734   6.895  12.849 -1.1471 -0.8616 -2.0311
   26DOPE   H3S 3263   3.856   6.909  12.721 -0.6982  0.9988 -1.0796
   26DOPE   C24 3264   3.709   7.080  12.735  0.1689 -0.9197  0.8786
   26DOPE   H4R 3265   3.792   7.152  12.716 -0.6224 -0.1356  0.3541
   26DOPE   H4S 3266   3.642   7.124  12.812  0.7197  1.5406  0.0354
   26DOPE   C25 3267   3.621   7.017  12.621  0.0623  0.5790  0.6939
   26DOPE   H5R 3268   3.525   7.072  12.624 -2.1804 -3.0572  0.9375
   26DOPE   H5S 3269   3.599   6.910  12.639  0.9022 -0.0127 -1.4237
   26DOPE   C26 3270   3.697   7.027  12.485 -0.3634  0.0223  0.5984
   26DOPE   H6R 3271   3.798   6.980  12.489 -0.0889  0.6405  1.1641
   26DOPE   H6S 3272   3.710   7.136  12.469  1.2894 -0.1600  0.4946
   26DOPE   C27 3273   3.619   6.967  12.367 -0.1143 -0.8740  0.2290
   26DOPE   H7R 3274   3.544   7.044  12.335 -2.0727 -2.5318  0.6015
   26DOPE   H7S 3275   3.560   6.880  12.404 -1.4491  0.8944  2.5699
   26DOPE   C28 3276   3.689   6.922  12.236  0.7767 -0.4292 -0.8750
   26DOPE   H8R 3277   3.605   6.884  12.175  0.7068 -1.9184  0.1171
   26DOPE   H8S 3278   3.766   6.845  12.257  0.5662 -0.1851  0.9200
   26DOPE   C29 3279   3.748   7.045  12.168 -0.4845 -0.7311 -0.0791
   26DOPE   H9R 3280   3.837   7.093  12.211 -2.0336  3.0509 -0.7126
   26DOPE  C210 3281   3.706   7.095  12.049 -1.0850  0.6321 -0.0132
   26DOPE  H10R 3282   3.766   7.172  11.997  1.5726 -0.2716  1.5091
   26DOPE  C211 3283   3.584   7.056  11.970 -0.1203 -0.7162 -0.3793
   26DOPE  H11R 3284   3.530   7.144  11.928 -2.1024 -1.5153  0.3380
   26DOPE  H11S 3285   3.513   7.011  12.042 -0.7760  0.4282 -0.2907
   26DOPE  C212 3286   3.623   6.944  11.873 -0.0563  0.3577  1.0732
   26DOPE  H12R 3287   3.534   6.884  11.845 -0.1227  0.6908  0.5503
   26DOPE  H12S 3288   3.686   6.873  11.930  0.2193 -0.4047 -0.1354
   26DOPE  C213 3289   3.703   6.985  11.747  0.3363  0.1464  0.0682
   26DOPE  H13R 3290   3.804   7.017  11.780  0.1645  0.6096  0.1604
   26DOPE  H13S 3291   3.652   7.071  11.699  1.2139 -0.2397 -1.5987
   26DOPE  C214 3292   3.717   6.860  11.658  0.3072 -0.0382  0.8855
   26DOPE  H14R 3293   3.620   6.808  11.647  0.7963 -0.5291 -1.6479
   26DOPE  H14S 3294   3.787   6.789  11.707 -1.5682 -0.5123  3.0460
   26DOPE  C215 3295   3.763   6.893  11.513  0.2831  0.2732 -0.3336
   26DOPE  H15R 3296   3.854   6.955  11.524  0.7736 -0.0692 -2.1697
   26DOPE  H15S 3297   3.697   6.968  11.463 -0.4787 -1.2233 -1.6658
   26DOPE  C216 3298   3.793   6.775  11.419 -0.2209 -1.2177 -0.0067
   26DOPE  H16R 3299   3.810   6.820  11.319  2.9640  0.1239  0.9970
   26DOPE  H16S 3300   3.715   6.696  11.427 -0.0151 -1.8892 -3.3682
   26DOPE  C217 3301   3.933   6.704  11.444 -0.5499 -0.8138  0.5170
   26DOPE  H17R 3302   3.921   6.621  11.518 -1.0365 -1.3035 -0.1046
   26DOPE  H17S 3303   3.994   6.784  11.491 -1.0072  1.2556 -2.1828
   26DOPE  C218 3304   4.006   6.641  11.321 -0.9215  0.2973 -0.3867
   26DOPE  H18R 3305   4.043   6.723  11.256 -0.8454  0.6882  0.1450
   26DOPE  H18S 3306   3.947   6.573  11.256  0.6306 -0.8356 -0.6576
   26DOPE  H18T 3307   4.092   6.584  11.362 -1.7275  0.0423  1.0147
   26DOPE   C33 3308   3.719   6.586  12.627 -0.3524  0.0651  0.4382
   26DOPE   H3X 3309   3.643   6.665  12.645 -1.2256 -0.6408 -0.0840
   26DOPE   H3Y 3310   3.666   6.489  12.619  0.2889 -0.1471 -2.4279
   26DOPE   C34 3311   3.801   6.596  12.497  0.1027  0.3968  0.3923
   26DOPE   H4X 3312   3.843   6.699  12.495  1.4171 -0.1375 -1.0710
   26DOPE   H4Y 3313   3.885   6.524  12.508 -0.2437  0.1832  1.8038
   26DOPE   C35 3314   3.714   6.560  12.375  0.0486 -0.0046 -0.1347
   26DOPE   H5X 3315   3.644   6.647  12.366 -1.0369 -0.9189 -0.7685
   26DOPE   H5Y 3316   3.650   6.469  12.380 -1.2100  0.9115  1.9287
   26DOPE   C36 3317   3.809   6.557  12.252 -0.2530 -0.1512  0.1915
   26DOPE   H6X 3318   3.888   6.480  12.267 -0.1967 -0.0832  0.2435
   26DOPE   H6Y 3319   3.867   6.652  12.253  1.0115 -0.8993 -0.5129
   26DOPE   C37 3320   3.741   6.539  12.113  0.3222 -0.9014 -1.2949
   26DOPE   H7X 3321   3.671   6.454  12.128  0.9893 -1.1494  0.6614
   26DOPE   H7Y 3322   3.673   6.625  12.094  0.6540 -0.1884  0.5542
   26DOPE   C38 3323   3.842   6.527  11.991  0.0846 -0.5228 -0.2570
   26DOPE   H8X 3324   3.881   6.425  12.011  1.7105  0.4106  1.6088
   26DOPE   H8Y 3325   3.913   6.610  12.011  0.9717 -1.9456  3.0740
   26DOPE   C39 3326   3.776   6.550  11.862 -0.4165  0.5417 -0.2623
   26DOPE   H9X 3327   3.715   6.641  11.852 -0.6657  0.4087  0.0335
   26DOPE  C310 3328   3.799   6.481  11.747 -0.2731  0.3486  0.2876
   26DOPE  H10X 3329   3.758   6.521  11.654  0.7696 -0.5377 -0.5839
   26DOPE  C311 3330   3.895   6.364  11.729  0.2659  0.5154  0.1313
   26DOPE  H11X 3331   3.974   6.398  11.658  2.2237 -0.3566  1.8100
   26DOPE  H11Y 3332   3.956   6.332  11.816  0.3596 -1.4616 -0.5892
   26DOPE  C312 3333   3.827   6.234  11.683  0.8621  0.1510  0.0828
   26DOPE  H12X 3334   3.780   6.251  11.584 -0.5600  0.8390  0.8399
   26DOPE  H12Y 3335   3.748   6.200  11.754  1.4054 -1.3771 -0.0022
   26DOPE  C313 3336   3.932   6.120  11.648 -0.0249 -0.0222 -0.2427
   26DOPE  H13X 3337   3.976   6.097  11.748  0.9229  0.7891 -0.4500
   26DOPE  H13Y 3338   3.885   6.025  11.614  0.4164 -0.7559  1.1267
   26DOPE  C314 3339   4.038   6.156  11.543 -0.0210 -0.0589  0.0536
   26DOPE  H14X 3340   4.100   6.242  11.576 -3.2265  1.7284  1.9428
   26DOPE  H14Y 3341   3.973   6.189  11.460  0.2562  0.0774 -0.1120
   26DOPE  C315 3342   4.133   6.045  11.511  0.4047 -0.4125  1.1308
   26DOPE  H15X 3343   4.077   5.956  11.474  1.0056  0.1583 -1.3415
   26DOPE  H15Y 3344   4.190   6.024  11.604  0.8931  0.5374  1.0587
   26DOPE  C316 3345   4.227   6.103  11.409 -0.1229  0.1547  0.7455
   26DOPE  H16X 3346   4.276   6.192  11.454  1.3794  0.8579 -1.9948
   26DOPE  H16Y 3347   4.178   6.128  11.312 -0.7975 -1.4898  0.6302
   26DOPE  C317 3348   4.333   6.001  11.363  0.2646  0.5284  0.6372
   26DOPE  H17X 3349   4.421   6.013  11.431  1.4485 -0.7441 -0.5998
   26DOPE  H17Y 3350   4.293   5.899  11.380 -0.1493  0.8833  1.9818
   26DOPE  C318 3351   4.387   6.047  11.218  0.6003  0.7151  0.0156
   26DOPE  H18X 3352   4.306   6.048  11.143 -0.4964  0.4621  1.1723
   26DOPE  H18Y 3353   4.428   6.147  11.241  2.3500 -0.1601  0.9487
   26DOPE  H18Z 3354   4.472   5.991  11.173  0.3514  0.4348 -0.1071
   27DOPE     N 3355   1.567   3.156  14.154 -0.2066  0.0063 -0.0440
   27DOPE   HN1 3356   1.518   3.198  14.236  0.3697  0.8477 -0.1256
   27DOPE   HN2 3357   1.541   3.056  14.167 -1.4221  0.1779 -1.0380
   27DOPE   HN3 3358   1.670   3.166  14.160 -0.3574  3.4057 -1.1908
   27DOPE   C12 3359   1.509   3.205  14.022  0.9484 -0.2761 -0.1583
   27DOPE  H12A 3360   1.578   3.167  13.943 -2.6932 -2.1015 -2.7668
   27DOPE  H12B 3361   1.502   3.316  14.024  0.3231 -0.3315  1.5088
   27DOPE   C11 3362   1.367   3.151  13.998  0.0035 -0.5979  0.6797
   27DOPE  H11A 3363   1.352   3.174  13.891  2.1068 -1.1208  0.2166
   27DOPE  H11B 3364   1.296   3.203  14.065  0.8002  0.6796  0.5719
   27DOPE     P 3365   1.251   2.916  13.969  0.1452 -0.4178 -0.0065
   27DOPE   O13 3366   1.123   2.987  13.998 -0.1651  0.3583  0.6288
   27DOPE   O14 3367   1.273   2.780  14.024 -0.1427 -0.2928 -0.0478
   27DOPE   O11 3368   1.276   2.918  13.811 -0.0117 -0.1626  0.0792
   27DOPE   O12 3369   1.369   3.010  14.013 -0.5487  0.2976 -0.3211
   27DOPE    C1 3370   1.192   2.853  13.717  0.0995  0.6499  0.7324
   27DOPE    HA 3371   1.111   2.800  13.771 -0.2808  1.9227  1.4700
   27DOPE    HB 3372   1.244   2.777  13.655  0.7942  2.2585 -0.7633
   27DOPE    C2 3373   1.120   2.950  13.608  0.3227 -0.3413 -0.0633
   27DOPE    HS 3374   1.035   2.901  13.555  0.7771  0.5536 -1.6754
   27DOPE   O21 3375   1.207   2.998  13.508  0.1763  0.0516 -0.0217
   27DOPE   C21 3376   1.201   2.936  13.387 -0.8452  0.8141 -0.2844
   27DOPE   O22 3377   1.122   2.845  13.362  0.4450  0.3794  0.4936
   27DOPE   C22 3378   1.310   3.010  13.293 -0.0066 -0.2743  0.8670
   27DOPE   H2R 3379   1.406   2.973  13.334 -0.0546 -0.0546  1.1830
   27DOPE   H2S 3380   1.301   3.119  13.313 -0.4177  0.0658 -0.9485
   27DOPE    C3 3381   1.052   3.064  13.684 -0.3801 -0.2439  0.1981
   27DOPE    HX 3382   1.129   3.130  13.729 -0.9060 -0.2499  1.1374
   27DOPE    HY 3383   0.987   3.028  13.767 -0.5891  2.3979  1.2798
   27DOPE   O31 3384   0.974   3.138  13.588 -0.3783 -0.7338 -0.1109
   27DOPE   C31 3385   0.851   3.114  13.565  0.4152 -0.3779  0.7268
   27DOPE   O32 3386   0.778   3.029  13.612  0.1628 -0.3704 -0.0134
   27DOPE   C32 3387   0.795   3.221  13.468  0.3224  0.4514  0.0184
   27DOPE   H2X 3388   0.689   3.240  13.496 -0.0695 -0.4005 -0.8410
   27DOPE   H2Y 3389   0.845   3.317  13.493 -2.0209  1.0244  3.1503
   27DOPE   C23 3390   1.307   2.980  13.139 -0.5664 -0.0447  0.2121
   27DOPE   H3R 3391   1.314   2.872  13.113  2.7445  0.3672 -1.1218
   27DOPE   H3S 3392   1.398   3.024  13.092 -1.0533 -0.4056 -1.1311
   27DOPE   C24 3393   1.188   3.042  13.073 -0.1143 -0.0203  1.1938
   27DOPE   H4R 3394   1.198   3.153  13.066  0.7865  0.1019  3.5446
   27DOPE   H4S 3395   1.096   3.024  13.131 -0.6291 -2.0788 -0.1502
   27DOPE   C25 3396   1.172   2.990  12.926  0.1059  0.6641 -0.3029
   27DOPE   H5R 3397   1.062   3.000  12.914 -0.3672 -0.7480  2.2050
   27DOPE   H5S 3398   1.200   2.883  12.921  0.3074  0.6901  0.1534
   27DOPE   C26 3399   1.267   3.059  12.831 -0.4539 -0.5722  0.3359
   27DOPE   H6R 3400   1.373   3.035  12.855  0.5057  0.9155 -2.1444
   27DOPE   H6S 3401   1.262   3.167  12.856 -0.5379  0.3737 -3.3221
   27DOPE   C27 3402   1.251   3.035  12.686  0.2852 -0.3621  0.3330
   27DOPE   H7R 3403   1.317   3.097  12.621  1.1347 -0.0182  1.4925
   27DOPE   H7S 3404   1.148   3.062  12.654  1.3302  1.1771 -1.9543
   27DOPE   C28 3405   1.281   2.891  12.643 -0.2035  0.1627 -0.0837
   27DOPE   H8R 3406   1.236   2.866  12.545 -0.6730 -1.3814  0.4872
   27DOPE   H8S 3407   1.212   2.841  12.715  0.7373 -1.8836 -0.5214
   27DOPE   C29 3408   1.414   2.829  12.676 -0.2867  0.2003  0.3042
   27DOPE   H9R 3409   1.424   2.813  12.784  1.2567  1.7914  0.4439
   27DOPE  C210 3410   1.514   2.800  12.587 -0.7594 -0.3564 -0.0335
   27DOPE  H10R 3411   1.604   2.762  12.637 -1.7639 -1.2641  1.1629
   27DOPE  C211 3412   1.524   2.818  12.440 -0.0773  0.1500 -0.4560
   27DOPE  H11R 3413   1.424   2.815  12.391  0.9430  0.5002 -2.6927
   27DOPE  H11S 3414   1.588   2.744  12.388  1.4470  0.9418  0.2363
   27DOPE  C212 3415   1.571   2.961  12.409  0.0660 -0.1048 -0.5547
   27DOPE  H12R 3416   1.673   2.968  12.452 -1.4248 -0.7434  3.5681
   27DOPE  H12S 3417   1.494   3.013  12.470 -0.0161 -3.4616  2.5332
   27DOPE  C213 3418   1.555   3.006  12.266  0.0295 -0.0582  0.5364
   27DOPE  H13R 3419   1.606   3.104  12.258 -0.0510 -0.1556 -2.5638
   27DOPE  H13S 3420   1.450   3.015  12.230  0.5560  1.4824 -0.7325
   27DOPE  C214 3421   1.629   2.939  12.147  0.0760 -0.0180  0.3178
   27DOPE  H14R 3422   1.606   2.831  12.137  0.5540  0.0753 -2.6013
   27DOPE  H14S 3423   1.738   2.937  12.172  0.3329 -0.6018 -0.7946
   27DOPE  C215 3424   1.616   3.007  12.008  0.4041  0.9269 -0.3805
   27DOPE  H15R 3425   1.582   3.113  12.012 -0.3832  0.7148 -1.1281
   27DOPE  H15S 3426   1.529   2.963  11.956 -0.4496  1.0013  0.9402
   27DOPE  C216 3427   1.749   3.005  11.933 -0.4154  0.0561 -0.7455
   27DOPE  H16R 3428   1.768   2.900  11.906 -0.3891 -0.1944  0.1993
   27DOPE  H16S 3429   1.831   3.049  11.995  1.1945 -2.1187 -1.2470
   27DOPE  C217 3430   1.747   3.100  11.810  0.4467 -0.0801 -0.0575
   27DOPE  H17R 3431   1.715   3.197  11.855 -4.2887 -2.3226  2.2369
   27DOPE  H17S 3432   1.669   3.072  11.736 -0.8035  2.2355  0.2656
   27DOPE  C218 3433   1.875   3.120  11.726 -0.0754  1.0901 -0.6641
   27DOPE  H18R 3434   1.865   3.205  11.655  0.2064  0.1427 -1.8710
   27DOPE  H18S 3435   1.900   3.028  11.669 -1.3086  0.6763 -0.5525
   27DOPE  H18T 3436   1.953   3.151  11.799 -0.1152  1.6835 -0.8676
   27DOPE   C33 3437   0.795   3.173  13.328  0.1875  0.0410  0.5806
   27DOPE   H3X 3438   0.714   3.098  13.323 -0.4964  0.8386 -2.2489
   27DOPE   H3Y 3439   0.889   3.117  13.306 -0.6929 -0.9754 -0.7521
   27DOPE   C34 3440   0.776   3.286  13.223 -0.2370 -0.5304 -0.5794
   27DOPE   H4X 3441   0.673   3.327  13.227 -0.0357  0.0624 -1.1851
   27DOPE   H4Y 3442   0.846   3.372  13.232 -0.0864 -0.8484  2.0489
   27DOPE   C35 3443   0.778   3.226  13.081  0.5477 -0.3452  0.0905
   27DOPE   H5X 3444   0.694   3.154  13.066 -0.3655  0.8349 -0.6965
   27DOPE   H5Y 3445   0.870   3.166  13.064  0.3364 -0.1811 -1.8591
   27DOPE   C36 3446   0.776   3.329  12.962 -0.4233  0.1692  0.3796
   27DOPE   H6X 3447   0.856   3.404  12.981 -1.2341  1.2238 -0.2680
   27DOPE   H6Y 3448   0.686   3.393  12.958  0.1134  0.9002 -0.2499
   27DOPE   C37 3449   0.793   3.270  12.821 -0.1520 -0.3022  1.0565
   27DOPE   H7X 3450   0.730   3.180  12.810  0.1655 -0.3236 -1.0294
   27DOPE   H7Y 3451   0.759   3.334  12.737 -2.2550 -0.4442  1.7427
   27DOPE   C38 3452   0.940   3.248  12.793  0.9887 -0.3154  0.0492
   27DOPE   H8X 3453   0.939   3.198  12.694 -3.4906 -0.1567 -0.1741
   27DOPE   H8Y 3454   0.994   3.186  12.869  1.2320 -0.9166 -0.6000
   27DOPE   C39 3455   1.030   3.364  12.771  0.0320 -0.3510  0.6544
   27DOPE   H9X 3456   1.100   3.401  12.848  2.3645 -0.3751 -1.3386
   27DOPE  C310 3457   1.049   3.425  12.651  0.3312  0.5752 -0.6391
   27DOPE  H10X 3458   1.107   3.518  12.652  0.4779  0.5000  1.2293
   27DOPE  C311 3459   0.988   3.392  12.516 -0.1358 -0.0285 -0.3078
   27DOPE  H11X 3460   1.070   3.354  12.452 -1.0968 -3.9104  0.5372
   27DOPE  H11Y 3461   0.909   3.316  12.531  0.5911 -0.9267 -0.9425
   27DOPE  C312 3462   0.932   3.515  12.449  0.6587 -0.4070 -0.1162
   27DOPE  H12X 3463   0.901   3.590  12.524 -0.7460  0.9074 -1.9235
   27DOPE  H12Y 3464   0.841   3.492  12.390 -0.2404  2.5880 -0.0483
   27DOPE  C313 3465   1.028   3.575  12.353 -0.2199 -0.5504  0.5380
   27DOPE  H13X 3466   1.110   3.618  12.414 -0.8144 -0.1986  1.1114
   27DOPE  H13Y 3467   1.083   3.506  12.285  1.8277  1.7912 -0.3291
   27DOPE  C314 3468   0.967   3.685  12.265  0.8612 -0.0491  0.1577
   27DOPE  H14X 3469   0.953   3.776  12.328  0.1589  0.4589 -0.6970
   27DOPE  H14Y 3470   0.866   3.659  12.227  0.9865  1.1694 -1.1265
   27DOPE  C315 3471   1.048   3.726  12.142 -0.5197 -0.3962  0.4380
   27DOPE  H15X 3472   1.066   3.631  12.088  0.3869 -0.0905  0.1953
   27DOPE  H15Y 3473   1.146   3.773  12.164  0.1570 -1.1075 -0.9203
   27DOPE  C316 3474   0.972   3.818  12.044 -0.4267  0.1070  0.1229
   27DOPE  H16X 3475   0.920   3.899  12.099 -2.1401 -0.6811 -0.2574
   27DOPE  H16Y 3476   0.888   3.769  11.990 -1.2005  2.4245 -0.8727
   27DOPE  C317 3477   1.057   3.884  11.929 -0.7391  0.3876 -0.6585
   27DOPE  H17X 3478   1.143   3.935  11.977 -0.0602 -0.7826 -0.5843
   27DOPE  H17Y 3479   1.094   3.795  11.873 -0.5408  0.7852 -1.1744
   27DOPE  C318 3480   0.984   3.985  11.837 -0.0684  0.0743 -0.0217
   27DOPE  H18X 3481   1.043   4.030  11.754 -1.7776  0.5491 -1.0341
   27DOPE  H18Y 3482   0.895   3.942  11.786  0.1356  1.6752 -1.8533
   27DOPE  H18Z 3483   0.947   4.067  11.901  1.3633 -0.6216  1.7933
   28DOPE     N 3484   3.771   1.120  13.368 -0.2999 -0.3938  0.3847
   28DOPE   HN1 3485   3.667   1.119  13.375 -0.3020 -0.1693  0.3942
   28DOPE   HN2 3486   3.808   1.047  13.432  0.2750 -0.8992 -0.5156
   28DOPE   HN3 3487   3.804   1.216  13.393 -0.5126  0.0108 -0.8111
   28DOPE   C12 3488   3.817   1.109  13.223  0.2229 -0.7108 -0.1709
   28DOPE  H12A 3489   3.740   1.168  13.169  1.0492  0.2318 -0.3530
   28DOPE  H12B 3490   3.811   1.003  13.191 -2.6279 -0.6303 -0.1427
   28DOPE   C11 3491   3.958   1.154  13.196  0.1740 -0.1610  0.1565
   28DOPE  H11A 3492   3.965   1.260  13.230 -0.3250 -0.9422  2.9513
   28DOPE  H11B 3493   3.974   1.143  13.087  0.6937 -1.5492  0.3593
   28DOPE     P 3494   4.195   1.105  13.299 -0.0738  0.0601 -0.2604
   28DOPE   O13 3495   4.215   1.048  13.439 -0.2425  0.6804  0.5134
   28DOPE   O14 3496   4.199   1.253  13.274  0.5219  0.2606  0.6497
   28DOPE   O11 3497   4.296   1.039  13.194  0.1830 -0.6553  0.0248
   28DOPE   O12 3498   4.054   1.057  13.253  0.1748 -0.3196  0.6344
   28DOPE    C1 3499   4.247   1.025  13.062  0.3884 -0.4045 -0.0809
   28DOPE    HA 3500   4.138   1.020  13.039  0.8121 -0.8026 -2.1882
   28DOPE    HB 3501   4.269   0.921  13.031 -1.1679 -0.8692  0.2652
   28DOPE    C2 3502   4.313   1.128  12.960  0.1881 -0.1436 -0.0950
   28DOPE    HS 3503   4.274   1.227  12.992  0.4026  0.5325 -1.7945
   28DOPE   O21 3504   4.276   1.084  12.825  0.0660 -0.6363  0.4583
   28DOPE   C21 3505   4.155   1.130  12.779  0.4342  0.0145 -0.5242
   28DOPE   O22 3506   4.088   1.211  12.841  0.1982  0.7476 -0.4456
   28DOPE   C22 3507   4.128   1.077  12.635 -0.4217 -0.8902  0.0804
   28DOPE   H2R 3508   4.134   0.966  12.639 -0.1054 -0.8655  0.2944
   28DOPE   H2S 3509   4.210   1.120  12.573 -1.2124 -1.9068 -1.7458
   28DOPE    C3 3510   4.469   1.132  12.994  0.5448 -0.1521 -0.5156
   28DOPE    HX 3511   4.505   1.027  12.994  0.7106 -0.0968 -0.7900
   28DOPE    HY 3512   4.483   1.178  13.094 -0.2694  0.6116 -0.7367
   28DOPE   O31 3513   4.541   1.206  12.892  0.9317  0.0476  0.0999
   28DOPE   C31 3514   4.525   1.336  12.892  0.0021  0.3710 -0.4150
   28DOPE   O32 3515   4.436   1.398  12.951 -0.1118 -0.4150 -0.3101
   28DOPE   C32 3516   4.638   1.395  12.813 -0.0635 -0.3226  0.0616
   28DOPE   H2X 3517   4.622   1.504  12.796 -1.4403 -0.3174  1.1969
   28DOPE   H2Y 3518   4.734   1.396  12.869  0.2954  2.8161 -0.4053
   28DOPE   C23 3519   3.988   1.122  12.591 -0.1363 -0.1368 -0.5933
   28DOPE   H3R 3520   3.984   1.232  12.604  1.3175  0.2178 -2.7558
   28DOPE   H3S 3521   3.914   1.073  12.658  0.2963  2.2201  1.7711
   28DOPE   C24 3522   3.960   1.086  12.443  0.0488  0.4895 -0.3615
   28DOPE   H4R 3523   3.954   0.975  12.435 -1.4588  0.5749 -0.7540
   28DOPE   H4S 3524   4.039   1.128  12.378 -0.6309  0.8476 -0.9708
   28DOPE   C25 3525   3.813   1.131  12.394 -0.4584 -0.9507 -0.7580
   28DOPE   H5R 3526   3.822   1.242  12.401 -0.2702 -1.0911  2.0895
   28DOPE   H5S 3527   3.735   1.101  12.466 -0.9559 -0.0806 -0.9219
   28DOPE   C26 3528   3.772   1.069  12.265  0.0845 -0.2349  0.6441
   28DOPE   H6R 3529   3.667   1.102  12.247  0.1409 -0.9663 -1.3297
   28DOPE   H6S 3530   3.759   0.959  12.263  0.1575 -0.2608 -1.3699
   28DOPE   C27 3531   3.855   1.115  12.147  0.0347 -0.5624 -0.9372
   28DOPE   H7R 3532   3.950   1.060  12.157 -0.3369 -1.3085 -1.3984
   28DOPE   H7S 3533   3.871   1.224  12.160  3.1068 -0.9408 -0.9256
   28DOPE   C28 3534   3.813   1.059  12.010  0.0178 -1.0378 -0.4738
   28DOPE   H8R 3535   3.708   1.088  11.988 -0.0111 -0.9893 -0.2767
   28DOPE   H8S 3536   3.814   0.948  11.998  2.4676 -0.9429 -1.7704
   28DOPE   C29 3537   3.902   1.123  11.909  0.1774  0.3033  0.2021
   28DOPE   H9R 3538   3.980   1.187  11.952 -0.4157  0.0525  1.6905
   28DOPE  C210 3539   3.922   1.094  11.781  0.1210  0.0446 -0.4316
   28DOPE  H10R 3540   3.977   1.156  11.709 -1.5188  1.9046 -0.1800
   28DOPE  C211 3541   3.847   0.990  11.704  0.1954  0.8021 -0.1080
   28DOPE  H11R 3542   3.781   0.927  11.768  2.6400 -1.0828  0.7501
   28DOPE  H11S 3543   3.928   0.928  11.660  0.0265 -0.2785  1.0296
   28DOPE  C212 3544   3.763   1.047  11.583  0.5550 -0.0627 -0.5234
   28DOPE  H12R 3545   3.702   1.132  11.620  1.1089  0.5876 -1.0830
   28DOPE  H12S 3546   3.698   0.966  11.545 -1.3053  0.5690  1.1191
   28DOPE  C213 3547   3.851   1.094  11.472  0.0184 -0.4027  0.4602
   28DOPE  H13R 3548   3.916   1.179  11.503  0.0376 -0.1015 -0.3724
   28DOPE  H13S 3549   3.778   1.134  11.399 -1.6245 -0.2964  2.0774
   28DOPE  C214 3550   3.936   0.984  11.416  1.2318 -0.1236 -0.5360
   28DOPE  H14R 3551   3.884   0.894  11.377  0.4444 -0.1024  0.4285
   28DOPE  H14S 3552   4.006   0.949  11.495  0.4086 -0.2018  0.1695
   28DOPE  C215 3553   4.029   1.037  11.306  0.0256  0.1859  0.0289
   28DOPE  H15R 3554   4.066   1.132  11.350 -1.0325  1.3191 -1.4129
   28DOPE  H15S 3555   3.965   1.062  11.219 -0.3730 -1.7556 -0.2903
   28DOPE  C216 3556   4.132   0.937  11.249 -0.0786  0.1997 -0.2153
   28DOPE  H16R 3557   4.178   0.990  11.164 -1.5533  0.5355 -0.8372
   28DOPE  H16S 3558   4.080   0.850  11.204 -1.2141  1.8816 -2.3357
   28DOPE  C217 3559   4.232   0.884  11.356  0.2051  0.7827 -0.3532
   28DOPE  H17R 3560   4.318   0.833  11.306  1.0984  0.1238  1.7606
   28DOPE  H17S 3561   4.188   0.804  11.419  0.8922 -0.3701 -1.2719
   28DOPE  C218 3562   4.295   0.984  11.442 -0.1814  0.3303 -0.6114
   28DOPE  H18R 3563   4.394   1.014  11.403 -0.0712  0.7912  0.0015
   28DOPE  H18S 3564   4.321   0.950  11.545  0.3415  1.7510 -0.2440
   28DOPE  H18T 3565   4.229   1.073  11.447  0.5233  0.9202 -1.4990
   28DOPE   C33 3566   4.665   1.324  12.679  0.9143  0.6411  0.2727
   28DOPE   H3X 3567   4.692   1.218  12.693  0.7439  0.4613 -0.7119
   28DOPE   H3Y 3568   4.760   1.368  12.640  1.0505  0.2644  0.1802
   28DOPE   C34 3569   4.543   1.353  12.574 -0.8718  0.3600  1.0600
   28DOPE   H4X 3570   4.460   1.289  12.611 -1.2752  0.0484 -0.3161
   28DOPE   H4Y 3571   4.510   1.459  12.570 -2.0756  0.0093  1.3815
   28DOPE   C35 3572   4.576   1.325  12.421 -0.2551  0.4673  0.3493
   28DOPE   H5X 3573   4.619   1.223  12.416  2.9979  1.7209  0.6961
   28DOPE   H5Y 3574   4.662   1.392  12.402 -1.0504  0.9402 -1.8801
   28DOPE   C36 3575   4.459   1.350  12.327 -0.3653 -0.2264  0.1550
   28DOPE   H6X 3576   4.405   1.444  12.349 -0.2104  0.1598 -1.0361
   28DOPE   H6Y 3577   4.387   1.267  12.342 -0.0591 -0.0158  3.4930
   28DOPE   C37 3578   4.503   1.345  12.188 -0.1481  0.1249 -0.2256
   28DOPE   H7X 3579   4.577   1.425  12.167 -0.5407  1.0348  1.6107
   28DOPE   H7Y 3580   4.553   1.246  12.175  1.7270  1.0870 -0.6206
   28DOPE   C38 3581   4.381   1.368  12.096 -0.0079  0.1216  0.1589
   28DOPE   H8X 3582   4.340   1.470  12.106  0.7729  0.8037 -2.6546
   28DOPE   H8Y 3583   4.305   1.294  12.130 -0.8549  0.7005 -0.4248
   28DOPE   C39 3584   4.425   1.354  11.956 -0.5986  0.4023  0.4888
   28DOPE   H9X 3585   4.507   1.418  11.918 -1.2865  0.4515 -0.9952
   28DOPE  C310 3586   4.378   1.260  11.871  0.3533  0.0641  0.1314
   28DOPE  H10X 3587   4.425   1.245  11.773  2.4295  1.2083  0.8976
   28DOPE  C311 3588   4.271   1.158  11.905  0.0907 -0.6262 -0.4504
   28DOPE  H11X 3589   4.204   1.202  11.982 -0.4174  1.1708 -1.8502
   28DOPE  H11Y 3590   4.201   1.148  11.820  0.2824  0.4112 -0.7471
   28DOPE  C312 3591   4.339   1.031  11.953  0.2252  0.4414 -0.3699
   28DOPE  H12X 3592   4.410   1.044  12.037 -1.2225 -0.1968  1.0061
   28DOPE  H12Y 3593   4.388   0.988  11.864 -0.4041 -0.0812 -0.4734
   28DOPE  C313 3594   4.243   0.929  12.011 -0.6978 -0.1365 -0.0686
   28DOPE  H13X 3595   4.139   0.924  11.972 -1.1207  1.0845  0.8471
   28DOPE  H13Y 3596   4.286   0.831  11.981  3.7758  1.8996 -1.0600
   28DOPE  C314 3597   4.226   0.945  12.166 -0.8007 -0.3456  0.1948
   28DOPE  H14X 3598   4.135   0.894  12.202 -0.2193  0.5245  3.0909
   28DOPE  H14Y 3599   4.218   1.052  12.192 -1.4107 -0.2316 -0.4467
   28DOPE  C315 3600   4.345   0.890  12.250 -0.3655  0.4215 -0.2828
   28DOPE  H15X 3601   4.438   0.942  12.221  0.3163 -0.8698 -0.4615
   28DOPE  H15Y 3602   4.357   0.780  12.237  0.8479  0.5133 -0.0287
   28DOPE  C316 3603   4.330   0.909  12.399  0.2529 -0.6345 -0.6809
   28DOPE  H16X 3604   4.226   0.874  12.411  0.4471 -1.1314 -0.4215
   28DOPE  H16Y 3605   4.351   1.017  12.417  0.7088 -0.8159 -0.0848
   28DOPE  C317 3606   4.433   0.839  12.485 -0.1225 -0.1869  0.6684
   28DOPE  H17X 3607   4.422   0.729  12.483  0.1911 -0.2241  0.8088
   28DOPE  H17Y 3608   4.539   0.854  12.453  0.6199  2.5735  3.7359
   28DOPE  C318 3609   4.428   0.881  12.628 -0.2554 -0.9922 -0.2369
   28DOPE  H18X 3610   4.436   0.992  12.634 -2.6509 -0.8300  1.5278
   28DOPE  H18Y 3611   4.330   0.852  12.671  0.1034 -0.4590  0.9805
   28DOPE  H18Z 3612   4.504   0.827  12.688 -1.2362 -3.1564 -0.8226
   29DOPE     N 3613   2.355   2.514  13.799 -0.0668  0.3698 -0.1282
   29DOPE   HN1 3614   2.382   2.463  13.713  2.7615  1.6663 -0.1217
   29DOPE   HN2 3615   2.435   2.530  13.865 -0.9904  3.6611  0.4169
   29DOPE   HN3 3616   2.285   2.454  13.847 -0.8221  0.6349 -0.8783
   29DOPE   C12 3617   2.308   2.658  13.782  0.5717 -0.3871 -1.1738
   29DOPE  H12A 3618   2.385   2.713  13.724  1.5804 -1.4711 -0.8946
   29DOPE  H12B 3619   2.295   2.687  13.888  0.5156 -1.9295 -0.7390
   29DOPE   C11 3620   2.172   2.668  13.713  0.6715  0.0229 -0.1444
   29DOPE  H11A 3621   2.183   2.631  13.609  2.0878 -0.1627  0.0558
   29DOPE  H11B 3622   2.147   2.776  13.712 -1.0777 -0.3496 -1.5737
   29DOPE     P 3623   1.947   2.538  13.709 -0.2075  0.0370  0.3023
   29DOPE   O13 3624   1.824   2.559  13.780 -0.0457 -0.0180 -0.4226
   29DOPE   O14 3625   1.974   2.403  13.655 -0.6111 -0.2357  0.1637
   29DOPE   O11 3626   1.944   2.628  13.581  0.4805 -0.0983  0.1757
   29DOPE   O12 3627   2.072   2.600  13.783  0.4543 -0.0464 -0.2807
   29DOPE    C1 3628   1.875   2.753  13.588  0.4198 -0.5530  0.5099
   29DOPE    HA 3629   1.910   2.815  13.673 -0.7292  1.8151 -0.6562
   29DOPE    HB 3630   1.766   2.734  13.601 -0.3297  1.8238 -1.4594
   29DOPE    C2 3631   1.890   2.825  13.452  0.4253 -0.1617 -0.1095
   29DOPE    HS 3632   1.816   2.763  13.396 -0.6390  0.9279  0.0397
   29DOPE   O21 3633   2.025   2.809  13.397  0.2566  0.0803 -0.2094
   29DOPE   C21 3634   2.033   2.811  13.264  0.4312  0.7648  0.2316
   29DOPE   O22 3635   1.937   2.827  13.192 -0.1550 -1.3835 -0.6906
   29DOPE   C22 3636   2.176   2.813  13.215  0.0887  0.1033  0.4393
   29DOPE   H2R 3637   2.245   2.761  13.285 -0.9506 -1.7035  0.1930
   29DOPE   H2S 3638   2.197   2.922  13.212 -0.5594  0.2215 -0.0325
   29DOPE    C3 3639   1.849   2.981  13.464  0.2441  0.9741 -0.4191
   29DOPE    HX 3640   1.928   3.026  13.528  0.6621 -2.9264  2.1611
   29DOPE    HY 3641   1.755   2.985  13.523  0.7888  0.0647  0.5554
   29DOPE   O31 3642   1.832   3.050  13.345  0.1295 -0.3404 -0.2130
   29DOPE   C31 3643   1.707   3.028  13.287 -0.0989 -0.5048  0.4999
   29DOPE   O32 3644   1.627   2.944  13.327  0.3193  0.0656  0.3974
   29DOPE   C32 3645   1.700   3.124  13.165  0.1650 -0.1846  0.4662
   29DOPE   H2X 3646   1.599   3.115  13.119  1.0021 -1.1469 -1.2677
   29DOPE   H2Y 3647   1.703   3.229  13.200 -0.3335  1.0229 -2.7423
   29DOPE   C23 3648   2.195   2.754  13.067  0.0051 -0.1196 -0.0759
   29DOPE   H3R 3649   2.136   2.662  13.054 -2.5752  1.7119 -2.5166
   29DOPE   H3S 3650   2.303   2.726  13.064 -0.1918 -0.9837  0.4712
   29DOPE   C24 3651   2.168   2.854  12.948 -0.5384  0.6128 -0.0710
   29DOPE   H4R 3652   2.231   2.945  12.958 -1.0195  0.8584  0.8938
   29DOPE   H4S 3653   2.057   2.862  12.951 -0.6176 -0.5734  1.1936
   29DOPE   C25 3654   2.207   2.788  12.819 -0.2351 -0.2948  0.2335
   29DOPE   H5R 3655   2.156   2.690  12.826 -0.0490 -0.5790 -1.7274
   29DOPE   H5S 3656   2.318   2.788  12.811 -0.3096  1.2299 -1.7561
   29DOPE   C26 3657   2.160   2.863  12.691  0.9162 -1.2265 -0.3533
   29DOPE   H6R 3658   2.191   2.968  12.711  1.7261 -1.6930  1.0610
   29DOPE   H6S 3659   2.050   2.867  12.682  1.0026 -0.2773 -1.0156
   29DOPE   C27 3660   2.225   2.820  12.564 -0.0851  0.3434  0.2738
   29DOPE   H7R 3661   2.187   2.720  12.535 -4.0583  1.9840 -0.8535
   29DOPE   H7S 3662   2.335   2.803  12.576 -0.4794 -3.2679 -0.3250
   29DOPE   C28 3663   2.198   2.914  12.446  0.9603  0.0932 -0.2162
   29DOPE   H8R 3664   2.204   3.017  12.487 -2.1489 -0.4988  2.0526
   29DOPE   H8S 3665   2.091   2.908  12.413  1.0479  0.1334 -0.5130
   29DOPE   C29 3666   2.304   2.881  12.338 -0.3333 -0.0783 -0.1537
   29DOPE   H9R 3667   2.408   2.877  12.375 -0.5296  1.3161  0.6194
   29DOPE  C210 3668   2.288   2.895  12.204  0.0196 -0.1718 -0.4957
   29DOPE  H10R 3669   2.379   2.871  12.147  1.8621  1.2300  1.6951
   29DOPE  C211 3670   2.159   2.940  12.137 -0.3188 -0.0383  0.5376
   29DOPE  H11R 3671   2.078   2.949  12.213 -0.0600 -0.4376  0.8625
   29DOPE  H11S 3672   2.124   2.859  12.070  1.8832 -0.7610  0.1998
   29DOPE  C212 3673   2.166   3.074  12.067 -0.1011  0.2190  0.3476
   29DOPE  H12R 3674   2.184   3.157  12.139  1.6575 -0.2014  0.4368
   29DOPE  H12S 3675   2.068   3.103  12.023  1.1215  4.0392 -0.2571
   29DOPE  C213 3676   2.263   3.083  11.954 -0.3652  0.5954  0.3430
   29DOPE  H13R 3677   2.246   3.009  11.873 -0.9444  1.8082 -0.6834
   29DOPE  H13S 3678   2.365   3.075  11.997 -0.2659 -0.5202 -0.0750
   29DOPE  C214 3679   2.268   3.218  11.886 -0.6537 -0.3352  0.1514
   29DOPE  H14R 3680   2.272   3.291  11.970 -0.5271 -0.9272  0.6642
   29DOPE  H14S 3681   2.169   3.233  11.837 -0.8650  1.6968  1.0858
   29DOPE  C215 3682   2.375   3.245  11.777 -0.2383 -0.5778 -0.3820
   29DOPE  H15R 3683   2.340   3.193  11.686 -1.7631  0.4485 -0.4195
   29DOPE  H15S 3684   2.477   3.212  11.805 -0.3587 -0.8712 -0.2831
   29DOPE  C216 3685   2.379   3.394  11.755 -0.4532  1.3089  0.0315
   29DOPE  H16R 3686   2.393   3.446  11.852 -0.5708 -1.7574  1.8091
   29DOPE  H16S 3687   2.283   3.426  11.708  0.4584  1.4456 -1.8183
   29DOPE  C217 3688   2.491   3.425  11.658 -0.4371 -0.0533 -0.1534
   29DOPE  H17R 3689   2.469   3.380  11.559 -0.9647 -0.4811  0.1491
   29DOPE  H17S 3690   2.586   3.372  11.682 -0.3019  0.5825  0.7462
   29DOPE  C218 3691   2.521   3.576  11.641  0.4231  0.1359 -0.4014
   29DOPE  H18R 3692   2.584   3.589  11.551  0.1531  2.6738 -0.3004
   29DOPE  H18S 3693   2.572   3.621  11.729 -0.5017 -0.4176  0.4468
   29DOPE  H18T 3694   2.427   3.634  11.631  0.6971  1.3052  2.6387
   29DOPE   C33 3695   1.789   3.068  13.054 -0.1729 -0.6907 -0.1979
   29DOPE   H3X 3696   1.768   2.963  13.025  0.3350 -0.4241 -1.6518
   29DOPE   H3Y 3697   1.897   3.076  13.082 -0.6280  1.5161  1.1680
   29DOPE   C34 3698   1.784   3.155  12.920  0.5862 -0.1146  0.5555
   29DOPE   H4X 3699   1.679   3.186  12.899 -0.6202 -1.6489  3.6496
   29DOPE   H4Y 3700   1.832   3.251  12.951 -0.8621 -0.1521  3.2819
   29DOPE   C35 3701   1.839   3.082  12.791 -0.3704 -0.5670 -0.4907
   29DOPE   H5X 3702   1.758   3.029  12.736  0.2559 -0.6868 -1.3088
   29DOPE   H5Y 3703   1.918   3.018  12.834  1.8994  2.4604  0.1802
   29DOPE   C36 3704   1.905   3.180  12.697  0.1973  0.6301  0.3815
   29DOPE   H6X 3705   1.970   3.116  12.634  0.4436  0.6781  0.5863
   29DOPE   H6Y 3706   1.973   3.250  12.750  0.6369  1.4884 -1.2452
   29DOPE   C37 3707   1.799   3.257  12.617 -0.0105  0.2162 -0.1389
   29DOPE   H7X 3708   1.714   3.191  12.591  0.3475  0.1153 -1.0649
   29DOPE   H7Y 3709   1.758   3.343  12.674  2.5894  0.4622  1.5373
   29DOPE   C38 3710   1.870   3.312  12.489 -0.0405 -0.0713 -0.0411
   29DOPE   H8X 3711   1.962   3.360  12.528  0.4468 -1.2002  0.2543
   29DOPE   H8Y 3712   1.810   3.397  12.450 -0.4265  0.3220  1.3674
   29DOPE   C39 3713   1.902   3.203  12.384  0.5864  0.0454 -0.0250
   29DOPE   H9X 3714   1.911   3.100  12.422 -2.1196  0.0409  0.7831
   29DOPE  C310 3715   1.878   3.213  12.251  0.0058 -0.5236  0.3879
   29DOPE  H10X 3716   1.902   3.126  12.189  3.1178  0.2359  0.3753
   29DOPE  C311 3717   1.848   3.337  12.168 -0.3561 -0.4512  0.1035
   29DOPE  H11X 3718   1.751   3.318  12.118  0.8098 -1.5308 -1.8529
   29DOPE  H11Y 3719   1.836   3.426  12.234 -1.5114  1.0896 -2.0638
   29DOPE  C312 3720   1.955   3.380  12.063 -0.3784  0.4160  0.7360
   29DOPE  H12X 3721   1.969   3.304  11.983  1.0406  2.9642 -1.5780
   29DOPE  H12Y 3722   2.057   3.387  12.107 -0.1091 -0.6170  0.3183
   29DOPE  C313 3723   1.925   3.513  11.992  0.1741 -0.4141 -0.0555
   29DOPE  H13X 3724   1.823   3.515  11.950  0.4973  0.0865 -0.8391
   29DOPE  H13Y 3725   1.928   3.589  12.073  0.4371 -0.1633 -0.2995
   29DOPE  C314 3726   2.021   3.546  11.880  0.0549  0.3687 -0.0884
   29DOPE  H14X 3727   1.990   3.476  11.800 -1.3900  2.4217 -1.4232
   29DOPE  H14Y 3728   2.125   3.529  11.918  0.2698  0.6657 -0.5348
   29DOPE  C315 3729   2.006   3.688  11.816  0.5488 -0.1263 -0.0680
   29DOPE  H15X 3730   2.019   3.767  11.893  1.2052 -0.5274  0.2470
   29DOPE  H15Y 3731   1.897   3.686  11.796  0.5481  0.7292 -0.1544
   29DOPE  C316 3732   2.085   3.711  11.692 -0.1206  0.2508  0.2823
   29DOPE  H16X 3733   2.052   3.643  11.611 -1.1470  1.0016  0.0548
   29DOPE  H16Y 3734   2.195   3.704  11.709  0.1753 -1.1469 -1.8456
   29DOPE  C317 3735   2.053   3.852  11.626  0.0874 -0.3835 -0.4547
   29DOPE  H17X 3736   1.943   3.844  11.608 -0.0958 -0.0123  0.4711
   29DOPE  H17Y 3737   2.076   3.933  11.697  3.7508 -0.3634 -1.4990
   29DOPE  C318 3738   2.113   3.894  11.501 -0.4855  0.1310 -0.3319
   29DOPE  H18X 3739   2.068   3.985  11.456  0.1933  1.1415  1.0012
   29DOPE  H18Y 3740   2.222   3.914  11.503 -0.4713  0.0757  2.1723
   29DOPE  H18Z 3741   2.109   3.808  11.429  1.1813 -1.4755  1.3662
   30DOPE     N 3742   1.936   2.329  13.405 -0.0314 -0.4978  0.3888
   30DOPE   HN1 3743   1.969   2.233  13.387 -0.4583 -0.4774 -0.5513
   30DOPE   HN2 3744   1.962   2.352  13.504  0.9062 -1.0623  0.2798
   30DOPE   HN3 3745   1.834   2.312  13.408  0.3019 -2.8741 -0.0592
   30DOPE   C12 3746   1.983   2.431  13.302  0.0979 -0.2622  0.0440
   30DOPE  H12A 3747   1.964   2.534  13.338 -1.1661 -0.5651  0.3327
   30DOPE  H12B 3748   1.907   2.420  13.221 -0.4216 -0.5702  0.5589
   30DOPE   C11 3749   2.135   2.414  13.260 -0.0297 -0.4050  0.3322
   30DOPE  H11A 3750   2.146   2.485  13.175 -3.0087 -0.0605  0.1224
   30DOPE  H11B 3751   2.144   2.310  13.222  0.6632 -0.4173  0.5194
   30DOPE     P 3752   2.337   2.367  13.421 -0.3099 -0.0929 -0.0190
   30DOPE   O13 3753   2.292   2.231  13.450  0.7896  0.0910 -0.2535
   30DOPE   O14 3754   2.404   2.439  13.532  0.4933  0.9260  0.6158
   30DOPE   O11 3755   2.430   2.371  13.286  0.1660 -0.6782 -0.3130
   30DOPE   O12 3756   2.219   2.448  13.369  0.0042 -0.7746  0.2299
   30DOPE    C1 3757   2.490   2.496  13.253 -0.2413  0.0262  0.5040
   30DOPE    HA 3758   2.576   2.510  13.322 -1.0636  2.6759  1.0857
   30DOPE    HB 3759   2.422   2.583  13.264  1.4608  1.3612  0.9789
   30DOPE    C2 3760   2.542   2.511  13.105 -0.5277  0.3923 -0.1709
   30DOPE    HS 3761   2.565   2.617  13.083  1.6450  0.5082  2.1785
   30DOPE   O21 3762   2.451   2.463  13.009  0.6757 -0.0699 -1.0581
   30DOPE   C21 3763   2.426   2.530  12.898  0.0342  0.0719  0.2802
   30DOPE   O22 3764   2.473   2.635  12.870  0.2362 -0.3785  0.4119
   30DOPE   C22 3765   2.353   2.439  12.803 -0.3516  0.6301 -0.5518
   30DOPE   H2R 3766   2.252   2.485  12.796  0.1770  2.1821  1.2251
   30DOPE   H2S 3767   2.364   2.341  12.856  3.1845  1.7672  1.1456
   30DOPE    C3 3768   2.668   2.420  13.089 -0.5299 -0.6143 -0.2220
   30DOPE    HX 3769   2.624   2.320  13.110 -1.3848 -0.0555  0.7512
   30DOPE    HY 3770   2.742   2.444  13.169 -1.1026  0.8822 -0.1229
   30DOPE   O31 3771   2.729   2.431  12.957  0.4570  0.1324 -0.3331
   30DOPE   C31 3772   2.764   2.317  12.904 -0.9644 -0.3213 -0.7290
   30DOPE   O32 3773   2.767   2.204  12.948  0.2135 -0.2891  0.6322
   30DOPE   C32 3774   2.799   2.350  12.758  0.2627 -0.8676  0.1599
   30DOPE   H2X 3775   2.735   2.432  12.720 -1.5206 -1.9813  0.6661
   30DOPE   H2Y 3776   2.900   2.397  12.765 -1.0815  1.9139  4.1017
   30DOPE   C23 3777   2.426   2.423  12.666 -0.1310  0.2743 -0.1041
   30DOPE   H3R 3778   2.520   2.365  12.678 -1.2696 -1.4277  0.9421
   30DOPE   H3S 3779   2.444   2.523  12.620 -0.4971 -0.0583 -0.9944
   30DOPE   C24 3780   2.327   2.367  12.560 -0.0800  0.1878  0.3499
   30DOPE   H4R 3781   2.241   2.432  12.532  0.0042 -1.0457 -3.4147
   30DOPE   H4S 3782   2.284   2.273  12.602 -0.4051  0.4678  0.6401
   30DOPE   C25 3783   2.392   2.326  12.423 -0.2809  0.1080 -0.1490
   30DOPE   H5R 3784   2.317   2.278  12.355  0.4496 -1.6890  0.2453
   30DOPE   H5S 3785   2.475   2.254  12.438  1.6765  2.4813  1.0148
   30DOPE   C26 3786   2.463   2.442  12.346 -0.2985  0.2937  0.3867
   30DOPE   H6R 3787   2.552   2.460  12.408  0.8344 -1.3880 -0.6704
   30DOPE   H6S 3788   2.383   2.519  12.338 -0.4533  0.0216 -0.9328
   30DOPE   C27 3789   2.514   2.388  12.205 -0.0607 -0.5515 -0.0077
   30DOPE   H7R 3790   2.424   2.368  12.143  0.2041  0.2793 -0.6830
   30DOPE   H7S 3791   2.565   2.293  12.233 -2.6881 -1.2068  3.1574
   30DOPE   C28 3792   2.608   2.488  12.136 -0.3775 -0.5259 -0.5084
   30DOPE   H8R 3793   2.664   2.441  12.053  0.8861  0.7471 -0.4071
   30DOPE   H8S 3794   2.690   2.509  12.208  0.4295 -0.9782 -1.2821
   30DOPE   C29 3795   2.533   2.619  12.095  0.1100 -0.0957  0.6087
   30DOPE   H9R 3796   2.445   2.636  12.158 -0.3155 -0.4792  0.1253
   30DOPE  C210 3797   2.553   2.694  11.981 -0.2079  0.6337  0.3167
   30DOPE  H10R 3798   2.484   2.779  11.966 -0.4484  0.2653 -0.6987
   30DOPE  C211 3799   2.670   2.681  11.886 -0.3440  0.2743 -0.8532
   30DOPE  H11R 3800   2.741   2.606  11.925 -1.1453 -0.6412 -1.1236
   30DOPE  H11S 3801   2.717   2.782  11.887  0.1584  0.0371 -0.5854
   30DOPE  C212 3802   2.629   2.629  11.749  0.1064  0.2971 -0.1601
   30DOPE  H12R 3803   2.550   2.694  11.704  1.1123  0.5133 -1.6693
   30DOPE  H12S 3804   2.596   2.523  11.752 -0.3956  0.4704  0.9885
   30DOPE  C213 3805   2.746   2.620  11.645  0.0402  0.1706  0.1690
   30DOPE  H13R 3806   2.830   2.568  11.697 -1.0026  0.9901  2.8213
   30DOPE  H13S 3807   2.772   2.725  11.622  0.1033  0.2985  0.7917
   30DOPE  C214 3808   2.699   2.551  11.517 -0.1366 -0.0716  1.1209
   30DOPE  H14R 3809   2.607   2.608  11.494 -0.3666 -0.1550  1.8286
   30DOPE  H14S 3810   2.669   2.446  11.534  0.5136 -0.2520  1.1785
   30DOPE  C215 3811   2.798   2.558  11.397  0.0554  0.8788 -0.1013
   30DOPE  H15R 3812   2.832   2.664  11.386  1.4390  0.4271 -0.3721
   30DOPE  H15S 3813   2.744   2.528  11.305  2.4121 -1.5111 -0.8116
   30DOPE  C216 3814   2.922   2.469  11.398  0.8564 -0.1180  0.0886
   30DOPE  H16R 3815   2.982   2.491  11.489 -1.5156 -0.0297  1.7192
   30DOPE  H16S 3816   2.981   2.504  11.310  1.8538 -0.2610  0.6847
   30DOPE  C217 3817   2.894   2.323  11.353 -1.2097  0.2586  0.3349
   30DOPE  H17R 3818   2.802   2.313  11.290 -0.2821  0.6205 -1.1115
   30DOPE  H17S 3819   2.887   2.259  11.444 -1.8861  0.3147  0.3277
   30DOPE  C218 3820   3.008   2.265  11.263  0.1325  0.3506 -0.1582
   30DOPE  H18R 3821   3.103   2.318  11.284  1.1197 -0.9305 -1.1830
   30DOPE  H18S 3822   2.972   2.271  11.157 -1.9173  1.1383  0.5313
   30DOPE  H18T 3823   3.023   2.159  11.290  1.0377  0.6279  0.4597
   30DOPE   C33 3824   2.810   2.232  12.666 -0.3771  0.5464  0.0450
   30DOPE   H3X 3825   2.719   2.168  12.666 -0.2267  0.2574 -1.9549
   30DOPE   H3Y 3826   2.901   2.172  12.685  0.9040  2.7028  1.1014
   30DOPE   C34 3827   2.830   2.269  12.515  0.4168 -0.4523  0.1474
   30DOPE   H4X 3828   2.752   2.347  12.505  1.1135  0.4607  1.5081
   30DOPE   H4Y 3829   2.936   2.302  12.502  1.4144 -2.8907  1.3205
   30DOPE   C35 3830   2.800   2.156  12.421  0.3878  0.3447 -0.0909
   30DOPE   H5X 3831   2.693   2.126  12.419  1.0029 -2.2577  1.3550
   30DOPE   H5Y 3832   2.858   2.068  12.457 -0.0299  0.9530  2.2559
   30DOPE   C36 3833   2.831   2.175  12.273  0.5924 -0.5650 -0.0021
   30DOPE   H6X 3834   2.941   2.181  12.263  0.4172  0.8743 -1.3360
   30DOPE   H6Y 3835   2.788   2.273  12.243  0.5794 -0.3756  0.6217
   30DOPE   C37 3836   2.771   2.060  12.184 -0.1915  0.3313  0.6467
   30DOPE   H7X 3837   2.799   1.956  12.213 -1.5092 -0.2696 -0.1355
   30DOPE   H7Y 3838   2.660   2.063  12.194 -0.5483 -2.9840 -0.9280
   30DOPE   C38 3839   2.818   2.061  12.041 -0.0941 -0.5820  0.4934
   30DOPE   H8X 3840   2.775   1.972  11.991  0.2530 -0.2696 -0.3972
   30DOPE   H8Y 3841   2.929   2.059  12.033 -0.1298  0.0698 -0.3967
   30DOPE   C39 3842   2.790   2.187  11.963 -0.7591 -0.9060  0.3962
   30DOPE   H9X 3843   2.833   2.276  12.010 -1.1335 -1.0846  1.0798
   30DOPE  C310 3844   2.737   2.212  11.840  0.2921 -0.2656 -0.4505
   30DOPE  H10X 3845   2.729   2.313  11.797  1.8304 -0.2057 -0.6380
   30DOPE  C311 3846   2.674   2.107  11.754 -0.0502 -0.5354  0.0506
   30DOPE  H11X 3847   2.673   2.006  11.800 -2.8620 -0.5961  0.0054
   30DOPE  H11Y 3848   2.566   2.131  11.744 -0.1763 -0.6372  1.0476
   30DOPE  C312 3849   2.733   2.096  11.610  0.9298  0.3662 -0.5289
   30DOPE  H12X 3850   2.844   2.097  11.602  0.8005  0.0885 -3.5864
   30DOPE  H12Y 3851   2.698   2.180  11.547 -2.8087 -0.0476  0.7641
   30DOPE  C313 3852   2.710   1.968  11.529  0.0028 -0.2690 -0.4916
   30DOPE  H13X 3853   2.753   1.974  11.427  3.6165 -2.3624  0.7552
   30DOPE  H13Y 3854   2.755   1.879  11.577 -3.1344 -1.1912  1.0199
   30DOPE  C314 3855   2.563   1.931  11.515 -0.5073 -0.1353  0.2593
   30DOPE  H14X 3856   2.499   2.022  11.510 -0.4011  0.0664  2.0062
   30DOPE  H14Y 3857   2.541   1.874  11.608  0.1848  0.4282  0.7715
   30DOPE  C315 3858   2.537   1.837  11.397  0.7438 -0.3389  0.4779
   30DOPE  H15X 3859   2.612   1.758  11.418 -0.6579 -1.1670  2.7775
   30DOPE  H15Y 3860   2.553   1.890  11.301 -3.6671  1.4755  0.5402
   30DOPE  C316 3861   2.403   1.782  11.407 -1.0557  0.0806  0.3884
   30DOPE  H16X 3862   2.328   1.864  11.413  0.8658  1.8134  2.1427
   30DOPE  H16Y 3863   2.382   1.730  11.503  2.1610  1.3952  1.9517
   30DOPE  C317 3864   2.387   1.683  11.294  0.0242  0.6655  0.1836
   30DOPE  H17X 3865   2.389   1.736  11.196 -2.3089  0.1852 -0.1873
   30DOPE  H17Y 3866   2.475   1.615  11.301 -0.4839  0.1894  4.4960
   30DOPE  C318 3867   2.259   1.595  11.284  0.2296 -0.2276 -1.0601
   30DOPE  H18X 3868   2.261   1.516  11.363 -2.0665  0.0404 -0.6634
   30DOPE  H18Y 3869   2.165   1.652  11.296 -0.0191 -0.9102  0.4941
   30DOPE  H18Z 3870   2.255   1.539  11.188 -1.1885 -2.0102 -0.0364
   31DOPE     N 3871   5.443   5.168   9.100  0.3822 -0.2597 -0.1900
   31DOPE   HN1 3872   5.509   5.140   9.024 -0.5566 -0.2228 -1.0426
   31DOPE   HN2 3873   5.352   5.199   9.061  0.3662  1.1279  0.8924
   31DOPE   HN3 3874   5.480   5.249   9.153 -1.6714  0.3401  0.4113
   31DOPE   C12 3875   5.436   5.048   9.197  0.1250 -0.4092  0.7928
   31DOPE  H12A 3876   5.346   4.986   9.174  1.1069 -1.9754  0.9850
   31DOPE  H12B 3877   5.419   5.090   9.298  0.6582 -1.4011  1.3105
   31DOPE   C11 3878   5.571   4.977   9.202  0.1092  0.3364 -0.3484
   31DOPE  H11A 3879   5.575   4.888   9.268  2.3875 -2.0198 -3.3538
   31DOPE  H11B 3880   5.639   5.051   9.248 -1.3487  1.2011  0.4583
   31DOPE     P 3881   5.592   4.829   8.987  0.1641  0.1903  0.0071
   31DOPE   O13 3882   5.709   4.809   8.898 -0.0162 -0.2384  0.3049
   31DOPE   O14 3883   5.462   4.852   8.918  0.3060 -0.5844 -0.4011
   31DOPE   O11 3884   5.582   4.705   9.087 -0.3335  0.4093  0.1967
   31DOPE   O12 3885   5.626   4.949   9.076  0.4033  0.1504 -0.1208
   31DOPE    C1 3886   5.637   4.580   9.052 -0.0787  0.1111 -0.0501
   31DOPE    HA 3887   5.746   4.581   9.028 -0.3783 -2.1611 -1.8434
   31DOPE    HB 3888   5.593   4.546   8.956  2.5621 -0.2481 -1.2382
   31DOPE    C2 3889   5.613   4.476   9.164  0.3318 -0.2793  0.1170
   31DOPE    HS 3890   5.507   4.477   9.198  0.1419 -0.7292 -0.4498
   31DOPE   O21 3891   5.695   4.511   9.281  0.1150 -0.8042  0.0637
   31DOPE   C21 3892   5.637   4.589   9.380  0.5897 -0.1264 -0.4105
   31DOPE   O22 3893   5.522   4.632   9.379  0.2447 -0.1725 -0.5081
   31DOPE   C22 3894   5.741   4.599   9.492 -0.2914 -0.5087  0.2006
   31DOPE   H2R 3895   5.834   4.641   9.447  0.2490 -1.6340  0.2264
   31DOPE   H2S 3896   5.760   4.498   9.535  0.3409 -1.3404 -1.9005
   31DOPE    C3 3897   5.634   4.327   9.117 -0.5348 -0.7217 -0.3233
   31DOPE    HX 3898   5.732   4.324   9.065  0.2066 -0.3866  0.9961
   31DOPE    HY 3899   5.555   4.305   9.042 -1.9059  1.1066  0.4921
   31DOPE   O31 3900   5.607   4.238   9.229  0.0479 -0.0873  0.2385
   31DOPE   C31 3901   5.715   4.175   9.272  0.0217  0.0317 -0.0305
   31DOPE   O32 3902   5.819   4.160   9.214  0.1421  0.2769  0.2216
   31DOPE   C32 3903   5.686   4.123   9.411 -0.4268  0.2640 -0.1434
   31DOPE   H2X 3904   5.578   4.136   9.430 -0.3520  0.4665  0.1657
   31DOPE   H2Y 3905   5.702   4.014   9.400 -1.0801  0.2956 -1.5581
   31DOPE   C23 3906   5.711   4.691   9.614 -0.0408  0.3398 -0.2957
   31DOPE   H3R 3907   5.615   4.660   9.661 -0.1369  0.9051 -0.1150
   31DOPE   H3S 3908   5.685   4.793   9.580  0.3529  0.7556  0.6349
   31DOPE   C24 3909   5.822   4.695   9.721 -0.2134  0.1581  0.1854
   31DOPE   H4R 3910   5.911   4.748   9.680  0.9280 -0.8223  1.2990
   31DOPE   H4S 3911   5.860   4.593   9.742  4.3076  0.8643 -3.0206
   31DOPE   C25 3912   5.797   4.760   9.858 -0.1811  0.3334  0.5133
   31DOPE   H5R 3913   5.694   4.735   9.893 -0.2455  0.2270  0.2525
   31DOPE   H5S 3914   5.794   4.868   9.830  2.4033  0.3827  0.1712
   31DOPE   C26 3915   5.904   4.725   9.952 -0.2166 -0.5058 -1.0546
   31DOPE   H6R 3916   6.002   4.765   9.916  0.1931  1.3375  1.7375
   31DOPE   H6S 3917   5.917   4.617   9.975 -0.4161  0.0894  2.4343
   31DOPE   C27 3918   5.881   4.801  10.082 -0.4140 -0.2114  0.3690
   31DOPE   H7R 3919   5.799   4.759  10.145 -0.1328 -0.8152  0.3316
   31DOPE   H7S 3920   5.842   4.903  10.060 -0.5322 -0.3610 -0.1171
   31DOPE   C28 3921   6.013   4.832  10.161 -0.3387 -0.1274 -0.3994
   31DOPE   H8R 3922   5.976   4.904  10.237 -0.3541 -0.8126  0.2533
   31DOPE   H8S 3923   6.088   4.888  10.101  0.5084  2.6608  2.9499
   31DOPE   C29 3924   6.072   4.709  10.214  0.0370  0.3637 -0.0972
   31DOPE   H9R 3925   6.074   4.631  10.137  3.4794 -1.0186  1.1898
   31DOPE  C210 3926   6.112   4.675  10.338 -0.7180  0.0609  0.1402
   31DOPE  H10R 3927   6.137   4.571  10.365  1.7605  1.0268  2.0116
   31DOPE  C211 3928   6.114   4.763  10.456 -0.9061  0.3377 -0.7732
   31DOPE  H11R 3929   6.115   4.867  10.416  0.0448 -0.1937 -2.2100
   31DOPE  H11S 3930   6.204   4.740  10.517 -0.9418 -2.1776 -1.5742
   31DOPE  C212 3931   5.986   4.750  10.546 -0.1419  0.1724  0.1421
   31DOPE  H12R 3932   5.892   4.764  10.489  0.2868  1.7219 -0.2074
   31DOPE  H12S 3933   5.978   4.846  10.602 -1.0141  0.0536  0.2367
   31DOPE  C213 3934   5.984   4.636  10.638 -0.2691  0.3028 -1.0980
   31DOPE  H13R 3935   5.998   4.540  10.584 -1.3470 -1.2693  1.2584
   31DOPE  H13S 3936   5.881   4.645  10.678  0.7220  2.1281  1.3037
   31DOPE  C214 3937   6.075   4.656  10.762 -0.4004 -0.1295 -0.0200
   31DOPE  H14R 3938   6.058   4.756  10.807  0.5196 -0.4828  1.1703
   31DOPE  H14S 3939   6.179   4.657  10.724 -1.5075  2.0775 -3.3861
   31DOPE  C215 3940   6.053   4.544  10.868 -0.1810 -0.7395 -0.8937
   31DOPE  H15R 3941   6.070   4.446  10.819  1.0451 -0.8098 -0.3685
   31DOPE  H15S 3942   5.945   4.547  10.892 -0.8995 -0.4897 -3.7642
   31DOPE  C216 3943   6.147   4.542  10.992 -0.7167  0.7592 -0.7346
   31DOPE  H16R 3944   6.253   4.542  10.960 -0.0905 -1.9954  0.9468
   31DOPE  H16S 3945   6.121   4.448  11.046  0.3443  0.3599 -0.8944
   31DOPE  C217 3946   6.119   4.645  11.103  0.1688 -0.5392  0.3393
   31DOPE  H17R 3947   6.008   4.653  11.106  0.1567 -0.3936 -0.3199
   31DOPE  H17S 3948   6.164   4.744  11.080 -0.3373 -0.3944 -0.0635
   31DOPE  C218 3949   6.183   4.614  11.244  0.3707  0.4587  0.0321
   31DOPE  H18R 3950   6.283   4.567  11.232  0.3098  0.1832  0.5701
   31DOPE  H18S 3951   6.116   4.535  11.285 -0.8606  1.7929  0.6466
   31DOPE  H18T 3952   6.180   4.707  11.304 -0.5967 -0.4803  1.5128
   31DOPE   C33 3953   5.761   4.199   9.525  0.1028  0.3815  0.3493
   31DOPE   H3X 3954   5.703   4.290   9.551 -1.5310 -0.6227  0.3777
   31DOPE   H3Y 3955   5.860   4.229   9.484 -0.2943 -2.1724 -2.8879
   31DOPE   C34 3956   5.767   4.126   9.661  0.0448  0.3148 -0.0072
   31DOPE   H4X 3957   5.670   4.086   9.696  0.7167  0.4244  2.1410
   31DOPE   H4Y 3958   5.843   4.045   9.661 -0.1411  0.1407 -0.2652
   31DOPE   C35 3959   5.816   4.225   9.776  0.4364 -0.1120  1.0252
   31DOPE   H5X 3960   5.729   4.286   9.807  0.7498  1.3603 -0.8570
   31DOPE   H5Y 3961   5.902   4.284   9.738 -0.9377 -0.0657 -2.2817
   31DOPE   C36 3962   5.867   4.152   9.906  0.5139 -0.2800 -0.2659
   31DOPE   H6X 3963   5.950   4.093   9.862  0.9354 -0.6886  1.0482
   31DOPE   H6Y 3964   5.794   4.087   9.960  0.1860  0.8954  0.7581
   31DOPE   C37 3965   5.925   4.256  10.002 -0.1385  0.5281  0.0965
   31DOPE   H7X 3966   5.998   4.200  10.065 -0.5746  0.7243  0.7872
   31DOPE   H7Y 3967   5.985   4.330   9.944  1.0502 -2.4806 -2.8609
   31DOPE   C38 3968   5.818   4.328  10.092 -0.3993 -0.2254 -0.1280
   31DOPE   H8X 3969   5.744   4.254  10.127 -0.8893 -0.0230 -0.7088
   31DOPE   H8Y 3970   5.758   4.402  10.035 -1.1998  0.1474  1.1739
   31DOPE   C39 3971   5.882   4.397  10.215 -0.2291 -0.2890 -0.0773
   31DOPE   H9X 3972   5.892   4.507  10.206 -0.0227 -0.2287  0.7721
   31DOPE  C310 3973   5.921   4.340  10.334  0.4981  0.2017 -0.2255
   31DOPE  H10X 3974   5.953   4.404  10.417 -0.0970 -2.2934  2.0664
   31DOPE  C311 3975   5.897   4.196  10.370 -0.0756  0.6114 -0.2895
   31DOPE  H11X 3976   5.809   4.153  10.318 -0.2881  0.1604  0.4374
   31DOPE  H11Y 3977   5.985   4.134  10.342 -1.2847 -1.2639 -0.0877
   31DOPE  C312 3978   5.878   4.185  10.526 -0.0282  0.7163  0.4159
   31DOPE  H12X 3979   5.822   4.092  10.549  1.1517  0.4951  2.7223
   31DOPE  H12Y 3980   5.815   4.265  10.571  2.3326  1.4618  2.6676
   31DOPE  C313 3981   6.010   4.180  10.600  0.1305 -0.1402  0.2894
   31DOPE  H13X 3982   6.077   4.108  10.547  0.1307  1.1266 -1.5386
   31DOPE  H13Y 3983   6.069   4.274  10.594 -0.2923  0.0633 -1.5218
   31DOPE  C314 3984   5.982   4.134  10.745 -0.5517 -0.2303 -0.4252
   31DOPE  H14X 3985   5.918   4.043  10.747 -4.3710  2.1589 -2.2605
   31DOPE  H14Y 3986   5.915   4.214  10.784 -1.9852 -2.0261  0.9917
   31DOPE  C315 3987   6.105   4.129  10.839  0.2271  0.5345  0.1306
   31DOPE  H15X 3988   6.157   4.227  10.833  1.2446  0.0249  0.4869
   31DOPE  H15Y 3989   6.172   4.041  10.828  0.1501  0.4187  0.6021
   31DOPE  C316 3990   6.044   4.120  10.982  0.1809  0.0356 -0.6453
   31DOPE  H16X 3991   5.976   4.032  10.991 -0.3438  0.6336  2.4757
   31DOPE  H16Y 3992   5.997   4.218  11.004  0.1013 -0.4259  1.5239
   31DOPE  C317 3993   6.158   4.113  11.093 -0.1237  0.8322  0.4227
   31DOPE  H17X 3994   6.224   4.030  11.059 -1.9306  0.0974 -1.4701
   31DOPE  H17Y 3995   6.213   4.210  11.091  1.5819 -0.0926  0.5331
   31DOPE  C318 3996   6.107   4.094  11.235 -0.0964 -0.4443 -0.1368
   31DOPE  H18X 3997   6.033   4.171  11.266 -0.9864 -1.2065 -0.3579
   31DOPE  H18Y 3998   6.056   3.997  11.251  0.8410 -0.8567  0.4157
   31DOPE  H18Z 3999   6.195   4.097  11.303  0.4107  2.8111 -0.7469
   32DOPE     N 4000   0.598   5.150   9.176  0.6058  0.3718  0.2118
   32DOPE   HN1 4001   0.701   5.163   9.171  0.9965 -2.4313 -1.3178
   32DOPE   HN2 4002   0.586   5.049   9.200  0.7739  0.7412  1.9633
   32DOPE   HN3 4003   0.541   5.190   9.098 -0.2735 -0.7753  0.2334
   32DOPE   C12 4004   0.558   5.227   9.300  0.1927 -0.1278  0.4405
   32DOPE  H12A 4005   0.452   5.256   9.287  0.0833 -1.1478 -1.1925
   32DOPE  H12B 4006   0.624   5.317   9.293 -2.2083  1.6279 -1.3678
   32DOPE   C11 4007   0.600   5.146   9.425  0.4092  0.3923 -1.2198
   32DOPE  H11A 4008   0.531   5.060   9.438 -0.1158  0.7542 -1.5963
   32DOPE  H11B 4009   0.584   5.208   9.515 -0.8891 -0.5144 -0.8058
   32DOPE     P 4010   0.782   4.984   9.503  0.2759  0.1457  0.1655
   32DOPE   O13 4011   0.819   4.874   9.410  0.3341 -0.1298 -0.1688
   32DOPE   O14 4012   0.678   4.956   9.597  0.0662 -0.4048 -0.2427
   32DOPE   O11 4013   0.901   5.031   9.592 -0.5943  0.3432 -0.3041
   32DOPE   O12 4014   0.741   5.114   9.418  0.5150  0.1110  0.4342
   32DOPE    C1 4015   0.902   5.154   9.665  0.3685  0.4978 -0.0739
   32DOPE    HA 4016   0.802   5.195   9.690  0.6438  0.7379  0.6467
   32DOPE    HB 4017   0.957   5.236   9.616  1.9636  1.0461  2.4440
   32DOPE    C2 4018   0.971   5.120   9.804 -0.0792  0.1329 -0.0671
   32DOPE    HS 4019   0.953   5.205   9.873  0.8696 -0.6372  1.1591
   32DOPE   O21 4020   1.115   5.116   9.796  0.0246 -0.2788 -0.3034
   32DOPE   C21 4021   1.180   5.233   9.778  1.0559  0.3636  0.6253
   32DOPE   O22 4022   1.122   5.338   9.771 -0.9427 -0.8509  0.1597
   32DOPE   C22 4023   1.328   5.220   9.769  0.1904  0.8359  0.5248
   32DOPE   H2R 4024   1.375   5.315   9.736 -2.3630  1.3590 -2.0650
   32DOPE   H2S 4025   1.352   5.150   9.686 -0.1214  0.2354  0.9375
   32DOPE    C3 4026   0.918   4.994   9.878  0.3657  0.7458 -0.3865
   32DOPE    HX 4027   0.934   4.906   9.813 -0.2527 -0.6074  1.2144
   32DOPE    HY 4028   0.807   4.999   9.886  0.0600 -3.8021  0.9376
   32DOPE   O31 4029   0.963   4.981  10.016  0.2749 -0.2101 -0.2862
   32DOPE   C31 4030   1.060   4.897  10.045 -0.3698  0.0098  0.5401
   32DOPE   O32 4031   1.137   4.840   9.964 -0.3718  0.6250 -0.0007
   32DOPE   C32 4032   1.066   4.879  10.190 -0.0683  0.6535 -1.0518
   32DOPE   H2X 4033   0.962   4.870  10.227  0.6471 -0.3500  0.8616
   32DOPE   H2Y 4034   1.098   4.775  10.211  0.5218  0.3182 -3.3023
   32DOPE   C23 4035   1.394   5.155   9.890  0.2478  0.2471  0.3349
   32DOPE   H3R 4036   1.504   5.153   9.874  0.1593  2.0100 -0.7130
   32DOPE   H3S 4037   1.349   5.057   9.915  1.7002 -0.3961  0.5530
   32DOPE   C24 4038   1.370   5.230  10.018  0.4838 -0.3133 -0.0057
   32DOPE   H4R 4039   1.275   5.209  10.073  1.0010 -1.2759  0.5391
   32DOPE   H4S 4040   1.387   5.338  10.001  4.2811 -0.6582  0.7348
   32DOPE   C25 4041   1.485   5.194  10.120  0.7083 -0.3137  0.5465
   32DOPE   H5R 4042   1.581   5.218  10.069  0.3753 -0.4271 -0.1480
   32DOPE   H5S 4043   1.480   5.085  10.137 -2.8451 -0.2735  0.4328
   32DOPE   C26 4044   1.478   5.270  10.253  0.1616  0.0232  0.5183
   32DOPE   H6R 4045   1.379   5.248  10.298 -1.0039  0.7755 -1.5155
   32DOPE   H6S 4046   1.476   5.379  10.235 -0.5539 -0.2275 -1.1182
   32DOPE   C27 4047   1.586   5.222  10.350 -0.1979  0.1294  0.0819
   32DOPE   H7R 4048   1.685   5.213  10.299 -0.2295 -0.2361  0.0780
   32DOPE   H7S 4049   1.559   5.118  10.380  1.4149 -1.1183 -2.4003
   32DOPE   C28 4050   1.596   5.318  10.467  0.0471  0.3786 -0.2712
   32DOPE   H8R 4051   1.495   5.329  10.512  1.1647  0.3325  2.4121
   32DOPE   H8S 4052   1.629   5.420  10.438 -0.3635  0.7563  0.5645
   32DOPE   C29 4053   1.701   5.268  10.566  0.3363 -0.9584  0.2366
   32DOPE   H9R 4054   1.793   5.319  10.533 -1.6559  0.3470 -4.1753
   32DOPE  C210 4055   1.698   5.176  10.666  0.1827 -0.4648  0.3607
   32DOPE  H10R 4056   1.792   5.149  10.715  0.2571 -1.6256 -0.3777
   32DOPE  C211 4057   1.577   5.090  10.698 -0.4252  0.3596  0.0597
   32DOPE  H11R 4058   1.568   4.996  10.640 -1.0396  0.6285 -0.2886
   32DOPE  H11S 4059   1.487   5.149  10.670  0.0922  2.0672  1.7706
   32DOPE  C212 4060   1.560   5.050  10.844 -0.3866  0.4276  0.0416
   32DOPE  H12R 4061   1.456   5.011  10.854  0.7364 -2.5750  0.8205
   32DOPE  H12S 4062   1.558   5.144  10.903 -0.5465  0.7418 -0.4476
   32DOPE  C213 4063   1.666   4.953  10.903 -0.3135  0.9156  0.0614
   32DOPE  H13R 4064   1.767   4.999  10.902 -0.3624  1.0360  0.4047
   32DOPE  H13S 4065   1.681   4.854  10.855  0.1687  0.9598  0.1119
   32DOPE  C214 4066   1.637   4.933  11.060  0.2040  0.6227  0.4617
   32DOPE  H14R 4067   1.577   5.024  11.082  1.6157  1.6016  0.3332
   32DOPE  H14S 4068   1.715   4.942  11.138  0.9023 -0.7622 -0.0572
   32DOPE  C215 4069   1.558   4.798  11.087  0.1698 -0.0085 -0.0028
   32DOPE  H15R 4070   1.596   4.718  11.019 -0.8473 -0.5963  0.0946
   32DOPE  H15S 4071   1.456   4.829  11.057  0.6199  0.4872 -1.0904
   32DOPE  C216 4072   1.568   4.750  11.230 -0.0534 -0.3130 -0.0748
   32DOPE  H16R 4073   1.675   4.722  11.245 -0.4448 -1.4319  0.8057
   32DOPE  H16S 4074   1.509   4.656  11.242  1.8411 -1.3038  2.5501
   32DOPE  C217 4075   1.528   4.847  11.342  0.0369  0.2946 -0.4398
   32DOPE  H17R 4076   1.430   4.891  11.311 -1.1112 -0.4776  1.8572
   32DOPE  H17S 4077   1.601   4.930  11.354  0.1939  0.2100 -0.7858
   32DOPE  C218 4078   1.496   4.782  11.480 -0.1659  0.0751 -0.3739
   32DOPE  H18R 4079   1.421   4.700  11.483  0.2959 -0.3883 -1.1803
   32DOPE  H18S 4080   1.459   4.854  11.556  3.4447 -0.1084  1.7896
   32DOPE  H18T 4081   1.592   4.742  11.521 -1.2081 -1.4438  0.6964
   32DOPE   C33 4082   1.135   4.987  10.277 -0.3685 -0.8171  0.4429
   32DOPE   H3X 4083   1.107   5.091  10.251 -0.0473 -1.0500 -0.9361
   32DOPE   H3Y 4084   1.242   4.981  10.246 -0.1619  1.8442  0.4297
   32DOPE   C34 4085   1.137   4.973  10.429  0.6969  0.3080 -0.5431
   32DOPE   H4X 4086   1.189   4.883  10.470 -0.6069 -0.5049 -0.6224
   32DOPE   H4Y 4087   1.197   5.063  10.455  0.0463  1.1641 -1.9343
   32DOPE   C35 4088   1.000   5.000  10.494 -0.0569 -0.0344  0.7285
   32DOPE   H5X 4089   0.930   4.917  10.469 -0.7566 -0.1027  2.7444
   32DOPE   H5Y 4090   0.955   5.091  10.450  1.7347  2.3237  3.3450
   32DOPE   C36 4091   1.007   5.028  10.650 -0.5612  0.6548  0.2914
   32DOPE   H6X 4092   0.901   5.024  10.681 -0.3499  2.0268  1.3108
   32DOPE   H6Y 4093   1.045   5.131  10.667  0.0744  0.1191  2.3985
   32DOPE   C37 4094   1.098   4.928  10.729 -0.5088  0.4611 -0.1734
   32DOPE   H7X 4095   1.085   4.818  10.737  1.7292  0.1494 -0.3032
   32DOPE   H7Y 4096   1.202   4.946  10.694  0.3929 -2.7353  0.5370
   32DOPE   C38 4097   1.106   4.977  10.877  0.5983  0.1475 -0.4372
   32DOPE   H8X 4098   1.114   5.088  10.875  0.2372  0.2120  0.8149
   32DOPE   H8Y 4099   1.194   4.930  10.926  0.3434 -0.7785 -0.8544
   32DOPE   C39 4100   0.972   4.945  10.946  0.4743 -0.0401  0.1870
   32DOPE   H9X 4101   0.894   5.013  10.910  3.7882  3.2295 -1.5288
   32DOPE  C310 4102   0.964   4.870  11.064 -0.0526  0.3173  0.2801
   32DOPE  H10X 4103   0.862   4.843  11.096 -0.2548 -0.7822 -1.2045
   32DOPE  C311 4104   1.074   4.802  11.135  0.4029 -0.1434  1.0197
   32DOPE  H11X 4105   1.063   4.692  11.120  0.8155  0.2386 -3.9369
   32DOPE  H11Y 4106   1.175   4.824  11.096 -0.4045  1.2554 -0.4089
   32DOPE  C312 4107   1.066   4.824  11.280  0.3656  0.0531  0.4747
   32DOPE  H12X 4108   0.965   4.810  11.322 -0.5323  0.2080 -1.5210
   32DOPE  H12Y 4109   1.083   4.931  11.305 -0.8572 -0.0361  1.7908
   32DOPE  C313 4110   1.153   4.727  11.363  0.3402 -0.4260  0.5343
   32DOPE  H13X 4111   1.125   4.626  11.327  0.5135  0.4748 -2.3465
   32DOPE  H13Y 4112   1.259   4.748  11.338  0.1511 -1.3723 -1.1694
   32DOPE  C314 4113   1.118   4.741  11.514 -0.6431  0.1286 -0.2873
   32DOPE  H14X 4114   1.009   4.754  11.533 -0.7515 -2.7255  1.5969
   32DOPE  H14Y 4115   1.167   4.833  11.553 -0.1988  0.4742 -1.6097
   32DOPE  C315 4116   1.144   4.622  11.605 -0.9764  0.6651 -0.1280
   32DOPE  H15X 4117   1.254   4.610  11.599 -1.1190 -0.3253 -1.1243
   32DOPE  H15Y 4118   1.093   4.533  11.563 -0.1236 -0.8328  1.8619
   32DOPE  C316 4119   1.117   4.624  11.753 -0.4515  0.7940  0.1078
   32DOPE  H16X 4120   1.008   4.629  11.771 -0.6633 -0.4770 -0.7111
   32DOPE  H16Y 4121   1.165   4.717  11.791  1.9045  0.4268 -1.7256
   32DOPE  C317 4122   1.173   4.505  11.826  0.3637  0.1141 -0.2345
   32DOPE  H17X 4123   1.272   4.486  11.781  0.7902  1.7113  0.0005
   32DOPE  H17Y 4124   1.161   4.528  11.934 -2.6629  0.8294 -0.6327
   32DOPE  C318 4125   1.084   4.378  11.813 -0.4366 -0.3602 -0.3453
   32DOPE  H18X 4126   1.123   4.305  11.887 -0.7462  0.9167  1.1421
   32DOPE  H18Y 4127   0.975   4.398  11.825 -0.6896  1.6435 -4.3777
   32DOPE  H18Z 4128   1.095   4.345  11.708  1.0636  1.2574 -0.7464
   33DOPE     N 4129   5.636   3.168   9.033  0.5884 -0.4084  0.3339
   33DOPE   HN1 4130   5.564   3.100   9.001 -2.1477  2.1787  0.5398
   33DOPE   HN2 4131   5.587   3.229   9.101  0.8169 -0.2924  0.3931
   33DOPE   HN3 4132   5.662   3.215   8.944 -0.3533  0.4390  0.4904
   33DOPE   C12 4133   5.753   3.093   9.082  0.1665 -0.0273 -0.2435
   33DOPE  H12A 4134   5.717   3.041   9.173  0.4004  0.0022 -0.1345
   33DOPE  H12B 4135   5.831   3.168   9.107  1.0371 -0.4063 -1.6838
   33DOPE   C11 4136   5.811   3.002   8.975  0.2423 -0.2330  0.9396
   33DOPE  H11A 4137   5.732   2.929   8.947 -1.4638  2.2419 -1.1986
   33DOPE  H11B 4138   5.901   2.955   9.021  0.7207  0.2545  0.5270
   33DOPE     P 4139   5.919   3.019   8.736  0.3951  0.4032  0.2685
   33DOPE   O13 4140   5.931   3.111   8.620  0.4406 -0.0266 -0.7419
   33DOPE   O14 4141   5.864   2.887   8.704  0.0377  0.0024 -0.1209
   33DOPE   O11 4142   6.070   2.998   8.775  0.1197  0.2260  0.0831
   33DOPE   O12 4143   5.842   3.076   8.855 -0.1007 -0.3762 -0.1476
   33DOPE    C1 4144   6.146   3.080   8.857 -0.1402 -0.0703  0.3349
   33DOPE    HA 4145   6.090   3.095   8.952 -0.5241 -0.0683  0.1102
   33DOPE    HB 4146   6.144   3.181   8.812  0.9880 -0.0629  0.2754
   33DOPE    C2 4147   6.294   3.027   8.879 -0.0834 -0.3676 -0.2029
   33DOPE    HS 4148   6.319   2.982   8.781  0.9359  1.3958 -0.7827
   33DOPE   O21 4149   6.279   2.926   8.980  0.4662 -0.1061 -0.3231
   33DOPE   C21 4150   6.373   2.831   8.970 -0.5919 -1.0302 -0.6410
   33DOPE   O22 4151   6.469   2.836   8.889 -0.6998 -0.2192  0.3896
   33DOPE   C22 4152   6.346   2.716   9.072 -0.0852  0.2168  0.5242
   33DOPE   H2R 4153   6.406   2.628   9.041 -0.5968  0.1243 -0.2332
   33DOPE   H2S 4154   6.241   2.685   9.056  0.4036 -1.5395  0.4992
   33DOPE    C3 4155   6.413   3.130   8.907 -0.0537  0.5423 -0.7944
   33DOPE    HX 4156   6.427   3.210   8.832  1.9942  1.2239  0.2366
   33DOPE    HY 4157   6.507   3.071   8.899 -0.3250 -0.4316  1.9218
   33DOPE   O31 4158   6.421   3.171   9.042 -0.1659 -0.6302  0.4592
   33DOPE   C31 4159   6.341   3.274   9.070  0.6311 -0.3832  1.0911
   33DOPE   O32 4160   6.274   3.334   8.986 -0.4234  0.6930  0.2126
   33DOPE   C32 4161   6.340   3.311   9.220 -0.0279  0.0221 -0.6829
   33DOPE   H2X 4162   6.397   3.244   9.289 -1.6915  0.7302  1.4931
   33DOPE   H2Y 4163   6.393   3.408   9.238  0.9156 -0.9282  2.3065
   33DOPE   C23 4164   6.379   2.737   9.217 -0.3203  0.6653 -0.4658
   33DOPE   H3R 4165   6.326   2.665   9.283  2.0722  0.6821  1.6424
   33DOPE   H3S 4166   6.334   2.832   9.252 -1.2713 -0.7004  2.3533
   33DOPE   C24 4167   6.523   2.732   9.252 -0.5103  0.3331  0.4017
   33DOPE   H4R 4168   6.581   2.807   9.194 -1.7769 -0.0518 -1.4571
   33DOPE   H4S 4169   6.562   2.631   9.228  0.0937  0.9791 -1.4855
   33DOPE   C25 4170   6.541   2.742   9.402 -0.1920 -0.6278  0.2446
   33DOPE   H5R 4171   6.479   2.680   9.471  0.0531  1.3159  2.3411
   33DOPE   H5S 4172   6.515   2.847   9.427  0.2783  0.1904 -2.4644
   33DOPE   C26 4173   6.686   2.721   9.437  0.2357  0.2570  0.3669
   33DOPE   H6R 4174   6.751   2.764   9.357  0.3254  1.2654  0.9650
   33DOPE   H6S 4175   6.703   2.612   9.432 -2.5795 -0.2028 -0.9214
   33DOPE   C27 4176   6.724   2.771   9.579  0.7510  0.1331  0.5873
   33DOPE   H7R 4177   6.674   2.704   9.652  0.2651  0.2425  0.3586
   33DOPE   H7S 4178   6.665   2.861   9.605 -1.0344 -0.6081 -0.6991
   33DOPE   C28 4179   6.875   2.793   9.608 -0.7142  0.3148  0.1084
   33DOPE   H8R 4180   6.883   2.875   9.682 -1.3782 -0.6244  1.2440
   33DOPE   H8S 4181   6.920   2.847   9.521  0.3425  2.1048  1.6846
   33DOPE   C29 4182   6.956   2.674   9.653 -0.3883 -0.1460  0.2037
   33DOPE   H9R 4183   6.989   2.608   9.571  0.0587  0.4235 -0.0858
   33DOPE  C210 4184   6.977   2.646   9.787 -0.4675  0.2571 -0.7533
   33DOPE  H10R 4185   7.022   2.549   9.811  1.8323  1.0726 -1.5418
   33DOPE  C211 4186   6.933   2.721   9.907  0.3890  0.0139 -0.0363
   33DOPE  H11R 4187   6.847   2.789   9.890 -0.2788 -1.1377 -1.4241
   33DOPE  H11S 4188   7.017   2.779   9.952  0.8711 -0.7363  0.0573
   33DOPE  C212 4189   6.895   2.617  10.010 -0.1976 -0.0213  0.6312
   33DOPE  H12R 4190   6.977   2.549  10.043  0.3228 -0.6160 -1.7019
   33DOPE  H12S 4191   6.819   2.551   9.962  0.3619  0.8919 -1.6263
   33DOPE  C213 4192   6.839   2.667  10.132  0.1158 -0.3519  0.2959
   33DOPE  H13R 4193   6.755   2.738  10.118 -1.0724 -1.0899  2.9723
   33DOPE  H13S 4194   6.916   2.729  10.182 -0.9153  0.6395  0.6924
   33DOPE  C214 4195   6.789   2.559  10.229  0.1313  0.2696 -0.2237
   33DOPE  H14R 4196   6.864   2.477  10.221 -0.1744  0.0311 -0.7444
   33DOPE  H14S 4197   6.691   2.523  10.190  0.4272  0.2542 -0.9653
   33DOPE  C215 4198   6.789   2.605  10.369 -0.1641  0.3879 -0.2353
   33DOPE  H15R 4199   6.731   2.700  10.365 -3.2459 -1.2700  1.4721
   33DOPE  H15S 4200   6.891   2.626  10.408 -0.5594  1.4195  0.2968
   33DOPE  C216 4201   6.711   2.522  10.473 -0.3084  0.2984  0.6573
   33DOPE  H16R 4202   6.750   2.419  10.488  0.1634  0.6235  1.8034
   33DOPE  H16S 4203   6.605   2.513  10.443 -1.2887  0.8453  3.6400
   33DOPE  C217 4204   6.712   2.590  10.610  0.1303 -0.2080 -0.0683
   33DOPE  H17R 4205   6.657   2.686  10.600  0.8359  0.2769  0.5342
   33DOPE  H17S 4206   6.818   2.617  10.633  0.0770 -0.0507 -0.0115
   33DOPE  C218 4207   6.669   2.496  10.718 -0.4807 -0.3084  0.0568
   33DOPE  H18R 4208   6.563   2.465  10.712 -0.3068 -0.9724  0.3312
   33DOPE  H18S 4209   6.683   2.548  10.815 -1.0009 -0.1952  0.0729
   33DOPE  H18T 4210   6.732   2.405  10.708  2.1131  1.5294 -1.7308
   33DOPE   C33 4211   6.193   3.315   9.274 -0.2588  0.0981 -0.2320
   33DOPE   H3X 4212   6.120   3.371   9.211 -1.5480 -2.6636 -1.3351
   33DOPE   H3Y 4213   6.186   3.377   9.367 -2.0963  1.4611 -1.2205
   33DOPE   C34 4214   6.134   3.172   9.292  0.3894 -0.3642  0.1380
   33DOPE   H4X 4215   6.024   3.172   9.276  0.3413 -2.4447  0.2456
   33DOPE   H4Y 4216   6.173   3.095   9.222 -1.2881 -0.5820 -0.5953
   33DOPE   C35 4217   6.158   3.118   9.432  0.7993  0.0286  0.3572
   33DOPE   H5X 4218   6.268   3.106   9.442  0.7410 -0.3936  0.4856
   33DOPE   H5Y 4219   6.126   3.012   9.436 -1.1253  0.4477 -1.7390
   33DOPE   C36 4220   6.095   3.181   9.551 -0.0552 -0.3303  0.0925
   33DOPE   H6X 4221   5.984   3.171   9.540 -0.3525  2.3150  0.1513
   33DOPE   H6Y 4222   6.118   3.289   9.540 -0.9454 -0.3151 -2.2936
   33DOPE   C37 4223   6.131   3.121   9.688 -0.0714 -0.3357 -0.2398
   33DOPE   H7X 4224   6.146   3.011   9.686  1.6571 -0.1426  0.6377
   33DOPE   H7Y 4225   6.229   3.159   9.723 -1.0628  1.2017  0.9738
   33DOPE   C38 4226   6.050   3.160   9.813 -0.4221 -0.1972  0.5410
   33DOPE   H8X 4227   6.057   3.271   9.818 -0.3260 -0.1645 -0.1747
   33DOPE   H8Y 4228   6.118   3.122   9.892 -1.0851  0.1072  1.2608
   33DOPE   C39 4229   5.907   3.115   9.815 -0.5982  0.2519  0.1939
   33DOPE   H9X 4230   5.842   3.174   9.750  0.2905 -0.3370 -1.2888
   33DOPE  C310 4231   5.864   3.010   9.880  0.0660  0.5832  1.4900
   33DOPE  H10X 4232   5.759   2.981   9.863 -0.7844  3.1193  2.0185
   33DOPE  C311 4233   5.941   2.930   9.976 -0.2299  0.4295 -0.0337
   33DOPE  H11X 4234   5.901   2.829  10.000  0.8406  0.6017  2.7755
   33DOPE  H11Y 4235   6.045   2.924   9.935  0.9790  2.1745  2.5219
   33DOPE  C312 4236   5.933   2.994  10.122  0.2581 -0.0373 -0.0223
   33DOPE  H12X 4237   5.823   2.997  10.133 -0.4378  1.5305 -5.0050
   33DOPE  H12Y 4238   5.958   3.101  10.140  1.7131 -0.5166  1.0299
   33DOPE  C313 4239   5.998   2.904  10.231  0.2474 -0.2514 -0.1210
   33DOPE  H13X 4240   5.939   2.810  10.236 -0.2870  0.1294  1.7524
   33DOPE  H13Y 4241   6.100   2.865  10.213  0.2528  0.2023 -1.1457
   33DOPE  C314 4242   6.002   2.968  10.374 -0.0169 -0.1872  0.7169
   33DOPE  H14X 4243   5.900   3.007  10.395 -0.8797 -1.1389 -1.4263
   33DOPE  H14Y 4244   6.065   3.057  10.355 -0.6697 -0.3848 -3.0442
   33DOPE  C315 4245   6.050   2.873  10.480 -0.6253 -0.0790  0.0686
   33DOPE  H15X 4246   6.157   2.850  10.459 -0.5597 -0.3636  0.7208
   33DOPE  H15Y 4247   6.006   2.773  10.463  0.5484 -0.5978 -0.0261
   33DOPE  C316 4248   6.025   2.924  10.619 -0.0454 -0.5330 -0.4362
   33DOPE  H16X 4249   5.919   2.958  10.622  0.3215  0.6871 -0.7272
   33DOPE  H16Y 4250   6.097   3.008  10.632 -0.1367 -0.3334 -1.1465
   33DOPE  C317 4251   6.070   2.818  10.720  0.3161  0.3410 -0.9291
   33DOPE  H17X 4252   6.014   2.723  10.709 -0.5103  0.5547  0.9606
   33DOPE  H17Y 4253   6.179   2.798  10.706  0.1384 -0.1418 -1.6932
   33DOPE  C318 4254   6.062   2.874  10.863  0.6135  0.4258 -0.5443
   33DOPE  H18X 4255   5.955   2.892  10.883  0.3582 -0.5418 -0.9531
   33DOPE  H18Y 4256   6.090   2.801  10.942  1.4152  1.0522 -0.2415
   33DOPE  H18Z 4257   6.110   2.974  10.871 -0.6817  1.0120  0.1413
   34DOPE     N 4258   5.136   5.678   9.108  0.5589 -0.2303 -0.1849
   34DOPE   HN1 4259   5.107   5.708   9.013  0.1365  0.5033  0.1657
   34DOPE   HN2 4260   5.067   5.710   9.180 -1.2534 -2.0316 -1.0167
   34DOPE   HN3 4261   5.227   5.724   9.127  0.4353 -0.3874  0.8927
   34DOPE   C12 4262   5.144   5.535   9.095  0.3518 -0.0849 -0.6705
   34DOPE  H12A 4263   5.210   5.505   9.010  2.1233 -2.7414  1.4566
   34DOPE  H12B 4264   5.040   5.497   9.091  0.4075 -0.3768  0.4144
   34DOPE   C11 4265   5.215   5.462   9.219 -0.1479  0.0259  0.4302
   34DOPE  H11A 4266   5.183   5.498   9.319 -0.3411  3.8043 -0.8342
   34DOPE  H11B 4267   5.319   5.500   9.213 -0.3464  0.6559  0.8508
   34DOPE     P 4268   5.091   5.233   9.286 -0.1988  0.2729  0.2746
   34DOPE   O13 4269   5.140   5.097   9.269 -0.9385 -0.7342  0.0866
   34DOPE   O14 4270   4.960   5.261   9.221 -0.2488  0.6950  0.0326
   34DOPE   O11 4271   5.091   5.271   9.438  0.2821  0.0202  0.1697
   34DOPE   O12 4272   5.202   5.318   9.214 -0.2561  0.2992 -0.4834
   34DOPE    C1 4273   5.174   5.226   9.538 -0.5196  0.0037 -0.9597
   34DOPE    HA 4274   5.171   5.296   9.624 -0.8556  1.4767 -2.1323
   34DOPE    HB 4275   5.281   5.211   9.513 -0.4890  0.9470 -1.4091
   34DOPE    C2 4276   5.113   5.094   9.602 -0.4702 -0.2402  0.2172
   34DOPE    HS 4277   5.030   5.064   9.535  0.1419  1.5739 -1.4744
   34DOPE   O21 4278   5.066   5.133   9.732  0.1285 -0.3825  0.3874
   34DOPE   C21 4279   5.015   5.035   9.798  0.3922 -0.7620  0.2215
   34DOPE   O22 4280   5.000   4.921   9.760  0.1781  0.0457  0.0114
   34DOPE   C22 4281   4.979   5.084   9.939 -0.2405 -0.0079  0.1971
   34DOPE   H2R 4282   4.875   5.124   9.936 -0.4204 -0.3634  1.4164
   34DOPE   H2S 4283   5.049   5.167   9.963  1.1967 -1.1002 -0.0732
   34DOPE    C3 4284   5.231   4.990   9.608 -0.1272 -0.6623  0.3994
   34DOPE    HX 4285   5.281   4.995   9.509 -0.3372  1.8994  0.3586
   34DOPE    HY 4286   5.180   4.891   9.611 -1.8160 -0.0838 -3.5123
   34DOPE   O31 4287   5.307   5.016   9.724  0.0010 -0.0142  0.7463
   34DOPE   C31 4288   5.432   4.997   9.711  0.6617  0.7907 -0.3352
   34DOPE   O32 4289   5.494   4.986   9.609 -0.3208 -0.1933 -0.2226
   34DOPE   C32 4290   5.499   5.013   9.856 -0.6325  0.5775 -0.2320
   34DOPE   H2X 4291   5.570   4.930   9.873  0.3486  1.6397  1.0390
   34DOPE   H2Y 4292   5.563   5.103   9.848 -0.7770  0.6828 -0.1982
   34DOPE   C23 4293   4.996   4.977  10.050  0.4451  0.1861 -0.3032
   34DOPE   H3R 4294   5.104   4.955  10.036  0.0275 -0.1132 -4.0033
   34DOPE   H3S 4295   4.936   4.889  10.020  2.0867 -1.1579  0.2018
   34DOPE   C24 4296   4.937   5.025  10.184  0.8015  1.1555 -0.4474
   34DOPE   H4R 4297   4.831   5.049  10.163  0.3167 -0.9091 -0.5843
   34DOPE   H4S 4298   4.976   5.124  10.217  1.9682  0.5594  0.0439
   34DOPE   C25 4299   4.969   4.927  10.298  0.3138 -0.3885  0.1008
   34DOPE   H5R 4300   4.935   4.827  10.262  0.2216 -0.0997 -0.6243
   34DOPE   H5S 4301   4.910   4.957  10.388 -1.9664  0.9006 -1.7074
   34DOPE   C26 4302   5.121   4.923  10.320 -0.0469  0.0749 -0.7742
   34DOPE   H6R 4303   5.185   4.904  10.231  0.0895 -0.3614 -0.5882
   34DOPE   H6S 4304   5.136   4.833  10.384  0.0257  0.2995 -0.4774
   34DOPE   C27 4305   5.178   5.045  10.401  0.0068  0.0968  0.8158
   34DOPE   H7R 4306   5.130   5.126  10.341 -2.0672 -1.3117  0.4770
   34DOPE   H7S 4307   5.288   5.045  10.390 -0.1354 -0.3478 -0.8932
   34DOPE   C28 4308   5.138   5.058  10.544 -0.1060  0.4709  0.0885
   34DOPE   H8R 4309   5.030   5.042  10.565 -0.2494  0.5608 -0.5468
   34DOPE   H8S 4310   5.148   5.166  10.569 -0.6101  0.3829  0.6873
   34DOPE   C29 4311   5.232   4.976  10.628 -0.1866 -0.3228  0.5129
   34DOPE   H9R 4312   5.222   4.869  10.604 -2.2887 -0.1312  0.4262
   34DOPE  C210 4313   5.320   5.010  10.717 -0.2475  0.3267  0.4884
   34DOPE  H10R 4314   5.385   4.933  10.763 -0.8254 -1.3024 -1.3081
   34DOPE  C211 4315   5.340   5.148  10.768 -0.3674 -0.6722 -0.9314
   34DOPE  H11R 4316   5.256   5.214  10.739  0.9582  0.8047 -1.5692
   34DOPE  H11S 4317   5.436   5.196  10.736 -0.4863 -0.0972 -0.4419
   34DOPE  C212 4318   5.332   5.144  10.931 -0.3299  0.6531 -0.4424
   34DOPE  H12R 4319   5.229   5.119  10.963 -0.5084  0.0128 -1.4720
   34DOPE  H12S 4320   5.364   5.245  10.965  0.0815 -0.3383  2.3024
   34DOPE  C213 4321   5.432   5.046  10.998  0.0843 -0.8775 -0.0640
   34DOPE  H13R 4322   5.531   5.068  10.952  0.4290 -1.0629  0.5791
   34DOPE  H13S 4323   5.401   4.941  10.981  0.6882 -1.2862  1.2286
   34DOPE  C214 4324   5.445   5.079  11.147 -0.1051 -0.3005 -0.2605
   34DOPE  H14R 4325   5.502   4.991  11.181 -1.7295 -0.6958  1.6775
   34DOPE  H14S 4326   5.346   5.073  11.199  0.4015 -0.3092  0.7347
   34DOPE  C215 4327   5.524   5.208  11.183  0.4591  0.4165  0.1764
   34DOPE  H15R 4328   5.486   5.293  11.122  0.3948 -1.2227 -2.1997
   34DOPE  H15S 4329   5.627   5.182  11.149  0.4978 -2.0309  1.9019
   34DOPE  C216 4330   5.522   5.238  11.332  0.4387  0.2529 -0.3139
   34DOPE  H16R 4331   5.419   5.270  11.360  0.3688 -0.9727  0.9724
   34DOPE  H16S 4332   5.595   5.317  11.359  0.9285 -1.0118  2.4791
   34DOPE  C217 4333   5.548   5.126  11.432  0.1141 -0.5590  0.0074
   34DOPE  H17R 4334   5.651   5.088  11.414 -0.3028 -1.7453  0.0675
   34DOPE  H17S 4335   5.474   5.043  11.428  1.2118 -1.6210  0.7432
   34DOPE  C218 4336   5.560   5.180  11.579  0.0559  0.6518 -0.2996
   34DOPE  H18R 4337   5.466   5.224  11.618 -0.2110  0.0561 -0.2551
   34DOPE  H18S 4338   5.639   5.258  11.578  0.6930  0.0355  0.2782
   34DOPE  H18T 4339   5.591   5.090  11.637 -0.8275  0.3165 -0.3280
   34DOPE   C33 4340   5.397   5.025   9.969  0.0347 -0.1015  0.3028
   34DOPE   H3X 4341   5.317   4.949   9.956  0.7780 -0.8355  0.0050
   34DOPE   H3Y 4342   5.353   5.128   9.971  0.6419  0.2725 -2.3081
   34DOPE   C34 4343   5.466   4.997  10.103  0.2192  0.3751 -0.4075
   34DOPE   H4X 4344   5.386   4.969  10.175  1.9027 -1.5030  0.8712
   34DOPE   H4Y 4345   5.538   4.912  10.096 -3.0849 -2.5944 -1.0293
   34DOPE   C35 4346   5.549   5.108  10.181 -0.0587 -0.3657  0.7146
   34DOPE   H5X 4347   5.473   5.181  10.216  0.7469  1.0365 -0.3159
   34DOPE   H5Y 4348   5.621   5.150  10.107 -0.9242  1.0431  0.6363
   34DOPE   C36 4349   5.618   5.051  10.301 -0.2926 -0.3965 -0.5502
   34DOPE   H6X 4350   5.685   4.967  10.273 -1.7384 -1.3724 -1.1984
   34DOPE   H6Y 4351   5.535   5.018  10.367  1.3715 -0.9003  1.3949
   34DOPE   C37 4352   5.698   5.147  10.387 -0.0946 -0.2411 -0.6564
   34DOPE   H7X 4353   5.757   5.213  10.320 -0.3672  1.3992  0.6479
   34DOPE   H7Y 4354   5.626   5.201  10.453 -2.3980 -3.7884  0.0384
   34DOPE   C38 4355   5.799   5.078  10.482 -0.4639 -0.1489 -0.6801
   34DOPE   H8X 4356   5.880   5.151  10.502 -1.0726  0.4659 -0.4224
   34DOPE   H8Y 4357   5.834   4.990  10.424 -2.1832 -2.0440  0.9842
   34DOPE   C39 4358   5.756   5.030  10.621  0.1613 -0.7594  0.4059
   34DOPE   H9X 4359   5.712   4.930  10.631 -1.3759 -0.3519 -1.7454
   34DOPE  C310 4360   5.756   5.105  10.729  0.4835 -0.0077  0.0853
   34DOPE  H10X 4361   5.702   5.054  10.811 -1.0014 -1.2145 -1.5662
   34DOPE  C311 4362   5.789   5.253  10.737  0.7634 -0.2673 -0.4290
   34DOPE  H11X 4363   5.818   5.287  10.636 -1.2218 -1.4961 -1.4784
   34DOPE  H11Y 4364   5.698   5.314  10.755  1.0179  0.2488 -0.8569
   34DOPE  C312 4365   5.884   5.306  10.848  0.2807  0.2075  0.0244
   34DOPE  H12X 4366   5.893   5.417  10.844  1.4804  0.2411  1.9713
   34DOPE  H12Y 4367   5.985   5.264  10.826 -0.5458 -0.8271 -2.0371
   34DOPE  C313 4368   5.838   5.287  10.992  0.0002  0.8126  0.2797
   34DOPE  H13X 4369   5.747   5.346  11.015  0.3345  0.9973  1.1809
   34DOPE  H13Y 4370   5.825   5.180  11.018  0.2466  0.8731  0.6643
   34DOPE  C314 4371   5.936   5.359  11.082 -0.7398  0.5849 -0.1371
   34DOPE  H14X 4372   5.958   5.463  11.051  1.7071  0.1055 -0.2123
   34DOPE  H14Y 4373   6.037   5.313  11.077 -2.2976 -3.2486  0.6182
   34DOPE  C315 4374   5.892   5.340  11.225 -0.1539 -0.5979  0.0646
   34DOPE  H15X 4375   5.887   5.229  11.237 -0.6355 -0.5456  0.3566
   34DOPE  H15Y 4376   5.789   5.371  11.252  0.3914 -0.5358  2.2806
   34DOPE  C316 4377   5.995   5.396  11.329  0.5548 -0.3527  0.4405
   34DOPE  H16X 4378   6.003   5.507  11.333 -0.9249 -0.1242 -1.5663
   34DOPE  H16Y 4379   6.094   5.351  11.308  1.2419  0.9102  0.8396
   34DOPE  C317 4380   5.965   5.346  11.473  0.1292  0.5015 -0.1486
   34DOPE  H17X 4381   6.034   5.406  11.537 -0.4354  0.9447  0.0600
   34DOPE  H17Y 4382   5.861   5.373  11.502  0.4129  0.9486  0.4748
   34DOPE  C318 4383   5.991   5.201  11.482  0.3324  0.3632  0.3610
   34DOPE  H18X 4384   5.912   5.132  11.448  2.2269 -1.2094 -1.0255
   34DOPE  H18Y 4385   6.076   5.174  11.416 -0.3263  1.4728 -0.9962
   34DOPE  H18Z 4386   6.008   5.166  11.586 -0.6915 -2.3640 -0.3214
   35DOPE     N 4387   0.996   4.697   9.501  0.5220  0.4435  0.4597
   35DOPE   HN1 4388   1.058   4.769   9.542 -1.5664  2.6701 -0.0656
   35DOPE   HN2 4389   1.031   4.667   9.407 -1.0573  1.4496 -0.5054
   35DOPE   HN3 4390   0.910   4.748   9.471  1.5863  1.3294 -1.2774
   35DOPE   C12 4391   0.979   4.581   9.587  0.5562  0.2402 -0.0799
   35DOPE  H12A 4392   1.072   4.561   9.645  0.2048 -1.7096 -0.1343
   35DOPE  H12B 4393   0.958   4.488   9.530 -1.8170 -0.6469  2.0625
   35DOPE   C11 4394   0.870   4.594   9.694 -0.5472  0.8895  0.0070
   35DOPE  H11A 4395   0.896   4.679   9.760  1.5581  2.3391 -2.5030
   35DOPE  H11B 4396   0.869   4.509   9.766 -0.4314  1.2136  0.3911
   35DOPE     P 4397   0.640   4.503   9.627  0.4386  0.1345 -0.4117
   35DOPE   O13 4398   0.720   4.385   9.592  0.2302  0.1346  0.1130
   35DOPE   O14 4399   0.535   4.556   9.540 -0.5133 -0.4017  0.1203
   35DOPE   O11 4400   0.584   4.486   9.778  0.2691  0.2894 -0.0197
   35DOPE   O12 4401   0.743   4.623   9.639 -0.0343 -0.2100 -0.0896
   35DOPE    C1 4402   0.520   4.601   9.833 -0.0962 -0.4595 -0.0270
   35DOPE    HA 4403   0.448   4.563   9.909  1.8464 -1.3425  1.4433
   35DOPE    HB 4404   0.460   4.664   9.764 -0.3407 -0.2342  0.3841
   35DOPE    C2 4405   0.611   4.694   9.920 -0.2043  0.3300  0.4355
   35DOPE    HS 4406   0.690   4.733   9.854  0.9904 -2.3269  0.1777
   35DOPE   O21 4407   0.650   4.615  10.027 -0.2967 -0.0288 -0.6186
   35DOPE   C21 4408   0.766   4.631  10.070 -0.2520 -0.9039 -0.1631
   35DOPE   O22 4409   0.860   4.698  10.021  0.2042  1.2640  0.4163
   35DOPE   C22 4410   0.778   4.562  10.208 -0.4033 -0.4614  0.1492
   35DOPE   H2R 4411   0.888   4.557  10.222 -0.0453 -2.3526 -2.4729
   35DOPE   H2S 4412   0.738   4.459  10.193 -0.4199 -0.4639  0.2178
   35DOPE    C3 4413   0.535   4.824   9.965 -0.0832 -0.4494  0.1168
   35DOPE    HX 4414   0.449   4.784  10.023 -0.9613 -1.3073 -1.7021
   35DOPE    HY 4415   0.486   4.863   9.873 -0.7402  2.7080  1.6771
   35DOPE   O31 4416   0.612   4.927  10.032  0.7332 -0.2035  1.1152
   35DOPE   C31 4417   0.542   5.031  10.068  0.7233 -0.4012  0.1250
   35DOPE   O32 4418   0.421   5.048  10.053 -0.2869 -0.0853  0.1348
   35DOPE   C32 4419   0.643   5.133  10.126  0.6092  0.3231 -0.3783
   35DOPE   H2X 4420   0.745   5.091  10.131  0.0794 -0.8677  1.3993
   35DOPE   H2Y 4421   0.632   5.221  10.058  0.5982  0.3000 -0.4063
   35DOPE   C23 4422   0.708   4.623  10.333 -0.2286 -0.1478  0.5693
   35DOPE   H3R 4423   0.599   4.639  10.315 -0.0748 -0.1401 -0.4054
   35DOPE   H3S 4424   0.762   4.718  10.354  0.4236  0.7114 -3.8919
   35DOPE   C24 4425   0.722   4.525  10.456 -0.1374  0.9684  0.3662
   35DOPE   H4R 4426   0.829   4.497  10.470 -0.0607  1.1172  0.0794
   35DOPE   H4S 4427   0.661   4.434  10.435  0.3163  1.4488 -3.8395
   35DOPE   C25 4428   0.672   4.583  10.585 -0.0772 -0.0399 -1.0090
   35DOPE   H5R 4429   0.572   4.623  10.556 -0.8208 -0.9919  0.1618
   35DOPE   H5S 4430   0.743   4.664  10.614 -0.1366  0.3699 -1.9879
   35DOPE   C26 4431   0.647   4.482  10.702  0.0997 -0.0856  0.5126
   35DOPE   H6R 4432   0.628   4.376  10.673 -1.1244 -0.4475  2.4651
   35DOPE   H6S 4433   0.567   4.518  10.770 -1.8183  0.9545 -2.1004
   35DOPE   C27 4434   0.765   4.482  10.802 -0.8903  0.1247  0.2492
   35DOPE   H7R 4435   0.792   4.579  10.848  2.4984 -1.6309  2.3220
   35DOPE   H7S 4436   0.852   4.457  10.738 -1.8330 -2.4013 -0.1767
   35DOPE   C28 4437   0.740   4.371  10.904 -0.1621 -0.0428  0.0918
   35DOPE   H8R 4438   0.717   4.279  10.846 -0.2711  1.1919 -1.9388
   35DOPE   H8S 4439   0.653   4.389  10.970 -0.3495  0.1532 -0.2068
   35DOPE   C29 4440   0.870   4.341  10.973  1.0464  0.3562  0.0904
   35DOPE   H9R 4441   0.952   4.331  10.900  0.8783  1.7335 -0.3129
   35DOPE  C210 4442   0.886   4.331  11.103 -0.3899 -0.0327  0.6375
   35DOPE  H10R 4443   0.987   4.320  11.146  0.6124 -0.8221 -1.7280
   35DOPE  C211 4444   0.785   4.353  11.212  0.3005 -0.0455 -0.9120
   35DOPE  H11R 4445   0.738   4.256  11.239 -1.9901  1.1393 -0.3784
   35DOPE  H11S 4446   0.704   4.421  11.178  2.8871  3.8080  0.0326
   35DOPE  C212 4447   0.857   4.422  11.331  0.0112 -0.3443 -0.9140
   35DOPE  H12R 4448   0.888   4.527  11.312  1.5717 -0.4256  0.8560
   35DOPE  H12S 4449   0.951   4.371  11.362  0.8794 -1.4001 -4.7020
   35DOPE  C213 4450   0.759   4.426  11.452  0.1841 -0.3993 -0.7521
   35DOPE  H13R 4451   0.661   4.467  11.419  0.9789  1.2995 -1.1270
   35DOPE  H13S 4452   0.787   4.500  11.530 -1.7213 -1.0431  0.6161
   35DOPE  C214 4453   0.731   4.298  11.523 -0.8902 -0.0428 -0.0741
   35DOPE  H14R 4454   0.815   4.272  11.591 -1.1282 -0.4834  0.0554
   35DOPE  H14S 4455   0.725   4.215  11.450  0.8195  1.0053 -1.4740
   35DOPE  C215 4456   0.604   4.307  11.600  0.0768  0.7194  0.2732
   35DOPE  H15R 4457   0.524   4.339  11.530 -0.8896 -0.6696  0.7104
   35DOPE  H15S 4458   0.603   4.393  11.672  1.8536  2.6099 -1.8236
   35DOPE  C216 4459   0.565   4.186  11.679  0.0684  0.3519  0.2064
   35DOPE  H16R 4460   0.564   4.087  11.628 -1.1119  0.5060 -0.1106
   35DOPE  H16S 4461   0.461   4.197  11.718 -0.3107  0.1634 -0.7096
   35DOPE  C217 4462   0.648   4.179  11.809 -0.2414 -0.4454 -0.4031
   35DOPE  H17R 4463   0.653   4.282  11.851  1.5708 -1.2760  1.6100
   35DOPE  H17S 4464   0.753   4.147  11.792  0.2946  1.7887 -1.7880
   35DOPE  C218 4465   0.594   4.084  11.912  0.6510 -0.8220 -0.7434
   35DOPE  H18R 4466   0.610   3.976  11.896  0.1516 -1.2554  1.3607
   35DOPE  H18S 4467   0.483   4.082  11.911  0.6366 -2.3660  0.8736
   35DOPE  H18T 4468   0.621   4.126  12.012  0.7348  0.1456 -1.1570
   35DOPE   C33 4469   0.616   5.171  10.274 -0.2009  0.1012  0.2394
   35DOPE   H3X 4470   0.544   5.255  10.276  1.0409  1.2269 -1.0489
   35DOPE   H3Y 4471   0.701   5.218  10.327 -1.2359 -1.0325  3.1475
   35DOPE   C34 4472   0.564   5.059  10.357 -0.4448 -0.2715  1.1373
   35DOPE   H4X 4473   0.455   5.051  10.341 -0.0556 -1.2567 -1.6685
   35DOPE   H4Y 4474   0.611   4.959  10.344  1.0283  0.1394  2.8153
   35DOPE   C35 4475   0.596   5.091  10.508  0.3196  0.0140 -0.2164
   35DOPE   H5X 4476   0.535   5.183  10.523 -0.8090 -0.8585  0.7670
   35DOPE   H5Y 4477   0.704   5.110  10.524  0.2945  1.3704 -1.4290
   35DOPE   C36 4478   0.547   4.984  10.611 -1.0341  1.0688 -0.0624
   35DOPE   H6X 4479   0.583   4.887  10.572 -0.0958  1.3374  0.1214
   35DOPE   H6Y 4480   0.436   4.986  10.608 -1.2061 -0.9860  2.3428
   35DOPE   C37 4481   0.606   4.988  10.751  0.1092  0.2123  0.6091
   35DOPE   H7X 4482   0.717   4.991  10.753  0.3111 -3.2522  1.0164
   35DOPE   H7Y 4483   0.574   5.079  10.807  2.0709  2.0963 -1.1632
   35DOPE   C38 4484   0.586   4.865  10.840 -0.5100 -0.3818  0.1634
   35DOPE   H8X 4485   0.653   4.871  10.929 -0.2920  0.4035 -0.0506
   35DOPE   H8Y 4486   0.606   4.768  10.789 -1.3655 -0.7868  0.5621
   35DOPE   C39 4487   0.439   4.859  10.883 -0.3083 -0.2906 -0.1501
   35DOPE   H9X 4488   0.378   4.820  10.800 -0.4988 -0.1517 -0.0757
   35DOPE  C310 4489   0.390   4.885  11.002 -0.3976  0.3500 -0.4332
   35DOPE  H10X 4490   0.283   4.884  11.026 -0.4174 -2.4372 -0.2757
   35DOPE  C311 4491   0.482   4.946  11.107 -0.0557 -0.5885  0.2085
   35DOPE  H11X 4492   0.579   4.980  11.063 -1.2446  1.3836 -1.0929
   35DOPE  H11Y 4493   0.432   5.033  11.155 -0.4534 -0.2937 -0.7169
   35DOPE  C312 4494   0.520   4.846  11.221 -0.2511  1.1747  0.3569
   35DOPE  H12X 4495   0.591   4.886  11.296  1.1759 -1.4983  0.5510
   35DOPE  H12Y 4496   0.568   4.758  11.175  0.2052  1.1913  0.7967
   35DOPE  C313 4497   0.404   4.793  11.296  0.0234  0.3071 -0.0629
   35DOPE  H13X 4498   0.320   4.794  11.223 -0.3197  0.7795  0.3309
   35DOPE  H13Y 4499   0.424   4.686  11.319  0.2249  0.0392 -1.4058
   35DOPE  C314 4500   0.384   4.872  11.427 -0.1727  0.0917 -0.0735
   35DOPE  H14X 4501   0.394   4.978  11.395 -0.5737  0.6596  1.5799
   35DOPE  H14Y 4502   0.475   4.847  11.486 -0.4464  2.1853  1.3458
   35DOPE  C315 4503   0.255   4.846  11.519  0.2077  1.5507 -0.4290
   35DOPE  H15X 4504   0.269   4.739  11.547  3.6689  1.8513 -0.5477
   35DOPE  H15Y 4505   0.161   4.840  11.461 -0.5836 -2.3286  0.8936
   35DOPE  C316 4506   0.267   4.922  11.647 -0.2132 -0.3463 -0.1272
   35DOPE  H16X 4507   0.272   5.032  11.633  4.0505 -0.1518  1.1795
   35DOPE  H16Y 4508   0.366   4.891  11.687  1.2467  3.3611 -0.4306
   35DOPE  C317 4509   0.171   4.886  11.759 -0.1180  0.0903  0.3640
   35DOPE  H17X 4510   0.150   4.777  11.750 -0.9319  0.3506 -1.5272
   35DOPE  H17Y 4511   0.203   4.903  11.863 -0.0945 -0.3892  0.4385
   35DOPE  C318 4512   0.036   4.949  11.755 -0.2466  0.1049  0.0536
   35DOPE  H18X 4513   0.036   5.052  11.795  1.3838  0.3431 -0.4978
   35DOPE  H18Y 4514  -0.003   4.945  11.651  0.0802  1.4508 -0.1360
   35DOPE  H18Z 4515  -0.037   4.887  11.813  1.0566  0.8134  2.5877
   36DOPE     N 4516   1.972   5.829   8.916 -0.2326 -0.1929 -0.0579
   36DOPE   HN1 4517   1.922   5.741   8.942  1.1785 -1.1480 -0.4493
   36DOPE   HN2 4518   1.924   5.882   8.841 -1.3146 -1.3349 -0.2039
   36DOPE   HN3 4519   2.067   5.802   8.882 -0.7401  0.6314 -2.2198
   36DOPE   C12 4520   2.006   5.904   9.043 -0.4359 -0.4143 -0.0997
   36DOPE  H12A 4521   2.059   5.839   9.115 -0.9262  0.1709  0.8026
   36DOPE  H12B 4522   1.915   5.949   9.087  0.4781  0.5003  0.9189
   36DOPE   C11 4523   2.105   6.013   9.025  0.1712 -0.7918  0.1611
   36DOPE  H11A 4524   2.194   5.978   8.968  0.6114  2.9100 -1.7361
   36DOPE  H11B 4525   2.144   6.053   9.121  0.4508 -0.9527  0.1188
   36DOPE     P 4526   2.143   6.237   8.879 -0.5198 -0.1514 -0.3013
   36DOPE   O13 4527   2.078   6.372   8.893 -0.0418  0.0336  0.8790
   36DOPE   O14 4528   2.174   6.185   8.749 -0.0135 -0.3042  0.4617
   36DOPE   O11 4529   2.286   6.230   8.956  0.3121  0.3654 -0.4411
   36DOPE   O12 4530   2.045   6.124   8.953 -1.1605  0.0598 -0.0086
   36DOPE    C1 4531   2.335   6.339   9.029 -0.1918 -0.9275 -0.3239
   36DOPE    HA 4532   2.293   6.436   8.993 -0.2115 -1.1464 -0.9107
   36DOPE    HB 4533   2.444   6.348   9.006  0.0248  1.4677  1.2795
   36DOPE    C2 4534   2.307   6.325   9.175  0.6987 -0.6225 -0.4408
   36DOPE    HS 4535   2.333   6.222   9.209 -0.5123 -0.5398  0.8191
   36DOPE   O21 4536   2.158   6.338   9.192 -0.3867 -0.4902 -0.8238
   36DOPE   C21 4537   2.104   6.274   9.286 -0.4622 -0.2723 -0.0290
   36DOPE   O22 4538   2.153   6.194   9.360 -0.4333 -0.3471 -0.1322
   36DOPE   C22 4539   1.956   6.320   9.297 -0.2890  0.5985  0.2164
   36DOPE   H2R 4540   1.915   6.313   9.194  1.6909  1.2301 -0.6740
   36DOPE   H2S 4541   1.953   6.430   9.314 -3.4943  0.4490  1.2238
   36DOPE    C3 4542   2.383   6.439   9.253  0.0799 -0.1280 -0.6342
   36DOPE    HX 4543   2.363   6.542   9.214 -0.2146  0.7413  1.6957
   36DOPE    HY 4544   2.492   6.424   9.238 -0.0801 -2.0252 -0.0577
   36DOPE   O31 4545   2.347   6.453   9.395  0.0343  0.5385 -0.1248
   36DOPE   C31 4546   2.401   6.351   9.463 -0.1431 -0.2575 -0.1962
   36DOPE   O32 4547   2.485   6.277   9.416  0.4162  0.2298 -0.3029
   36DOPE   C32 4548   2.334   6.338   9.606  0.2807  0.1707 -0.1404
   36DOPE   H2X 4549   2.273   6.430   9.621  0.3208 -0.2248  3.4357
   36DOPE   H2Y 4550   2.270   6.247   9.604 -1.0645  1.0767  0.2567
   36DOPE   C23 4551   1.883   6.233   9.404  0.5983 -0.2752  0.1128
   36DOPE   H3R 4552   1.934   6.240   9.503  1.4481  1.2741 -0.3977
   36DOPE   H3S 4553   1.881   6.128   9.370  0.8006 -0.0357 -0.6501
   36DOPE   C24 4554   1.735   6.260   9.436  0.0174  0.2578 -0.5178
   36DOPE   H4R 4555   1.676   6.222   9.350 -0.5289  0.1700 -0.1116
   36DOPE   H4S 4556   1.720   6.370   9.444 -0.5706  0.0384  2.4547
   36DOPE   C25 4557   1.685   6.187   9.562  0.2028 -0.3188 -0.4258
   36DOPE   H5R 4558   1.763   6.158   9.635 -1.6889  0.7970  2.2231
   36DOPE   H5S 4559   1.648   6.086   9.533 -0.5266 -0.1163 -0.2337
   36DOPE   C26 4560   1.591   6.263   9.656  0.0311  0.5037 -0.0167
   36DOPE   H6R 4561   1.558   6.189   9.733 -0.4919 -0.0885 -0.7953
   36DOPE   H6S 4562   1.507   6.305   9.597  0.1014 -0.4339 -0.8151
   36DOPE   C27 4563   1.642   6.394   9.718  0.3761  0.3162  0.0628
   36DOPE   H7R 4564   1.564   6.428   9.789  0.5935  0.8258  0.0594
   36DOPE   H7S 4565   1.642   6.473   9.640  0.7529  0.4292  0.1769
   36DOPE   C28 4566   1.771   6.389   9.793 -0.2325 -0.6453  0.4099
   36DOPE   H8R 4567   1.806   6.490   9.822 -0.7608 -0.2312 -0.3523
   36DOPE   H8S 4568   1.849   6.362   9.718 -1.5461 -0.6083 -1.0266
   36DOPE   C29 4569   1.773   6.279   9.893  0.3490  0.3118  0.5075
   36DOPE   H9R 4570   1.713   6.188   9.876 -0.0119  0.2314  2.0242
   36DOPE  C210 4571   1.836   6.284  10.011  0.4622 -0.1221  0.9934
   36DOPE  H10R 4572   1.824   6.196  10.075 -0.5517 -0.3265  0.5361
   36DOPE  C211 4573   1.923   6.404  10.042  0.2473  0.1887  0.4736
   36DOPE  H11R 4574   1.860   6.496  10.039 -3.7157 -2.1319  3.0921
   36DOPE  H11S 4575   1.999   6.409   9.961  0.0015 -0.8323  0.1635
   36DOPE  C212 4576   1.992   6.382  10.178 -0.4640  0.2686  0.1726
   36DOPE  H12R 4577   2.083   6.446  10.182  0.3091 -0.8666  2.9154
   36DOPE  H12S 4578   2.038   6.281  10.181  1.1456  0.9319 -0.5575
   36DOPE  C213 4579   1.909   6.407  10.302 -0.1922 -0.1320  0.2202
   36DOPE  H13R 4580   1.817   6.344  10.298 -0.9464  0.9499 -0.0872
   36DOPE  H13S 4581   1.866   6.508  10.284  0.2600  0.5333  2.6093
   36DOPE  C214 4582   1.993   6.384  10.427 -0.0868  0.2565  0.1375
   36DOPE  H14R 4583   2.080   6.452  10.411  0.1165 -0.3938 -1.6726
   36DOPE  H14S 4584   2.026   6.279  10.438 -1.4207 -0.2276 -0.3164
   36DOPE  C215 4585   1.930   6.425  10.563 -0.4638 -0.4476  0.4529
   36DOPE  H15R 4586   1.846   6.358  10.588 -0.1391 -1.7688 -1.6903
   36DOPE  H15S 4587   1.880   6.523  10.544 -1.2074 -0.7071  1.0347
   36DOPE  C216 4588   2.029   6.462  10.675  0.1686 -0.6515  0.3357
   36DOPE  H16R 4589   2.103   6.537  10.637  0.1469 -0.6188  0.3583
   36DOPE  H16S 4590   2.083   6.368  10.700  1.6139  0.0693  0.0302
   36DOPE  C217 4591   1.970   6.515  10.805  0.2056  0.1720  0.9913
   36DOPE  H17R 4592   1.891   6.444  10.839  0.5019 -1.0842 -0.7683
   36DOPE  H17S 4593   1.923   6.614  10.790  2.2114  1.6088  3.4469
   36DOPE  C218 4594   2.077   6.524  10.908 -0.5933 -0.4730 -0.1598
   36DOPE  H18R 4595   2.129   6.622  10.901  0.2602 -0.9472 -0.6558
   36DOPE  H18S 4596   2.154   6.445  10.897  1.0687  0.7986  1.7338
   36DOPE  H18T 4597   2.041   6.523  11.013 -1.1752 -1.5171 -0.3535
   36DOPE   C33 4598   2.434   6.323   9.719  0.2900  0.3869  0.3303
   36DOPE   H3X 4599   2.510   6.404   9.731  2.7760 -1.6575 -0.7175
   36DOPE   H3Y 4600   2.501   6.235   9.712 -0.3165 -0.3561  2.8702
   36DOPE   C34 4601   2.380   6.314   9.858  0.5354  1.1000 -0.6579
   36DOPE   H4X 4602   2.299   6.390   9.862 -2.2786 -1.7028  1.5007
   36DOPE   H4Y 4603   2.336   6.213   9.873  1.0441  0.8788 -0.6268
   36DOPE   C35 4604   2.476   6.358   9.964 -0.2849 -0.4274  0.2049
   36DOPE   H5X 4605   2.511   6.460   9.937  0.6596 -0.8893 -0.3422
   36DOPE   H5Y 4606   2.570   6.300   9.968  0.7238  1.2160  1.1372
   36DOPE   C36 4607   2.409   6.355  10.102 -0.2571  0.2576 -0.7535
   36DOPE   H6X 4608   2.372   6.251  10.115  0.1503  0.1585 -0.3504
   36DOPE   H6Y 4609   2.326   6.429  10.098 -0.5104 -0.0429 -1.0608
   36DOPE   C37 4610   2.520   6.391  10.212 -0.6678 -0.1615 -0.2431
   36DOPE   H7X 4611   2.601   6.316  10.210 -0.4474  0.0868 -1.3735
   36DOPE   H7Y 4612   2.568   6.487  10.183  0.5195 -0.6992 -0.1282
   36DOPE   C38 4613   2.455   6.388  10.357  0.0641 -0.1050 -0.4145
   36DOPE   H8X 4614   2.396   6.298  10.387  0.8753 -0.2207  0.9222
   36DOPE   H8Y 4615   2.386   6.475  10.355  1.2058  0.7985 -1.0689
   36DOPE   C39 4616   2.569   6.414  10.458  0.3750  0.0199 -0.0046
   36DOPE   H9X 4617   2.659   6.356  10.434  0.5102 -0.7741  2.2043
   36DOPE  C310 4618   2.570   6.491  10.571  0.3731 -0.1723  0.1046
   36DOPE  H10X 4619   2.667   6.508  10.619 -1.0032  2.3318  2.2873
   36DOPE  C311 4620   2.453   6.566  10.626  0.6278  0.5596 -0.3394
   36DOPE  H11X 4621   2.460   6.677  10.615  0.2455  0.6746  0.5149
   36DOPE  H11Y 4622   2.367   6.532  10.564  0.6114  0.5847 -0.3300
   36DOPE  C312 4623   2.421   6.534  10.768  0.2361 -0.4585  0.0426
   36DOPE  H12X 4624   2.408   6.424  10.771  0.3648 -0.4852 -0.3968
   36DOPE  H12Y 4625   2.325   6.570  10.811 -1.0919 -4.1386  0.5135
   36DOPE  C313 4626   2.538   6.581  10.863  0.2780  0.1121  0.2743
   36DOPE  H13X 4627   2.629   6.522  10.839  1.0015  0.7509  1.3599
   36DOPE  H13Y 4628   2.560   6.690  10.858  1.7750 -0.1569  0.5786
   36DOPE  C314 4629   2.501   6.547  11.004  0.2189 -0.2468 -0.1798
   36DOPE  H14X 4630   2.451   6.448  11.008  1.3342 -0.8182 -0.1933
   36DOPE  H14Y 4631   2.421   6.624  11.009 -0.0272 -0.5458  0.6429
   36DOPE  C315 4632   2.623   6.583  11.093 -0.7018  0.4850 -0.4498
   36DOPE  H15X 4633   2.647   6.691  11.099 -1.2036  0.5760 -0.0239
   36DOPE  H15Y 4634   2.705   6.521  11.051 -3.1456 -2.0067 -1.9019
   36DOPE  C316 4635   2.625   6.537  11.239 -0.0293 -0.3249  0.2240
   36DOPE  H16X 4636   2.723   6.568  11.282  0.5033  1.2225 -1.9170
   36DOPE  H16Y 4637   2.626   6.427  11.258 -1.0118 -0.1211  1.6017
   36DOPE  C317 4638   2.503   6.582  11.315  0.0146 -0.2423 -1.0298
   36DOPE  H17X 4639   2.422   6.518  11.275 -1.2947  1.6092 -1.4449
   36DOPE  H17Y 4640   2.528   6.561  11.422 -0.1130  0.9353 -0.7541
   36DOPE  C318 4641   2.461   6.727  11.302  0.2229 -0.2652 -0.0723
   36DOPE  H18X 4642   2.551   6.790  11.317 -0.4012  0.2624  1.8326
   36DOPE  H18Y 4643   2.407   6.744  11.207 -0.8715 -0.8119  0.4277
   36DOPE  H18Z 4644   2.399   6.741  11.394 -0.8533 -0.0345 -0.8157
   37DOPE     N 4645   4.616   4.450   9.452 -0.7409  0.1226 -0.2660
   37DOPE   HN1 4646   4.516   4.480   9.459 -1.0705 -1.0382  0.1933
   37DOPE   HN2 4647   4.640   4.446   9.351  0.2508 -0.9344  0.0052
   37DOPE   HN3 4648   4.638   4.353   9.482 -0.2352  0.4590  0.4817
   37DOPE   C12 4649   4.719   4.536   9.522 -0.0869  0.6190 -0.1052
   37DOPE  H12A 4650   4.675   4.571   9.618  1.8806 -0.5483  1.3004
   37DOPE  H12B 4651   4.720   4.631   9.464 -1.0426  0.3333 -0.5906
   37DOPE   C11 4652   4.858   4.480   9.525  0.0698  0.1595 -0.1920
   37DOPE  H11A 4653   4.853   4.396   9.597 -2.1039  0.3636 -0.0523
   37DOPE  H11B 4654   4.923   4.561   9.567  0.2867 -0.9616  1.7592
   37DOPE     P 4655   4.981   4.520   9.292  0.1629  0.0580  0.1497
   37DOPE   O13 4656   4.926   4.657   9.278 -0.0889  0.0022 -0.2590
   37DOPE   O14 4657   4.981   4.445   9.162 -0.5746 -0.1725 -0.1380
   37DOPE   O11 4658   5.124   4.526   9.356 -0.2548  0.3739  0.3810
   37DOPE   O12 4659   4.902   4.435   9.398  0.5763 -0.3826  0.1936
   37DOPE    C1 4660   5.211   4.410   9.366 -0.7946 -0.4048 -0.3709
   37DOPE    HA 4661   5.310   4.430   9.319 -0.0351 -1.0301  0.9082
   37DOPE    HB 4662   5.172   4.320   9.315  0.1074 -0.9511 -0.1126
   37DOPE    C2 4663   5.237   4.379   9.508  0.2664 -0.5588  0.0836
   37DOPE    HS 4664   5.140   4.343   9.546 -0.4893 -0.0935 -1.3292
   37DOPE   O21 4665   5.271   4.501   9.580  0.3164 -0.3854 -0.5200
   37DOPE   C21 4666   5.205   4.533   9.691  0.1979  0.1412 -0.6636
   37DOPE   O22 4667   5.114   4.475   9.753  0.0676 -0.3439 -0.0456
   37DOPE   C22 4668   5.271   4.658   9.735 -0.1868 -0.5137  0.1751
   37DOPE   H2R 4669   5.200   4.736   9.768  0.5788 -0.0075  0.6717
   37DOPE   H2S 4670   5.323   4.712   9.652 -0.1623  1.5051  1.4287
   37DOPE    C3 4671   5.347   4.269   9.531 -1.1386 -0.1193  1.0336
   37DOPE    HX 4672   5.441   4.308   9.486 -3.3226  1.2508 -2.8256
   37DOPE    HY 4673   5.320   4.180   9.470  3.2915  0.5217 -2.4021
   37DOPE   O31 4674   5.360   4.251   9.670  0.6784 -0.6402 -0.0743
   37DOPE   C31 4675   5.355   4.131   9.715 -0.1953 -0.2802 -0.7350
   37DOPE   O32 4676   5.351   4.027   9.655  0.1906 -0.3194  0.4043
   37DOPE   C32 4677   5.351   4.136   9.873  0.2222  0.3100  1.1732
   37DOPE   H2X 4678   5.383   4.239   9.902  1.4395  0.2445  0.1509
   37DOPE   H2Y 4679   5.247   4.106   9.900  0.3816  0.1386  1.5913
   37DOPE   C23 4680   5.389   4.627   9.835 -0.7812  0.5731  0.7330
   37DOPE   H3R 4681   5.441   4.725   9.851  1.3934 -0.2754 -0.6319
   37DOPE   H3S 4682   5.463   4.558   9.790 -0.3766  0.9026  0.8822
   37DOPE   C24 4683   5.344   4.573   9.963 -0.5286 -0.8856  0.6221
   37DOPE   H4R 4684   5.272   4.488   9.957 -1.3222 -0.2371  0.8486
   37DOPE   H4S 4685   5.287   4.658  10.006 -0.3135  0.8131 -2.2213
   37DOPE   C25 4686   5.467   4.525  10.050  0.5736  0.5354  0.7102
   37DOPE   H5R 4687   5.523   4.620  10.065 -0.0252  0.6332  2.5257
   37DOPE   H5S 4688   5.532   4.457   9.991  0.2839  1.8888 -1.2721
   37DOPE   C26 4689   5.427   4.459  10.184  0.4818  0.3914 -0.5753
   37DOPE   H6R 4690   5.509   4.417  10.245 -1.7433 -1.2248  1.5182
   37DOPE   H6S 4691   5.355   4.378  10.157  2.7288 -1.2599 -1.9386
   37DOPE   C27 4692   5.362   4.567  10.283 -0.2208 -0.7685  0.4922
   37DOPE   H7R 4693   5.325   4.513  10.373 -0.0200 -1.4981  0.1497
   37DOPE   H7S 4694   5.277   4.616  10.231 -0.2596  0.2697  1.5119
   37DOPE   C28 4695   5.469   4.678  10.318 -0.0982 -0.1371 -0.7301
   37DOPE   H8R 4696   5.427   4.768  10.368  1.6020  1.4812 -2.0978
   37DOPE   H8S 4697   5.513   4.722  10.227  0.2629 -0.5447 -0.7565
   37DOPE   C29 4698   5.580   4.622  10.405 -0.4519  0.6230  0.5403
   37DOPE   H9R 4699   5.671   4.607  10.344 -0.7336  1.5358 -0.1199
   37DOPE  C210 4700   5.580   4.593  10.539 -0.5715  0.7543 -0.8462
   37DOPE  H10R 4701   5.674   4.558  10.583 -2.3120 -1.7337  1.1881
   37DOPE  C211 4702   5.462   4.598  10.633  0.0486 -0.3740 -0.0816
   37DOPE  H11R 4703   5.442   4.493  10.665  1.8319 -0.1066  2.1746
   37DOPE  H11S 4704   5.373   4.636  10.579  0.7315 -0.8117 -1.5543
   37DOPE  C212 4705   5.494   4.679  10.762  0.3101  0.2857  0.4747
   37DOPE  H12R 4706   5.396   4.693  10.813 -0.0660 -0.0623 -0.1327
   37DOPE  H12S 4707   5.529   4.778  10.728 -0.0304  0.2198 -0.0893
   37DOPE  C213 4708   5.595   4.611  10.861  0.1503 -0.0123  1.2283
   37DOPE  H13R 4709   5.690   4.580  10.813 -0.4853  2.1520 -1.6892
   37DOPE  H13S 4710   5.550   4.519  10.904  0.3461 -1.1884 -0.9822
   37DOPE  C214 4711   5.655   4.695  10.966  0.0227  0.1167  0.0386
   37DOPE  H14R 4712   5.588   4.776  11.001 -0.9049 -1.4622  2.1148
   37DOPE  H14S 4713   5.754   4.738  10.941  0.3833  0.6949  2.3206
   37DOPE  C215 4714   5.673   4.611  11.094 -0.4532 -0.0369 -0.1322
   37DOPE  H15R 4715   5.757   4.543  11.072  0.4790  0.9429  0.3217
   37DOPE  H15S 4716   5.584   4.549  11.119 -0.3061 -0.1649  0.0750
   37DOPE  C216 4717   5.689   4.692  11.220 -0.3844  0.6027 -0.6539
   37DOPE  H16R 4718   5.613   4.773  11.227 -1.8089 -0.6500 -0.9495
   37DOPE  H16S 4719   5.786   4.739  11.196 -0.2699  0.8007  0.1764
   37DOPE  C217 4720   5.717   4.616  11.350  0.2711 -0.4307  0.0388
   37DOPE  H17R 4721   5.809   4.558  11.329 -0.4281 -1.2398 -0.8690
   37DOPE  H17S 4722   5.630   4.546  11.347  0.3868 -0.5344 -1.2478
   37DOPE  C218 4723   5.725   4.698  11.482  0.4238 -0.4922  0.0362
   37DOPE  H18R 4724   5.638   4.767  11.487 -0.8897 -2.0636 -0.4524
   37DOPE  H18S 4725   5.813   4.766  11.488 -0.8461  1.1252  1.1991
   37DOPE  H18T 4726   5.707   4.631  11.569 -2.0684  2.0261  1.6529
   37DOPE   C33 4727   5.450   4.032   9.930  0.6266 -0.2724  0.1124
   37DOPE   H3X 4728   5.553   4.026   9.888 -0.0413 -0.3454 -1.5574
   37DOPE   H3Y 4729   5.410   3.932   9.905 -1.5567  0.2014  1.4857
   37DOPE   C34 4730   5.471   4.048  10.083 -0.4205 -0.3973  0.1868
   37DOPE   H4X 4731   5.538   3.964  10.110 -1.4227 -1.4174 -0.3917
   37DOPE   H4Y 4732   5.522   4.146  10.099 -1.3796  0.0716  0.4832
   37DOPE   C35 4733   5.352   4.040  10.172  0.4849 -0.2131  0.1740
   37DOPE   H5X 4734   5.287   3.954  10.144  0.9470 -0.0558 -1.4719
   37DOPE   H5Y 4735   5.292   4.132  10.159  1.9457  0.8841  0.8497
   37DOPE   C36 4736   5.406   4.018  10.318 -0.8158 -0.3030  0.0538
   37DOPE   H6X 4737   5.485   3.940  10.325  1.8877  2.3810  2.1409
   37DOPE   H6Y 4738   5.327   3.975  10.383 -2.4552  1.0639 -0.9602
   37DOPE   C37 4739   5.463   4.143  10.382 -0.4172  0.5456  0.4197
   37DOPE   H7X 4740   5.541   4.180  10.311  0.2449 -2.2806 -0.4341
   37DOPE   H7Y 4741   5.377   4.214  10.378  0.5263  1.9068  2.3497
   37DOPE   C38 4742   5.518   4.141  10.518 -0.3239 -0.4082 -0.0621
   37DOPE   H8X 4743   5.589   4.227  10.520  0.5725 -1.1081 -0.8004
   37DOPE   H8Y 4744   5.587   4.054  10.519  1.0597  0.6172  1.5920
   37DOPE   C39 4745   5.423   4.139  10.637  0.2891 -0.4725 -0.3564
   37DOPE   H9X 4746   5.313   4.141  10.624  0.1161  1.0057  1.0565
   37DOPE  C310 4747   5.464   4.106  10.763  0.1763 -0.0219 -0.1748
   37DOPE  H10X 4748   5.390   4.119  10.844  0.9787  0.9043  0.4297
   37DOPE  C311 4749   5.604   4.070  10.803  0.4355 -0.0795 -0.4236
   37DOPE  H11X 4750   5.628   3.963  10.818 -0.4922 -0.3490 -0.7893
   37DOPE  H11Y 4751   5.679   4.104  10.729  0.1846  1.5828  0.0270
   37DOPE  C312 4752   5.634   4.134  10.942  0.9823  0.2723 -0.2149
   37DOPE  H12X 4753   5.614   4.243  10.935  3.1498  0.8072  1.0417
   37DOPE  H12Y 4754   5.739   4.119  10.973  0.5998 -1.0113  0.5791
   37DOPE  C313 4755   5.555   4.077  11.069  0.5122 -0.8684 -0.0621
   37DOPE  H13X 4756   5.445   4.076  11.055  0.5734 -0.0510 -0.6657
   37DOPE  H13Y 4757   5.586   3.970  11.073 -0.4443 -1.2303 -1.5916
   37DOPE  C314 4758   5.595   4.153  11.198 -0.2152  0.1473  0.6282
   37DOPE  H14X 4759   5.582   4.262  11.183  1.3860  0.2634 -0.1233
   37DOPE  H14Y 4760   5.704   4.140  11.209 -0.1169  0.3861 -0.0277
   37DOPE  C315 4761   5.515   4.108  11.321 -0.5814 -0.4562 -0.4143
   37DOPE  H15X 4762   5.533   4.001  11.349  2.0746 -0.1557 -0.6849
   37DOPE  H15Y 4763   5.407   4.121  11.301 -0.7929 -0.6248  0.5554
   37DOPE  C316 4764   5.562   4.196  11.431 -0.7751 -0.1886  0.2585
   37DOPE  H16X 4765   5.532   4.299  11.403  0.3226 -0.3117 -1.4697
   37DOPE  H16Y 4766   5.673   4.190  11.435 -0.8114 -2.0859 -0.4171
   37DOPE  C317 4767   5.507   4.138  11.559 -0.3537 -0.7137 -0.6053
   37DOPE  H17X 4768   5.397   4.142  11.541 -0.4856 -3.5386 -0.8529
   37DOPE  H17Y 4769   5.530   4.031  11.581 -1.1852 -0.7549  0.1296
   37DOPE  C318 4770   5.552   4.233  11.673 -0.3889  0.0870 -0.1852
   37DOPE  H18X 4771   5.514   4.192  11.769 -1.4735  0.8488 -0.2697
   37DOPE  H18Y 4772   5.662   4.245  11.678 -0.3517  0.9181 -2.0643
   37DOPE  H18Z 4773   5.516   4.337  11.665  0.7958  0.5749  0.7115
   38DOPE     N 4774   1.916   6.577   8.942  0.2766  0.0451 -0.0037
   38DOPE   HN1 4775   1.888   6.620   8.852  3.1223  2.4197  0.1259
   38DOPE   HN2 4776   1.981   6.642   8.990  2.3528 -1.5841 -0.4509
   38DOPE   HN3 4777   1.970   6.488   8.935  2.0577  1.1144 -0.3996
   38DOPE   C12 4778   1.804   6.552   9.035 -0.1831  0.5033 -0.4482
   38DOPE  H12A 4779   1.831   6.585   9.138 -0.5112  0.2407 -0.2765
   38DOPE  H12B 4780   1.793   6.443   9.049 -1.6199  0.7041  0.2155
   38DOPE   C11 4781   1.665   6.608   8.994 -0.5232 -0.6061  0.3453
   38DOPE  H11A 4782   1.646   6.586   8.887  0.6138 -0.0248  0.0006
   38DOPE  H11B 4783   1.670   6.718   9.009 -0.4527 -0.4479 -0.7189
   38DOPE     P 4784   1.430   6.503   9.019  0.0559 -0.0264 -0.4899
   38DOPE   O13 4785   1.437   6.353   9.007 -0.2317  0.4127  0.1562
   38DOPE   O14 4786   1.397   6.581   8.900  0.1102 -0.2161  0.1755
   38DOPE   O11 4787   1.330   6.541   9.134 -0.0787 -0.8202 -0.2631
   38DOPE   O12 4788   1.563   6.558   9.081 -0.3632  0.2324  0.1332
   38DOPE    C1 4789   1.327   6.670   9.194  0.0617 -0.4348 -0.6257
   38DOPE    HA 4790   1.316   6.749   9.117  2.6725  0.2245 -0.4304
   38DOPE    HB 4791   1.415   6.705   9.252 -1.4063  0.4653  1.1318
   38DOPE    C2 4792   1.208   6.683   9.296 -0.5986  0.0193  0.3072
   38DOPE    HS 4793   1.227   6.776   9.353  0.2596  0.5516 -0.7937
   38DOPE   O21 4794   1.207   6.570   9.385  0.3524  0.3483 -0.8235
   38DOPE   C21 4795   1.305   6.574   9.480  0.7936  0.1897 -0.0468
   38DOPE   O22 4796   1.396   6.654   9.480 -0.2246  0.3747 -0.2620
   38DOPE   C22 4797   1.269   6.472   9.596 -0.4384  0.4998  0.0607
   38DOPE   H2R 4798   1.337   6.385   9.593 -0.8238  0.2043 -0.1254
   38DOPE   H2S 4799   1.171   6.425   9.574  0.1045  0.3703 -2.4317
   38DOPE    C3 4800   1.070   6.683   9.224  0.1429 -0.2305  0.6785
   38DOPE    HX 4801   1.072   6.611   9.140  0.1075  1.6176 -0.9580
   38DOPE    HY 4802   1.066   6.787   9.184 -0.6611  0.2438  1.9317
   38DOPE   O31 4803   0.954   6.666   9.307 -0.0242  0.1884 -0.4118
   38DOPE   C31 4804   0.886   6.553   9.305 -0.1468 -0.2613 -0.2752
   38DOPE   O32 4805   0.906   6.461   9.228  0.1550  0.1354 -0.6246
   38DOPE   C32 4806   0.781   6.559   9.410  0.1038  0.0640  0.0911
   38DOPE   H2X 4807   0.765   6.664   9.442  1.0456  1.0869 -2.5351
   38DOPE   H2Y 4808   0.682   6.529   9.371  0.4142 -1.9811  0.7733
   38DOPE   C23 4809   1.257   6.533   9.737  0.7113  0.2209 -0.4267
   38DOPE   H3R 4810   1.188   6.620   9.734 -1.9542 -1.7489 -0.9711
   38DOPE   H3S 4811   1.357   6.568   9.767 -0.4152  0.9440  2.9380
   38DOPE   C24 4812   1.213   6.425   9.838 -0.2874  0.1702  0.0334
   38DOPE   H4R 4813   1.273   6.332   9.825 -2.0906 -1.2457  1.1893
   38DOPE   H4S 4814   1.107   6.398   9.821 -0.1721 -0.1887 -0.1411
   38DOPE   C25 4815   1.227   6.478   9.982  0.1796  0.0767  0.2468
   38DOPE   H5R 4816   1.177   6.576   9.998  2.4979  0.9156  3.2273
   38DOPE   H5S 4817   1.336   6.489   9.998  0.3881 -0.5504 -0.6443
   38DOPE   C26 4818   1.177   6.376  10.091 -0.9010 -0.7821 -0.0605
   38DOPE   H6R 4819   1.223   6.276  10.078 -1.1083 -0.7601 -1.0624
   38DOPE   H6S 4820   1.067   6.366  10.086 -1.3042  1.1881  2.5311
   38DOPE   C27 4821   1.229   6.418  10.233 -0.1433 -0.1498 -0.4502
   38DOPE   H7R 4822   1.174   6.511  10.257 -0.4773  0.0142 -1.7578
   38DOPE   H7S 4823   1.336   6.450  10.229 -1.3149  4.2015 -2.2071
   38DOPE   C28 4824   1.190   6.314  10.342 -1.0108  0.3774  0.1039
   38DOPE   H8R 4825   1.221   6.214  10.306 -2.3157 -0.0486  0.1216
   38DOPE   H8S 4826   1.080   6.306  10.331 -0.6686 -1.9380 -3.0127
   38DOPE   C29 4827   1.264   6.336  10.475  0.0572  0.3681 -0.1568
   38DOPE   H9R 4828   1.363   6.286  10.477 -0.7602 -1.3733 -1.0648
   38DOPE  C210 4829   1.219   6.407  10.586  0.2156 -1.0582  0.4349
   38DOPE  H10R 4830   1.278   6.419  10.678 -0.3712  0.9285  0.5926
   38DOPE  C211 4831   1.082   6.463  10.596 -0.3269 -0.4868 -0.5700
   38DOPE  H11R 4832   1.000   6.388  10.588  0.0009 -0.9434  0.1954
   38DOPE  H11S 4833   1.058   6.521  10.504  0.9863 -1.1066 -1.3289
   38DOPE  C212 4834   1.057   6.540  10.723  1.0120 -0.0917  0.0611
   38DOPE  H12R 4835   0.951   6.572  10.722 -0.2884 -3.4342  3.8183
   38DOPE  H12S 4836   1.126   6.625  10.737 -0.1277  0.5690  1.9180
   38DOPE  C213 4837   1.051   6.455  10.850  0.4517  0.3041  0.3474
   38DOPE  H13R 4838   1.138   6.387  10.866 -0.7387 -1.8100 -1.5406
   38DOPE  H13S 4839   0.959   6.393  10.852 -0.6577  1.8966  1.1448
   38DOPE  C214 4840   1.032   6.553  10.971 -0.4320 -0.6739  0.0435
   38DOPE  H14R 4841   0.942   6.611  10.942  1.7886  2.4561 -1.1509
   38DOPE  H14S 4842   1.120   6.619  10.984 -0.5175 -0.7636  1.1705
   38DOPE  C215 4843   1.035   6.484  11.106  0.0758 -0.0395  0.1110
   38DOPE  H15R 4844   1.138   6.447  11.123  0.5053  1.6005  1.3228
   38DOPE  H15S 4845   0.962   6.401  11.109 -1.1612  0.9462 -1.2683
   38DOPE  C216 4846   0.997   6.579  11.223  0.2251  0.2386  0.0881
   38DOPE  H16R 4847   0.962   6.521  11.311 -1.3807  1.0442  0.0248
   38DOPE  H16S 4848   0.912   6.639  11.182  1.0376 -0.1144 -2.2572
   38DOPE  C217 4849   1.109   6.672  11.266  0.6313  0.0602  0.0344
   38DOPE  H17R 4850   1.081   6.725  11.360  1.0496  1.3967 -0.5666
   38DOPE  H17S 4851   1.120   6.753  11.191  0.5017 -0.3765 -0.4623
   38DOPE  C218 4852   1.248   6.614  11.289 -0.2204 -0.0682 -0.9616
   38DOPE  H18R 4853   1.254   6.546  11.377  1.7210  1.3638  0.0987
   38DOPE  H18S 4854   1.317   6.696  11.319  0.6278 -1.0190 -0.2097
   38DOPE  H18T 4855   1.286   6.547  11.209  0.8082 -0.7172  0.0285
   38DOPE   C33 4856   0.819   6.467   9.532  0.4058  0.6657  0.3040
   38DOPE   H3X 4857   0.921   6.494   9.565  1.0936  0.6872 -1.7474
   38DOPE   H3Y 4858   0.825   6.357   9.513 -2.9565  0.2700  0.7453
   38DOPE   C34 4859   0.722   6.504   9.656 -0.4443  0.1636  0.1586
   38DOPE   H4X 4860   0.710   6.615   9.651 -0.6977  0.0796 -1.9474
   38DOPE   H4Y 4861   0.625   6.451   9.645 -0.1155 -0.2690 -0.7813
   38DOPE   C35 4862   0.789   6.470   9.790  0.2165  0.1335 -0.3115
   38DOPE   H5X 4863   0.872   6.541   9.808 -1.9486  2.9235 -0.5845
   38DOPE   H5Y 4864   0.834   6.369   9.775  0.4212  0.3107 -0.8959
   38DOPE   C36 4865   0.707   6.467   9.920  0.2763 -0.2655  0.2754
   38DOPE   H6X 4866   0.624   6.394   9.907 -2.0460  2.5357 -1.9768
   38DOPE   H6Y 4867   0.652   6.561   9.937  1.1673  0.4628 -0.6782
   38DOPE   C37 4868   0.794   6.442  10.047  0.3784 -0.3663 -0.5716
   38DOPE   H7X 4869   0.839   6.340  10.041 -0.3227 -0.7368  0.3670
   38DOPE   H7Y 4870   0.872   6.520  10.038 -1.5475  1.8839  1.1450
   38DOPE   C38 4871   0.723   6.463  10.181  0.3899  0.3703 -0.1126
   38DOPE   H8X 4872   0.666   6.370  10.207  0.3593  1.0475  2.5609
   38DOPE   H8Y 4873   0.642   6.534  10.153 -0.5409 -0.5032  0.2686
   38DOPE   C39 4874   0.814   6.497  10.303  0.5284  0.6221  0.3155
   38DOPE   H9X 4875   0.918   6.519  10.278  0.8221 -0.0117  0.9623
   38DOPE  C310 4876   0.778   6.481  10.433  0.3370  0.7759 -0.1594
   38DOPE  H10X 4877   0.838   6.540  10.504  0.5903  1.7259 -1.1217
   38DOPE  C311 4878   0.646   6.428  10.482  0.3158 -0.6099  0.5927
   38DOPE  H11X 4879   0.637   6.483  10.578  0.4621 -0.3599  0.4652
   38DOPE  H11Y 4880   0.570   6.460  10.407 -0.3811  0.2868  1.6584
   38DOPE  C312 4881   0.635   6.277  10.514 -0.1652 -0.3285  0.3461
   38DOPE  H12X 4882   0.730   6.248  10.564 -0.1321  0.1377  0.5610
   38DOPE  H12Y 4883   0.638   6.222  10.417  0.1851 -0.7985  0.6226
   38DOPE  C313 4884   0.512   6.234  10.598 -0.1564  0.7297 -0.1923
   38DOPE  H13X 4885   0.476   6.316  10.665  1.9380  1.9958 -0.5270
   38DOPE  H13Y 4886   0.431   6.207  10.527  1.6347  0.2236 -2.1371
   38DOPE  C314 4887   0.538   6.090  10.667  0.4835  0.1614  0.4829
   38DOPE  H14X 4888   0.618   6.102  10.743 -1.4239 -1.4264  2.8982
   38DOPE  H14Y 4889   0.568   6.018  10.589  0.8486  1.8677 -1.0220
   38DOPE  C315 4890   0.409   6.045  10.743 -0.2090  0.7873 -0.0054
   38DOPE  H15X 4891   0.322   6.067  10.678  0.1947  0.0854 -0.8025
   38DOPE  H15Y 4892   0.400   6.108  10.834  0.6179  0.4518  0.3216
   38DOPE  C316 4893   0.416   5.906  10.805 -0.2962  0.6014 -0.8079
   38DOPE  H16X 4894   0.460   5.837  10.730  0.0305 -1.6256  1.2713
   38DOPE  H16Y 4895   0.318   5.867  10.839  1.3218 -2.9560  0.3747
   38DOPE  C317 4896   0.505   5.898  10.927  0.2747  0.5358 -0.0930
   38DOPE  H17X 4897   0.605   5.941  10.906  0.2430  0.8161  0.3233
   38DOPE  H17Y 4898   0.462   5.961  11.007 -0.1036 -3.8501  3.6019
   38DOPE  C318 4899   0.517   5.761  11.000  0.2273 -0.0460 -0.1929
   38DOPE  H18X 4900   0.421   5.705  10.995 -0.5332  0.9126  2.2354
   38DOPE  H18Y 4901   0.590   5.698  10.945 -0.2069 -0.2942 -0.4978
   38DOPE  H18Z 4902   0.547   5.780  11.105  1.1271 -1.6241 -0.1465
   39DOPE     N 4903   5.080   4.855   9.175  0.2776 -0.0644  0.3597
   39DOPE   HN1 4904   5.105   4.946   9.219 -1.4111  1.0399 -0.8387
   39DOPE   HN2 4905   4.993   4.825   9.223 -0.0962  1.9958  1.1074
   39DOPE   HN3 4906   5.152   4.781   9.185  2.7229  1.8824 -1.6603
   39DOPE   C12 4907   5.034   4.867   9.037 -0.0336  0.6515  0.7888
   39DOPE  H12A 4908   5.019   4.769   8.987  0.1200  0.8966  0.2520
   39DOPE  H12B 4909   5.115   4.913   8.977 -0.5479  1.0284  0.3684
   39DOPE   C11 4910   4.907   4.955   9.031 -0.0470  0.3194  0.4584
   39DOPE  H11A 4911   4.895   4.981   8.924 -0.0678 -0.3940  0.2854
   39DOPE  H11B 4912   4.936   5.046   9.089 -1.1794  0.3737  0.9656
   39DOPE     P 4913   4.662   4.982   9.074  0.5190  0.2222 -0.0131
   39DOPE   O13 4914   4.542   4.896   9.092  0.5012 -0.3182  0.8469
   39DOPE   O14 4915   4.666   5.061   8.947 -0.2730  0.1833  0.1393
   39DOPE   O11 4916   4.669   5.067   9.204 -0.7242  0.0214 -0.0925
   39DOPE   O12 4917   4.791   4.892   9.085  0.5791 -0.5693 -0.3020
   39DOPE    C1 4918   4.726   5.020   9.328 -0.2860  0.1141  0.3793
   39DOPE    HA 4919   4.808   5.088   9.357  0.6154 -1.1947  1.0144
   39DOPE    HB 4920   4.771   4.919   9.321 -0.0952  0.2637 -0.7341
   39DOPE    C2 4921   4.626   5.024   9.448  0.2699 -0.4328  0.5371
   39DOPE    HS 4922   4.545   4.948   9.440 -0.6681  0.5525  0.4083
   39DOPE   O21 4923   4.567   5.156   9.448  0.2715 -0.4465  0.4804
   39DOPE   C21 4924   4.444   5.164   9.474  0.1610  0.1502 -0.0904
   39DOPE   O22 4925   4.384   5.079   9.536 -0.5320  0.3628 -0.0447
   39DOPE   C22 4926   4.390   5.298   9.428 -0.2986 -0.3853 -1.4216
   39DOPE   H2R 4927   4.376   5.294   9.318  1.2016 -1.3837 -1.6033
   39DOPE   H2S 4928   4.470   5.367   9.459 -3.5111  2.6533  0.9108
   39DOPE    C3 4929   4.709   4.985   9.572 -0.0381 -0.1231 -0.8727
   39DOPE    HX 4930   4.802   5.045   9.581  0.8300 -1.3284 -1.5488
   39DOPE    HY 4931   4.738   4.880   9.551 -2.6109 -1.6397  2.3238
   39DOPE   O31 4932   4.637   4.995   9.699  0.0208  0.1892  0.6792
   39DOPE   C31 4933   4.599   4.889   9.759 -0.4339 -0.0292 -0.8115
   39DOPE   O32 4934   4.570   4.782   9.706  0.3062 -0.1191 -0.4464
   39DOPE   C32 4935   4.601   4.912   9.910 -0.3151  0.7605  0.2612
   39DOPE   H2X 4936   4.664   4.999   9.937  2.2901 -0.5528 -1.2236
   39DOPE   H2Y 4937   4.501   4.952   9.937 -0.2192  1.4403 -0.3534
   39DOPE   C23 4938   4.256   5.326   9.496 -0.6341 -0.1128  0.1627
   39DOPE   H3R 4939   4.189   5.238   9.484  0.3552 -0.7528 -0.9255
   39DOPE   H3S 4940   4.190   5.398   9.444 -0.6686 -0.7682 -0.7166
   39DOPE   C24 4941   4.266   5.373   9.644 -0.8751 -0.8795 -0.0017
   39DOPE   H4R 4942   4.329   5.465   9.650  0.7954 -2.0757  1.7669
   39DOPE   H4S 4943   4.328   5.301   9.701  0.4676 -0.6751 -1.1536
   39DOPE   C25 4944   4.131   5.410   9.703 -0.7242  0.2256 -0.7088
   39DOPE   H5R 4945   4.082   5.312   9.720  1.6149 -0.8436  0.2566
   39DOPE   H5S 4946   4.075   5.474   9.631  0.1190  1.2569 -0.4804
   39DOPE   C26 4947   4.154   5.476   9.844 -0.1261  0.7647  0.4892
   39DOPE   H6R 4948   4.212   5.571   9.836 -1.7892  1.7878 -0.0369
   39DOPE   H6S 4949   4.219   5.420   9.914  1.9508 -0.2387 -2.0958
   39DOPE   C27 4950   4.017   5.499   9.906  1.0385 -0.4015  0.9618
   39DOPE   H7R 4951   3.976   5.402   9.942 -0.7081  1.2159  3.7490
   39DOPE   H7S 4952   3.950   5.533   9.825  0.6181  0.6018  1.7129
   39DOPE   C28 4953   4.018   5.598  10.023  0.2409  0.6690  0.0857
   39DOPE   H8R 4954   4.032   5.696   9.972 -0.9128  0.1215 -1.3845
   39DOPE   H8S 4955   4.110   5.583  10.082 -0.1512  0.7484  0.7272
   39DOPE   C29 4956   3.894   5.590  10.107  1.0378 -0.1076  0.1619
   39DOPE   H9R 4957   3.813   5.543  10.049  1.3342 -0.3863 -0.0299
   39DOPE  C210 4958   3.874   5.636  10.237 -0.2905  0.4513  0.6443
   39DOPE  H10R 4959   3.774   5.626  10.282 -0.5741  0.1970 -0.0219
   39DOPE  C211 4960   3.974   5.728  10.302 -0.6301 -0.1374 -0.1254
   39DOPE  H11R 4961   3.920   5.824  10.319 -3.5968 -1.7054 -0.0719
   39DOPE  H11S 4962   4.065   5.738  10.240 -0.1306  0.6549  0.7148
   39DOPE  C212 4963   4.012   5.684  10.452  0.0887 -0.2071  0.2916
   39DOPE  H12R 4964   4.087   5.751  10.497 -1.2361 -0.1973  2.6460
   39DOPE  H12S 4965   4.054   5.582  10.436 -0.7974 -0.7704  1.3930
   39DOPE  C213 4966   3.884   5.667  10.536  0.5181 -0.0315 -0.3547
   39DOPE  H13R 4967   3.836   5.575  10.496  1.2432 -0.1395 -0.9911
   39DOPE  H13S 4968   3.813   5.752  10.531  0.9652  0.4487  0.9411
   39DOPE  C214 4969   3.913   5.635  10.683  0.5341 -0.0533  0.7622
   39DOPE  H14R 4970   4.015   5.592  10.682 -0.4100 -2.4383  0.4326
   39DOPE  H14S 4971   3.824   5.578  10.718 -0.8056  1.2729 -0.3141
   39DOPE  C215 4972   3.921   5.761  10.771  0.3017 -0.5431 -0.6206
   39DOPE  H15R 4973   3.816   5.789  10.792  0.0216 -0.4034 -2.1077
   39DOPE  H15S 4974   3.967   5.849  10.721 -0.8184  0.6031  0.2899
   39DOPE  C216 4975   3.982   5.742  10.912 -0.5535  0.2857  0.5872
   39DOPE  H16R 4976   4.002   5.635  10.933  3.3155  1.0681  1.6255
   39DOPE  H16S 4977   3.920   5.780  10.996  0.7215  0.6885  1.3708
   39DOPE  C217 4978   4.124   5.810  10.925 -0.1237 -0.0471  0.0017
   39DOPE  H17R 4979   4.107   5.919  10.918 -0.7303 -0.1252  0.2005
   39DOPE  H17S 4980   4.190   5.784  10.839  1.0964  1.9327  0.2710
   39DOPE  C218 4981   4.201   5.779  11.059  0.3055 -0.6222  0.6324
   39DOPE  H18R 4982   4.155   5.828  11.148  1.1957 -0.1358  0.8374
   39DOPE  H18S 4983   4.305   5.815  11.045  0.4506 -0.6084  1.6158
   39DOPE  H18T 4984   4.207   5.670  11.081  0.5606 -0.7420 -0.0139
   39DOPE   C33 4985   4.628   4.779   9.984  0.1664 -0.1844  0.3527
   39DOPE   H3X 4986   4.720   4.731   9.944 -0.9849 -0.8002 -1.7222
   39DOPE   H3Y 4987   4.556   4.699   9.958  0.2631 -0.8898  2.1111
   39DOPE   C34 4988   4.644   4.785  10.134  0.0655  0.0013  0.4066
   39DOPE   H4X 4989   4.663   4.681  10.169  1.1153  0.3294  0.8514
   39DOPE   H4Y 4990   4.732   4.848  10.158 -0.8771  1.2347  0.7267
   39DOPE   C35 4991   4.522   4.839  10.207  0.3122 -0.1141 -0.2851
   39DOPE   H5X 4992   4.423   4.797  10.181 -0.5557  1.6670 -0.0162
   39DOPE   H5Y 4993   4.522   4.945  10.175 -0.0673 -0.4703 -1.5119
   39DOPE   C36 4994   4.543   4.842  10.361 -0.3974  0.3023  0.1255
   39DOPE   H6X 4995   4.612   4.927  10.383  0.3130  0.3170 -1.8851
   39DOPE   H6Y 4996   4.593   4.749  10.396 -0.2057  1.0327  1.8831
   39DOPE   C37 4997   4.420   4.885  10.436  0.7788 -0.2641  0.1781
   39DOPE   H7X 4998   4.373   4.968  10.380 -0.1951 -1.4802 -0.8431
   39DOPE   H7Y 4999   4.346   4.803  10.431 -1.8053  1.9016  0.6489
   39DOPE   C38 5000   4.439   4.922  10.584  0.4149  0.1555  0.6174
   39DOPE   H8X 5001   4.340   4.956  10.621 -1.4347 -0.0533 -3.5887
   39DOPE   H8Y 5002   4.509   5.008  10.587 -1.6449  1.8697  2.2603
   39DOPE   C39 5003   4.493   4.816  10.676 -0.4556  0.2626 -0.0297
   39DOPE   H9X 5004   4.541   4.731  10.625 -0.5895  0.4004 -0.3890
   39DOPE  C310 5005   4.486   4.824  10.812 -0.3021  0.1237  0.1634
   39DOPE  H10X 5006   4.517   4.739  10.874  0.5068 -0.4431 -0.9718
   39DOPE  C311 5007   4.418   4.948  10.867 -0.3218  0.2733  0.2338
   39DOPE  H11X 5008   4.419   5.038  10.802 -0.0746 -0.5990 -1.0115
   39DOPE  H11Y 5009   4.316   4.923  10.902 -0.3348  0.6065  0.4357
   39DOPE  C312 5010   4.498   4.990  10.987 -0.2716 -0.3164  0.5604
   39DOPE  H12X 5011   4.462   5.087  11.028  0.4307 -0.3399  1.2704
   39DOPE  H12Y 5012   4.602   5.013  10.957 -0.8733  2.1806  0.1174
   39DOPE  C313 5013   4.490   4.894  11.107 -0.3431 -0.8116  0.4181
   39DOPE  H13X 5014   4.387   4.901  11.148  0.7200 -0.7953  3.3544
   39DOPE  H13Y 5015   4.509   4.787  11.084  1.3543 -0.3409 -0.5840
   39DOPE  C314 5016   4.561   4.937  11.233 -0.8945  0.5444 -0.2382
   39DOPE  H14X 5017   4.532   5.041  11.257 -0.8585  0.7053 -0.8830
   39DOPE  H14Y 5018   4.671   4.928  11.217 -1.0431 -1.5956 -0.4169
   39DOPE  C315 5019   4.528   4.847  11.359 -0.3572 -0.3375  0.0774
   39DOPE  H15X 5020   4.419   4.837  11.375 -0.6544 -1.0911 -2.1346
   39DOPE  H15Y 5021   4.578   4.880  11.453  3.0083 -0.1339 -1.6248
   39DOPE  C316 5022   4.579   4.703  11.346  0.1072 -0.8892  0.4732
   39DOPE  H16X 5023   4.564   4.672  11.241  1.3186 -1.5577  0.4776
   39DOPE  H16Y 5024   4.515   4.640  11.411  1.0141 -0.1280  2.1659
   39DOPE  C317 5025   4.734   4.691  11.365  0.0556  0.2683  1.1325
   39DOPE  H17X 5026   4.760   4.587  11.336 -4.0743 -0.8956  1.0256
   39DOPE  H17Y 5027   4.787   4.763  11.299 -1.2691  0.8157  0.6405
   39DOPE  C318 5028   4.775   4.711  11.511 -0.1605  0.6629  0.2448
   39DOPE  H18X 5029   4.716   4.645  11.579 -2.7754  0.0924 -2.3640
   39DOPE  H18Y 5030   4.881   4.683  11.526 -0.8365 -2.3587  0.1020
   39DOPE  H18Z 5031   4.752   4.810  11.555  1.0726  0.9679  0.2253
   40DOPE     N 5032   0.670   6.442   8.979  0.6683 -0.2069 -0.4558
   40DOPE   HN1 5033   0.577   6.448   9.023  1.2145  0.8482  0.6078
   40DOPE   HN2 5034   0.725   6.360   9.015  1.6938  0.4895 -0.3839
   40DOPE   HN3 5035   0.718   6.533   8.996 -1.2744  1.0295 -1.3321
   40DOPE   C12 5036   0.654   6.413   8.825  0.3986  0.4296 -0.0363
   40DOPE  H12A 5037   0.596   6.319   8.815  1.5377 -0.5325  1.7552
   40DOPE  H12B 5038   0.759   6.404   8.790  1.3859  3.1655  1.8819
   40DOPE   C11 5039   0.577   6.533   8.770 -0.4816  0.0410  0.2838
   40DOPE  H11A 5040   0.557   6.518   8.662  1.3811 -0.6684  0.0118
   40DOPE  H11B 5041   0.629   6.631   8.767 -1.3708  0.6631  2.6400
   40DOPE     P 5042   0.320   6.500   8.787  0.4580  0.5997  0.2450
   40DOPE   O13 5043   0.328   6.521   8.639 -0.2171  0.1847  1.1689
   40DOPE   O14 5044   0.204   6.566   8.855 -0.4056  0.3911 -0.1713
   40DOPE   O11 5045   0.322   6.334   8.808 -0.6032 -1.0565 -0.0439
   40DOPE   O12 5046   0.457   6.553   8.841 -0.0975  0.7927  0.7668
   40DOPE    C1 5047   0.191   6.276   8.835 -1.2020  0.0614  0.5777
   40DOPE    HA 5048   0.183   6.179   8.781 -2.5843  0.3535  0.2091
   40DOPE    HB 5049   0.101   6.331   8.799 -0.6598 -0.6420 -2.0592
   40DOPE    C2 5050   0.192   6.242   8.986  0.0969  0.1014  0.4771
   40DOPE    HS 5051   0.213   6.335   9.042  1.4523  0.8665 -1.2066
   40DOPE   O21 5052   0.295   6.146   9.017 -0.2261 -0.1902 -0.2227
   40DOPE   C21 5053   0.408   6.187   9.070 -0.3768 -0.7471  0.4722
   40DOPE   O22 5054   0.445   6.303   9.080 -0.2546 -0.7394  0.0857
   40DOPE   C22 5055   0.492   6.071   9.118  0.1468 -0.1152  0.1529
   40DOPE   H2R 5056   0.572   6.030   9.053 -0.9828 -0.8284 -0.8264
   40DOPE   H2S 5057   0.433   5.980   9.141  0.9606 -0.7783 -0.2941
   40DOPE    C3 5058   0.058   6.185   9.034  0.2300  0.1909 -0.5562
   40DOPE    HX 5059   0.039   6.087   8.986  0.6384  0.6615 -1.7410
   40DOPE    HY 5060  -0.013   6.263   8.998  0.3755 -0.1469 -1.5979
   40DOPE   O31 5061   0.041   6.181   9.179 -0.2965 -0.2295  0.1993
   40DOPE   C31 5062   0.056   6.069   9.235 -0.3537 -0.5869 -1.2405
   40DOPE   O32 5063   0.062   5.963   9.179  0.0579  0.3501 -0.2653
   40DOPE   C32 5064   0.051   6.093   9.385 -0.3451  0.1056  0.0564
   40DOPE   H2X 5065   0.132   6.169   9.397  0.7881 -1.1997  0.9528
   40DOPE   H2Y 5066  -0.045   6.138   9.415 -0.4916 -0.4886  0.4934
   40DOPE   C23 5067   0.574   6.113   9.248  0.4869 -0.6046 -0.1847
   40DOPE   H3R 5068   0.651   6.189   9.222 -0.4655 -0.0900 -1.6170
   40DOPE   H3S 5069   0.627   6.018   9.269  1.3455  0.2169  1.5311
   40DOPE   C24 5070   0.492   6.150   9.377  0.0873 -0.2213 -0.4138
   40DOPE   H4R 5071   0.404   6.082   9.377 -0.6269  0.6470  1.0932
   40DOPE   H4S 5072   0.467   6.258   9.364 -1.3397 -0.6752 -1.8653
   40DOPE   C25 5073   0.573   6.156   9.510  0.7242  0.3887 -0.0991
   40DOPE   H5R 5074   0.624   6.252   9.529  0.7471  0.3384  0.1006
   40DOPE   H5S 5075   0.640   6.068   9.516  1.8262  1.1917 -0.4392
   40DOPE   C26 5076   0.482   6.128   9.636 -0.4949  0.7482  0.1709
   40DOPE   H6R 5077   0.416   6.040   9.616 -0.7175  0.3555  2.4359
   40DOPE   H6S 5078   0.421   6.215   9.666 -2.4091 -0.4886  0.0491
   40DOPE   C27 5079   0.561   6.073   9.761 -0.4982 -0.6365  0.3004
   40DOPE   H7R 5080   0.646   6.139   9.789 -1.2263 -0.0869  1.2625
   40DOPE   H7S 5081   0.600   5.971   9.739  1.6882  0.4140 -1.0614
   40DOPE   C28 5082   0.471   6.074   9.881  0.6901 -0.0001  0.5131
   40DOPE   H8R 5083   0.413   5.980   9.896  0.8498 -0.0720  0.6923
   40DOPE   H8S 5084   0.395   6.155   9.879 -0.0627 -0.7206 -0.5267
   40DOPE   C29 5085   0.554   6.111  10.004  0.7348 -0.8190 -0.1227
   40DOPE   H9R 5086   0.614   6.203  10.004 -1.4282  0.6935  0.7226
   40DOPE  C210 5087   0.557   6.040  10.119 -0.3354  0.7659  0.0045
   40DOPE  H10R 5088   0.626   6.076  10.196  0.2067 -0.9150  0.3347
   40DOPE  C211 5089   0.483   5.912  10.167  0.4793  0.3896  0.2529
   40DOPE  H11R 5090   0.491   5.817  10.111  1.4616  1.2288 -1.0840
   40DOPE  H11S 5091   0.376   5.939  10.180  0.1546 -0.8146  0.1654
   40DOPE  C212 5092   0.549   5.859  10.293  0.2439 -0.5461 -0.2558
   40DOPE  H12R 5093   0.521   5.928  10.375  0.9848 -0.5837  0.0372
   40DOPE  H12S 5094   0.658   5.848  10.279  0.3341 -0.1438  0.1009
   40DOPE  C213 5095   0.501   5.718  10.346 -0.3372  0.0605 -0.4112
   40DOPE  H13R 5096   0.510   5.635  10.272  1.1469  1.0595 -1.4040
   40DOPE  H13S 5097   0.394   5.727  10.374 -0.4205  0.5197 -0.8539
   40DOPE  C214 5098   0.574   5.668  10.476 -1.3081 -0.2521 -0.1644
   40DOPE  H14R 5099   0.598   5.749  10.548  0.9351 -2.3591  1.6286
   40DOPE  H14S 5100   0.677   5.642  10.445 -1.5051 -3.4234  1.3722
   40DOPE  C215 5101   0.521   5.544  10.539  0.8288 -0.4534  0.0103
   40DOPE  H15R 5102   0.511   5.460  10.467 -1.4609 -0.6283  0.4538
   40DOPE  H15S 5103   0.421   5.561  10.585  0.4138 -1.5815 -0.4482
   40DOPE  C216 5104   0.623   5.500  10.648 -0.5931 -0.4635  0.3971
   40DOPE  H16R 5105   0.656   5.595  10.695  2.9418 -1.6796  0.6736
   40DOPE  H16S 5106   0.716   5.465  10.599  0.0791 -0.4349  1.6147
   40DOPE  C217 5107   0.586   5.399  10.755  0.7671 -0.0877 -0.9508
   40DOPE  H17R 5108   0.544   5.312  10.700 -2.8993  1.0520 -0.2240
   40DOPE  H17S 5109   0.504   5.435  10.820  2.0404 -0.2749  0.8482
   40DOPE  C218 5110   0.690   5.363  10.863 -0.7798 -0.1577  0.1246
   40DOPE  H18R 5111   0.701   5.445  10.937  1.7514 -0.0190 -0.3102
   40DOPE  H18S 5112   0.791   5.357  10.818 -0.7985  0.5580 -0.0227
   40DOPE  H18T 5113   0.652   5.279  10.924 -2.2383  0.1457 -0.3237
   40DOPE   C33 5114   0.068   5.973   9.484  0.2030 -0.4200 -0.3550
   40DOPE   H3X 5115   0.167   5.927   9.463  0.2998 -0.4406  0.1439
   40DOPE   H3Y 5116  -0.011   5.899   9.459  1.1466 -1.5310 -0.1531
   40DOPE   C34 5117   0.054   6.034   9.622 -0.4076 -0.3297 -0.3626
   40DOPE   H4X 5118   0.093   6.138   9.624  3.7022 -1.6121 -2.8489
   40DOPE   H4Y 5119  -0.056   6.027   9.641 -0.0912 -1.1633  1.4058
   40DOPE   C35 5120   0.113   5.947   9.732  0.1305 -0.0741  0.3243
   40DOPE   H5X 5121   0.217   5.917   9.705 -0.2116 -1.1236  0.1330
   40DOPE   H5Y 5122   0.053   5.854   9.738  2.1372 -1.4474  0.1610
   40DOPE   C36 5123   0.111   6.009   9.868 -0.0696 -1.2808  0.0196
   40DOPE   H6X 5124   0.160   6.108   9.877 -1.8225 -0.4180  0.6723
   40DOPE   H6Y 5125   0.165   5.947   9.942  0.4015  0.1901  0.9515
   40DOPE   C37 5126  -0.039   6.034   9.922 -1.3971 -0.2615  0.3102
   40DOPE   H7X 5127  -0.086   6.113   9.859 -1.6755  1.1823  2.2229
   40DOPE   H7Y 5128  -0.091   5.937   9.911  1.4029 -1.6666 -2.1722
   40DOPE   C38 5129  -0.038   6.072  10.066  0.0296  0.0970 -0.1749
   40DOPE   H8X 5130   0.033   6.007  10.121  0.7945  0.6794 -0.4551
   40DOPE   H8Y 5131  -0.135   6.052  10.117  0.9796 -0.8456  1.3339
   40DOPE   C39 5132   0.001   6.209  10.097  0.1679 -1.1013 -0.2385
   40DOPE   H9X 5133  -0.050   6.278  10.027 -0.9606  0.0668  1.6655
   40DOPE  C310 5134   0.086   6.259  10.188 -0.7929 -0.3676  0.1431
   40DOPE  H10X 5135   0.114   6.365  10.199 -2.4740 -0.0607  1.9948
   40DOPE  C311 5136   0.172   6.183  10.289 -0.1020 -0.1930  0.6766
   40DOPE  H11X 5137   0.189   6.077  10.259  0.2161 -0.7078  2.4973
   40DOPE  H11Y 5138   0.274   6.226  10.298  0.2028 -0.9058  0.7537
   40DOPE  C312 5139   0.111   6.197  10.435 -0.3071  0.7035  0.2560
   40DOPE  H12X 5140   0.175   6.131  10.497  0.5806  1.2364 -0.0716
   40DOPE  H12Y 5141   0.007   6.160  10.449  0.1832 -0.5137  0.7896
   40DOPE  C313 5142   0.116   6.340  10.494  0.0663 -0.1777 -0.1137
   40DOPE  H13X 5143   0.219   6.380  10.506  0.2663 -0.9174  0.7846
   40DOPE  H13Y 5144   0.065   6.400  10.416  3.2269  1.3022 -1.1821
   40DOPE  C314 5145   0.025   6.359  10.625 -0.8116  0.4723 -0.3638
   40DOPE  H14X 5146  -0.083   6.338  10.607 -0.6102 -0.2692 -0.7452
   40DOPE  H14Y 5147   0.037   6.462  10.665  0.0606  0.2890 -0.1388
   40DOPE  C315 5148   0.080   6.275  10.745  0.0969  0.4130 -0.2510
   40DOPE  H15X 5149   0.190   6.279  10.756  0.3618 -4.3012  0.7386
   40DOPE  H15Y 5150   0.059   6.169  10.721 -1.6972  0.3768  1.2956
   40DOPE  C316 5151   0.012   6.322  10.879  0.2128  0.1680 -0.5675
   40DOPE  H16X 5152  -0.098   6.310  10.866  0.2753 -1.9268  0.3320
   40DOPE  H16Y 5153   0.022   6.430  10.900 -0.7733  0.1054  0.3178
   40DOPE  C317 5154   0.062   6.248  11.005  0.3625 -0.0272 -0.2332
   40DOPE  H17X 5155   0.171   6.258  11.021  0.3048  1.2421 -0.5647
   40DOPE  H17Y 5156   0.005   6.296  11.087  2.3221  1.5711  0.2550
   40DOPE  C318 5157   0.042   6.094  11.001 -0.8193 -0.0613 -0.0977
   40DOPE  H18X 5158   0.115   6.059  10.925  1.4852 -0.8464  2.3484
   40DOPE  H18Y 5159   0.074   6.039  11.092 -0.9081 -1.4383 -0.8778
   40DOPE  H18Z 5160  -0.059   6.060  10.967 -1.4463 -0.0020  1.6014
   41DOPE     N 5161   4.372   5.630   8.747  0.0303 -0.2348 -0.4622
   41DOPE   HN1 5162   4.457   5.685   8.771 -0.9753 -0.3163  4.3196
   41DOPE   HN2 5163   4.392   5.534   8.713 -0.8563 -0.9057  0.8103
   41DOPE   HN3 5164   4.322   5.688   8.677  1.3415  0.2532 -1.0291
   41DOPE   C12 5165   4.293   5.634   8.872  0.0746 -0.3468 -0.5296
   41DOPE  H12A 5166   4.358   5.624   8.961 -1.0049  0.7418  0.4265
   41DOPE  H12B 5167   4.223   5.548   8.865 -2.7179  1.8156 -1.0626
   41DOPE   C11 5168   4.204   5.753   8.896  0.2000 -0.5023  0.2577
   41DOPE  H11A 5169   4.138   5.729   8.982  2.1745 -2.3697  1.3361
   41DOPE  H11B 5170   4.143   5.765   8.804  2.1560  2.1610 -0.8292
   41DOPE     P 5171   4.336   5.927   9.042 -0.1647 -0.2084  0.0280
   41DOPE   O13 5172   4.348   6.074   9.028 -0.1526 -0.2555  0.0337
   41DOPE   O14 5173   4.456   5.853   9.081 -0.5258 -0.4534  0.0432
   41DOPE   O11 5174   4.220   5.893   9.141 -0.1392 -0.1388 -0.1267
   41DOPE   O12 5175   4.277   5.878   8.901 -0.1105  0.3267  0.4873
   41DOPE    C1 5176   4.153   6.002   9.212  0.6348  0.2830 -0.1763
   41DOPE    HA 5177   4.066   5.947   9.255  0.6724 -0.4995 -1.0599
   41DOPE    HB 5178   4.116   6.084   9.147  0.3402  0.0649 -0.2871
   41DOPE    C2 5179   4.234   6.053   9.337 -0.0887 -0.7459  0.2375
   41DOPE    HS 5180   4.330   6.093   9.299  0.1533 -0.7731  0.8126
   41DOPE   O21 5181   4.247   5.942   9.429 -0.2272  1.0096  0.0125
   41DOPE   C21 5182   4.352   5.946   9.502 -0.1429  0.5908 -0.9184
   41DOPE   O22 5183   4.443   6.028   9.499 -0.0304  0.4327 -0.5618
   41DOPE   C22 5184   4.347   5.828   9.600 -0.5287  0.0605  0.5757
   41DOPE   H2R 5185   4.349   5.741   9.531 -0.8053  1.2761 -1.0107
   41DOPE   H2S 5186   4.254   5.828   9.660 -0.4065  1.0021  0.7814
   41DOPE    C3 5187   4.166   6.178   9.406 -0.3651  0.6843 -0.0032
   41DOPE    HX 5188   4.069   6.150   9.453  0.5331 -1.2011  0.8456
   41DOPE    HY 5189   4.148   6.255   9.329 -0.6631 -0.0043 -0.6328
   41DOPE   O31 5190   4.256   6.235   9.502  0.0742  0.2877  0.2609
   41DOPE   C31 5191   4.214   6.293   9.612  0.2412 -0.0641  0.1201
   41DOPE   O32 5192   4.096   6.296   9.649  0.3519  0.1876  0.0918
   41DOPE   C32 5193   4.338   6.348   9.688  0.2793 -0.0254 -0.3930
   41DOPE   H2X 5194   4.426   6.296   9.646 -0.3608 -0.7716 -0.8426
   41DOPE   H2Y 5195   4.355   6.456   9.668 -0.7337  0.3263  0.5005
   41DOPE   C23 5196   4.471   5.846   9.696 -0.1071 -0.2598 -0.5747
   41DOPE   H3R 5197   4.473   5.946   9.743  0.4238 -0.6511  0.2492
   41DOPE   H3S 5198   4.566   5.840   9.637 -0.3214  1.3176 -1.1194
   41DOPE   C24 5199   4.475   5.742   9.809 -0.1331  0.8526  0.6569
   41DOPE   H4R 5200   4.578   5.731   9.848  0.2610  0.4951 -0.4639
   41DOPE   H4S 5201   4.442   5.642   9.775  1.5115  1.1800 -2.1989
   41DOPE   C25 5202   4.404   5.794   9.933  0.6991  0.1186 -0.0446
   41DOPE   H5R 5203   4.296   5.807   9.909  0.4696 -1.2981  0.1439
   41DOPE   H5S 5204   4.444   5.892   9.967 -0.1701  0.0130  1.3851
   41DOPE   C26 5205   4.401   5.691  10.048 -0.3192 -0.4119 -0.4925
   41DOPE   H6R 5206   4.503   5.649  10.062 -0.6466 -1.4022 -0.9877
   41DOPE   H6S 5207   4.335   5.611  10.007  0.8902 -0.3358 -2.7046
   41DOPE   C27 5208   4.353   5.745  10.185  0.5222 -0.1368  0.1971
   41DOPE   H7R 5209   4.253   5.788  10.162  1.4822  0.4206 -3.6155
   41DOPE   H7S 5210   4.421   5.827  10.218 -1.0904  1.2951  0.0697
   41DOPE   C28 5211   4.346   5.633  10.294 -0.1879  0.6878 -0.5351
   41DOPE   H8R 5212   4.311   5.540  10.245 -3.0676 -0.6023  3.4865
   41DOPE   H8S 5213   4.262   5.664  10.360 -0.4322  0.7160 -0.8563
   41DOPE   C29 5214   4.470   5.594  10.376  0.0893  0.5323  0.0135
   41DOPE   H9R 5215   4.539   5.532  10.318 -0.1376 -0.3767  0.6945
   41DOPE  C210 5216   4.483   5.618  10.508  0.0329  0.7183  0.8745
   41DOPE  H10R 5217   4.579   5.587  10.553  0.9755 -0.6757 -1.8423
   41DOPE  C211 5218   4.402   5.714  10.596  0.4262 -0.0564  0.5244
   41DOPE  H11R 5219   4.315   5.660  10.640 -1.1155  1.0336 -1.0506
   41DOPE  H11S 5220   4.343   5.790  10.539 -0.9131  0.1416  2.0774
   41DOPE  C212 5221   4.478   5.791  10.708 -0.2237 -0.5608  0.1162
   41DOPE  H12R 5222   4.419   5.882  10.733  1.0679  0.0539  1.0087
   41DOPE  H12S 5223   4.572   5.826  10.660 -0.1562 -2.2919 -1.0839
   41DOPE  C213 5224   4.512   5.706  10.830  0.8724  0.2169  0.8529
   41DOPE  H13R 5225   4.560   5.610  10.805 -0.9822 -0.7874  0.9641
   41DOPE  H13S 5226   4.419   5.684  10.887 -0.1461  2.9857  0.4199
   41DOPE  C214 5227   4.604   5.784  10.924  0.4919  0.1738  0.0558
   41DOPE  H14R 5228   4.561   5.878  10.968 -1.7478 -0.4758 -0.5892
   41DOPE  H14S 5229   4.678   5.817  10.849  0.8318 -1.0087 -0.1423
   41DOPE  C215 5230   4.678   5.692  11.024  0.2252  0.7233  0.7328
   41DOPE  H15R 5231   4.733   5.617  10.963  2.0592  1.4247  1.4369
   41DOPE  H15S 5232   4.600   5.643  11.086 -0.1254  1.8164  1.1639
   41DOPE  C216 5233   4.780   5.739  11.125  0.1759 -0.2434 -0.1820
   41DOPE  H16R 5234   4.857   5.805  11.080 -0.1662 -0.4873 -1.1598
   41DOPE  H16S 5235   4.842   5.659  11.171 -0.3264  0.1715  1.2516
   41DOPE  C217 5236   4.711   5.814  11.240 -0.2023 -0.6684 -0.2834
   41DOPE  H17R 5237   4.648   5.741  11.296 -1.1317 -1.0915 -1.8072
   41DOPE  H17S 5238   4.639   5.888  11.198  0.8680  0.7440  0.2895
   41DOPE  C218 5239   4.795   5.882  11.354 -0.9282  0.3684  0.9763
   41DOPE  H18R 5240   4.865   5.808  11.398 -1.9594 -1.0608  0.2760
   41DOPE  H18S 5241   4.733   5.936  11.429 -0.2936  1.0109  1.0378
   41DOPE  H18T 5242   4.855   5.963  11.307  0.2686  0.2789  2.2942
   41DOPE   C33 5243   4.330   6.333   9.845  0.0594  0.4739  0.1769
   41DOPE   H3X 5244   4.296   6.232   9.878  2.2443 -0.1838  0.5682
   41DOPE   H3Y 5245   4.260   6.413   9.880  0.0135  0.3050  0.4743
   41DOPE   C34 5246   4.461   6.364   9.919  0.4455  0.2279  0.3912
   41DOPE   H4X 5247   4.522   6.271   9.921  0.1363  0.0319  1.2163
   41DOPE   H4Y 5248   4.526   6.439   9.868  0.2256  0.6967  0.7875
   41DOPE   C35 5249   4.438   6.412  10.065  1.5433  0.0259  0.3058
   41DOPE   H5X 5250   4.525   6.378  10.125  1.3596 -3.7190 -1.2618
   41DOPE   H5Y 5251   4.353   6.356  10.111 -0.5419  2.2374 -0.6535
   41DOPE   C36 5252   4.410   6.566  10.069  0.5488  0.4380 -0.0692
   41DOPE   H6X 5253   4.332   6.597   9.996  0.4585  0.7939  0.1775
   41DOPE   H6Y 5254   4.497   6.630  10.044  0.1811  1.2594  0.6857
   41DOPE   C37 5255   4.348   6.600  10.211  0.5475 -0.0845  0.4445
   41DOPE   H7X 5256   4.305   6.700  10.191  0.8595 -0.2935 -1.4272
   41DOPE   H7Y 5257   4.259   6.543  10.243  1.7426 -0.6628  3.0387
   41DOPE   C38 5258   4.449   6.594  10.330  0.0417 -0.1025  0.8091
   41DOPE   H8X 5259   4.532   6.656  10.290 -2.3250  1.7576 -1.5545
   41DOPE   H8Y 5260   4.498   6.496  10.348  0.5126 -0.1970 -0.8263
   41DOPE   C39 5261   4.383   6.650  10.449 -0.2513  0.6202  0.7127
   41DOPE   H9X 5262   4.284   6.696  10.434 -0.4226  0.2190  0.5926
   41DOPE  C310 5263   4.442   6.669  10.567 -0.3143  0.0333  0.8627
   41DOPE  H10X 5264   4.381   6.711  10.648 -1.3883  0.3221 -0.0531
   41DOPE  C311 5265   4.587   6.645  10.594 -0.7674  0.3097 -0.6769
   41DOPE  H11X 5266   4.628   6.571  10.523  0.5111 -0.3329  0.6691
   41DOPE  H11Y 5267   4.652   6.734  10.578  0.1574  0.1522  1.7445
   41DOPE  C312 5268   4.629   6.583  10.738  0.8337 -0.4133  0.7369
   41DOPE  H12X 5269   4.731   6.544  10.717  0.2840 -0.8061 -1.5013
   41DOPE  H12Y 5270   4.569   6.495  10.770  1.3876  0.0201  3.1592
   41DOPE  C313 5271   4.646   6.682  10.847 -0.9392  0.3769  0.0901
   41DOPE  H13X 5272   4.690   6.772  10.800 -0.9500  0.9308  1.1195
   41DOPE  H13Y 5273   4.541   6.701  10.876 -0.9998  1.2190 -0.6324
   41DOPE  C314 5274   4.740   6.639  10.962  0.0023  0.9043  0.0673
   41DOPE  H14X 5275   4.835   6.611  10.912 -0.8710  0.4986 -1.4323
   41DOPE  H14Y 5276   4.693   6.551  11.011 -0.9258  1.1184 -0.4146
   41DOPE  C315 5277   4.763   6.749  11.063 -0.2774 -0.6221 -0.0004
   41DOPE  H15X 5278   4.666   6.774  11.112  1.3402 -0.3760  3.3817
   41DOPE  H15Y 5279   4.788   6.832  10.993 -2.2336 -1.5108 -1.8255
   41DOPE  C316 5280   4.869   6.729  11.161  0.7059 -0.9252 -0.6535
   41DOPE  H16X 5281   4.960   6.737  11.098  0.2946 -0.9876 -1.2662
   41DOPE  H16Y 5282   4.865   6.628  11.209  1.9893 -1.1640 -0.9945
   41DOPE  C317 5283   4.876   6.833  11.276  0.0446  0.7818 -0.7785
   41DOPE  H17X 5284   4.966   6.816  11.338 -2.3745 -1.7499  2.4003
   41DOPE  H17Y 5285   4.878   6.938  11.239  1.4737  0.7504 -0.8321
   41DOPE  C318 5286   4.761   6.819  11.375  0.1014  0.2501  0.7118
   41DOPE  H18X 5287   4.673   6.841  11.311  0.2344 -2.4235 -0.5273
   41DOPE  H18Y 5288   4.756   6.718  11.420  1.0724 -0.2352 -0.2082
   41DOPE  H18Z 5289   4.772   6.891  11.459  0.9025 -0.2595  1.0564
   42DOPE     N 5290   4.695   6.148   9.456  0.3078  0.1626  0.0815
   42DOPE   HN1 5291   4.619   6.079   9.473  0.4740 -0.0719 -0.1466
   42DOPE   HN2 5292   4.643   6.238   9.445 -1.2744 -0.7672 -0.2748
   42DOPE   HN3 5293   4.743   6.140   9.364 -1.4585  3.4483 -1.2951
   42DOPE   C12 5294   4.798   6.151   9.567  0.7219 -0.2807  0.2787
   42DOPE  H12A 5295   4.758   6.172   9.668 -0.4136 -0.3976 -0.1409
   42DOPE  H12B 5296   4.869   6.233   9.543 -1.0828  1.8186  1.7011
   42DOPE   C11 5297   4.871   6.013   9.584 -0.5697 -0.3519  0.4794
   42DOPE  H11A 5298   4.815   5.929   9.631  0.5940 -1.9732 -0.8845
   42DOPE  H11B 5299   4.953   6.028   9.657 -1.2382 -1.3332  1.4725
   42DOPE     P 5300   4.890   5.832   9.394 -0.1447  0.2204 -0.0766
   42DOPE   O13 5301   4.959   5.815   9.265 -0.4704 -0.2335 -0.7562
   42DOPE   O14 5302   4.740   5.811   9.396 -0.3795  1.2721  0.1823
   42DOPE   O11 5303   4.959   5.725   9.486 -0.5072 -0.6099  0.0480
   42DOPE   O12 5304   4.936   5.974   9.462  0.2785 -0.5041  0.0663
   42DOPE    C1 5305   4.943   5.588   9.477 -0.1777 -0.0419 -0.0662
   42DOPE    HA 5306   5.040   5.537   9.462  0.0136  0.2510  0.1662
   42DOPE    HB 5307   4.892   5.555   9.385 -1.3860  0.8291  0.2656
   42DOPE    C2 5308   4.877   5.530   9.600  0.3046  0.3728 -0.1220
   42DOPE    HS 5309   4.799   5.605   9.626  0.7468  0.3136  1.4605
   42DOPE   O21 5310   4.977   5.498   9.695  0.7478 -0.1025  0.2770
   42DOPE   C21 5311   4.934   5.530   9.817  0.1877  0.4458 -0.0672
   42DOPE   O22 5312   4.832   5.594   9.845 -0.2944  0.0860  0.3125
   42DOPE   C22 5313   5.044   5.480   9.914  0.8797  0.7947 -0.3491
   42DOPE   H2R 5314   5.137   5.532   9.881  0.6000  0.6492 -1.4127
   42DOPE   H2S 5315   5.066   5.374   9.891  0.4180  0.7611 -0.6394
   42DOPE    C3 5316   4.811   5.396   9.571 -0.0889 -0.3616  0.0956
   42DOPE    HX 5317   4.885   5.331   9.519  1.6518 -0.5992  2.6633
   42DOPE    HY 5318   4.742   5.420   9.487  0.0998  2.6205  0.6767
   42DOPE   O31 5319   4.756   5.319   9.678 -0.3252 -0.6004  0.5552
   42DOPE   C31 5320   4.643   5.371   9.718 -0.9334  0.2219 -0.4978
   42DOPE   O32 5321   4.584   5.470   9.676  0.3709 -0.3429 -0.1153
   42DOPE   C32 5322   4.591   5.265   9.827 -1.2855 -0.5218  0.8955
   42DOPE   H2X 5323   4.538   5.183   9.774 -1.9850  0.0088  0.7498
   42DOPE   H2Y 5324   4.683   5.219   9.867  0.5962 -0.2772 -2.7476
   42DOPE   C23 5325   5.015   5.507  10.071 -0.1327  0.9264  0.5460
   42DOPE   H3R 5326   4.907   5.492  10.090 -0.2145  1.0975  0.2205
   42DOPE   H3S 5327   5.031   5.617  10.073 -0.7557  1.0399 -0.3000
   42DOPE   C24 5328   5.115   5.421  10.153  0.7786 -0.3342  0.5140
   42DOPE   H4R 5329   5.211   5.470  10.124 -0.0932  1.7207  0.9304
   42DOPE   H4S 5330   5.098   5.321  10.110  0.1509  0.3890 -0.9668
   42DOPE   C25 5331   5.066   5.430  10.303  0.2444 -0.4094  0.0931
   42DOPE   H5R 5332   5.027   5.333  10.343 -0.4121 -1.1665 -2.2406
   42DOPE   H5S 5333   4.974   5.491  10.316  0.3133  0.4375 -2.8563
   42DOPE   C26 5334   5.177   5.471  10.400  0.2824  0.0008 -0.0226
   42DOPE   H6R 5335   5.212   5.571  10.368 -0.6293  1.1640  2.4275
   42DOPE   H6S 5336   5.259   5.397  10.390 -1.2254 -1.8260  0.5659
   42DOPE   C27 5337   5.136   5.476  10.553  0.3090 -0.2791  0.1164
   42DOPE   H7R 5338   5.213   5.448  10.629 -0.7664 -2.0026  0.6380
   42DOPE   H7S 5339   5.069   5.389  10.573 -0.2370  0.2457  0.6215
   42DOPE   C28 5340   5.082   5.618  10.590 -0.1667  0.4895 -1.0170
   42DOPE   H8R 5341   5.019   5.647  10.503 -3.7992 -1.7259  0.5943
   42DOPE   H8S 5342   5.170   5.682  10.610 -1.3554  1.7948  0.2088
   42DOPE   C29 5343   4.992   5.641  10.709 -0.5750  0.4848  0.1478
   42DOPE   H9R 5344   4.890   5.672  10.681 -0.4083 -0.3736 -1.5811
   42DOPE  C210 5345   5.034   5.647  10.833 -0.4790  1.0336  0.1251
   42DOPE  H10R 5346   4.966   5.682  10.912 -0.6294  0.6921  0.1477
   42DOPE  C211 5347   5.178   5.626  10.880  0.6677 -0.7533  0.1900
   42DOPE  H11R 5348   5.208   5.730  10.906  0.5983 -0.0018 -2.3789
   42DOPE  H11S 5349   5.245   5.595  10.797 -1.1169 -0.3000 -1.5101
   42DOPE  C212 5350   5.200   5.533  11.000  0.4359 -0.2211  0.4486
   42DOPE  H12R 5351   5.310   5.516  11.006  0.0280 -3.5011  0.5399
   42DOPE  H12S 5352   5.162   5.431  10.979  1.9138 -1.3586  2.8374
   42DOPE  C213 5353   5.153   5.597  11.133 -0.3690  0.7694  0.4136
   42DOPE  H13R 5354   5.052   5.643  11.129  0.8012  3.4402 -1.4010
   42DOPE  H13S 5355   5.215   5.690  11.135  2.3553 -0.9049 -0.7899
   42DOPE  C214 5356   5.181   5.498  11.245  0.2515  0.4291  0.5852
   42DOPE  H14R 5357   5.288   5.467  11.241  0.0595 -0.1911  0.1342
   42DOPE  H14S 5358   5.112   5.414  11.225 -0.4534  1.3796 -1.2695
   42DOPE  C215 5359   5.163   5.556  11.388 -0.0825  0.2069 -0.1522
   42DOPE  H15R 5360   5.058   5.587  11.408  0.1651  0.1168  1.4344
   42DOPE  H15S 5361   5.220   5.652  11.390 -1.3563  0.9997 -0.5415
   42DOPE  C216 5362   5.206   5.448  11.479  0.2378  0.0124 -0.5960
   42DOPE  H16R 5363   5.316   5.434  11.471  0.2806 -2.1467  2.4616
   42DOPE  H16S 5364   5.153   5.352  11.464 -1.6598  0.3180  3.1709
   42DOPE  C217 5365   5.168   5.477  11.623  0.0367 -0.4979  0.0884
   42DOPE  H17R 5366   5.057   5.473  11.633 -0.0721  0.0085 -0.7925
   42DOPE  H17S 5367   5.190   5.581  11.654 -1.3864 -0.5064  1.2059
   42DOPE  C218 5368   5.229   5.382  11.726  0.1902  0.4977  0.5853
   42DOPE  H18R 5369   5.193   5.277  11.715 -0.8064  0.9772 -0.9247
   42DOPE  H18S 5370   5.206   5.423  11.827  0.6566  1.3975  0.3373
   42DOPE  H18T 5371   5.339   5.381  11.708  0.0079 -0.7587 -0.6505
   42DOPE   C33 5372   4.490   5.326   9.932  0.1368 -0.2151 -0.0718
   42DOPE   H3X 5373   4.405   5.255   9.943  0.9214 -1.0154  1.1532
   42DOPE   H3Y 5374   4.452   5.426   9.903 -0.3943  0.5262  2.8448
   42DOPE   C34 5375   4.558   5.355  10.073 -0.5605 -0.1938  0.2713
   42DOPE   H4X 5376   4.644   5.425  10.058  0.6027 -1.0583  2.5225
   42DOPE   H4Y 5377   4.476   5.407  10.128 -1.8486 -2.7257  0.8766
   42DOPE   C35 5378   4.607   5.234  10.153 -0.7020 -0.4354  0.7881
   42DOPE   H5X 5379   4.699   5.191  10.107 -0.1808  1.5458 -0.1444
   42DOPE   H5Y 5380   4.528   5.157  10.142  1.1022 -2.1487 -0.8644
   42DOPE   C36 5381   4.613   5.262  10.311 -0.2354 -0.2849  0.0582
   42DOPE   H6X 5382   4.620   5.161  10.357  0.3245 -1.6816 -2.8239
   42DOPE   H6Y 5383   4.521   5.316  10.343  2.0012  3.0051  1.4997
   42DOPE   C37 5384   4.737   5.340  10.355  0.1558  0.0267 -0.0104
   42DOPE   H7X 5385   4.828   5.299  10.305  1.1223  3.3898 -1.2589
   42DOPE   H7Y 5386   4.723   5.441  10.310  0.0142  0.6647  1.4080
   42DOPE   C38 5387   4.765   5.351  10.506 -0.2995 -0.6942 -0.2550
   42DOPE   H8X 5388   4.677   5.407  10.544  0.4678  0.3000  0.0850
   42DOPE   H8Y 5389   4.861   5.404  10.523 -0.2848 -0.7505 -0.1573
   42DOPE   C39 5390   4.774   5.219  10.584  0.7250 -0.1209  0.4971
   42DOPE   H9X 5391   4.815   5.139  10.521  0.6048  0.4553 -0.3333
   42DOPE  C310 5392   4.733   5.198  10.709  0.4320  0.6238  0.6024
   42DOPE  H10X 5393   4.750   5.099  10.754  1.2267  0.5521  0.1562
   42DOPE  C311 5394   4.679   5.296  10.812 -0.6111 -0.3051 -0.3494
   42DOPE  H11X 5395   4.649   5.384  10.752  0.3316 -0.4352 -1.0295
   42DOPE  H11Y 5396   4.587   5.250  10.855 -0.0250  0.1691  1.5419
   42DOPE  C312 5397   4.779   5.337  10.915  0.7580 -0.4660  0.0359
   42DOPE  H12X 5398   4.738   5.411  10.987  0.1982 -1.0916  0.3762
   42DOPE  H12Y 5399   4.872   5.379  10.871 -0.0605  0.6115 -0.7213
   42DOPE  C313 5400   4.803   5.227  11.014 -0.7415 -0.7531 -0.0736
   42DOPE  H13X 5401   4.709   5.208  11.070 -0.2782 -2.2293  0.2322
   42DOPE  H13Y 5402   4.824   5.130  10.966 -1.8460 -1.0012 -0.0750
   42DOPE  C314 5403   4.920   5.273  11.104  0.1552  1.2797 -0.0427
   42DOPE  H14X 5404   4.887   5.364  11.158 -0.2206  1.1672 -0.0739
   42DOPE  H14Y 5405   4.997   5.302  11.030 -0.8205  1.9878 -0.8165
   42DOPE  C315 5406   4.976   5.176  11.210  1.0321 -0.4957  0.4772
   42DOPE  H15X 5407   5.086   5.192  11.212  0.9859  0.1630 -0.8989
   42DOPE  H15Y 5408   4.963   5.072  11.173  0.2631  0.1634 -1.2688
   42DOPE  C316 5409   4.900   5.197  11.348  0.1198  0.5437  0.2728
   42DOPE  H16X 5410   4.792   5.197  11.323  1.0029 -0.0851 -4.5868
   42DOPE  H16Y 5411   4.932   5.289  11.401 -1.4321  0.1990  1.9181
   42DOPE  C317 5412   4.929   5.085  11.454 -0.0068 -0.0841 -0.1881
   42DOPE  H17X 5413   4.896   4.985  11.417  0.1410 -0.8000  1.5126
   42DOPE  H17Y 5414   5.040   5.081  11.453 -0.0317 -2.4159  0.2919
   42DOPE  C318 5415   4.883   5.123  11.594  0.0631  0.4564 -0.6142
   42DOPE  H18X 5416   4.944   5.205  11.639  2.5609 -2.3764  1.6110
   42DOPE  H18Y 5417   4.777   5.157  11.585 -0.8538 -1.8846  0.3834
   42DOPE  H18Z 5418   4.871   5.039  11.666 -0.2477  1.1616  0.1735
   43DOPE     N 5419   2.703   4.854   9.074  0.5278 -0.1965 -0.7361
   43DOPE   HN1 5420   2.740   4.923   9.143  0.0875 -0.5040 -0.1861
   43DOPE   HN2 5421   2.787   4.807   9.034  0.7042 -0.6206  0.0985
   43DOPE   HN3 5422   2.652   4.897   8.994 -0.9196 -0.2469  0.1237
   43DOPE   C12 5423   2.631   4.749   9.161  1.0733  0.2578  0.1847
   43DOPE  H12A 5424   2.571   4.684   9.094  0.2219 -0.3449  1.4836
   43DOPE  H12B 5425   2.562   4.792   9.237  1.2625 -0.1851  0.6118
   43DOPE   C11 5426   2.739   4.660   9.222  0.0315 -0.5836  0.0129
   43DOPE  H11A 5427   2.824   4.632   9.156  0.9333  1.1685  0.3694
   43DOPE  H11B 5428   2.691   4.563   9.247 -0.1395 -0.1559  1.3797
   43DOPE     P 5429   2.846   4.613   9.462  0.0156 -0.2916 -0.1076
   43DOPE   O13 5430   2.979   4.561   9.411  0.0181  0.1439 -0.1505
   43DOPE   O14 5431   2.741   4.523   9.516 -0.1068 -0.1207 -0.0851
   43DOPE   O11 5432   2.875   4.717   9.580 -0.0204 -0.2983  0.2234
   43DOPE   O12 5433   2.786   4.707   9.350  0.7404 -0.1985  0.1949
   43DOPE    C1 5434   2.777   4.820   9.611 -0.4860 -0.2382 -0.6096
   43DOPE    HA 5435   2.669   4.794   9.609  0.2456 -3.7945 -0.6238
   43DOPE    HB 5436   2.793   4.898   9.534 -0.6325 -2.6534 -3.2588
   43DOPE    C2 5437   2.801   4.863   9.764 -0.2318 -0.5292  0.4885
   43DOPE    HS 5438   2.910   4.882   9.774 -0.1521 -1.0447  0.6109
   43DOPE   O21 5439   2.753   4.758   9.844 -0.3858 -0.5142  0.2019
   43DOPE   C21 5440   2.847   4.674   9.888  0.3504  0.5186  0.4235
   43DOPE   O22 5441   2.966   4.687   9.868 -0.4619 -0.0055 -0.5122
   43DOPE   C22 5442   2.776   4.547   9.955  0.0894  0.6402  0.7308
   43DOPE   H2R 5443   2.806   4.471   9.880 -0.4231  2.0268 -0.9336
   43DOPE   H2S 5444   2.667   4.566   9.954 -0.1736 -0.8094  0.0531
   43DOPE    C3 5445   2.729   4.995   9.801  0.1820 -0.3027 -0.2011
   43DOPE    HX 5446   2.620   4.981   9.784  0.0611  0.3137  0.0562
   43DOPE    HY 5447   2.773   5.074   9.737 -0.7531  1.0318  0.7537
   43DOPE   O31 5448   2.747   5.042   9.935  0.0416 -0.0531 -0.3959
   43DOPE   C31 5449   2.662   5.126   9.991 -0.4881 -0.1306 -0.5217
   43DOPE   O32 5450   2.566   5.181   9.933 -0.5334  0.4912 -0.7498
   43DOPE   C32 5451   2.705   5.165  10.138 -0.0983  0.0758  0.6952
   43DOPE   H2X 5452   2.785   5.099  10.178 -1.7888 -1.2913  1.9590
   43DOPE   H2Y 5453   2.747   5.268  10.136 -0.0827  0.0711  0.7633
   43DOPE   C23 5454   2.840   4.510  10.095 -0.0410 -0.9039  0.4093
   43DOPE   H3R 5455   2.807   4.582  10.173  0.7368 -0.9823  0.8263
   43DOPE   H3S 5456   2.949   4.529  10.080 -0.5644  2.8717  0.4440
   43DOPE   C24 5457   2.804   4.360  10.130  0.7387  1.1620  0.3169
   43DOPE   H4R 5458   2.822   4.292  10.044 -1.0541  0.4846  0.4473
   43DOPE   H4S 5459   2.695   4.363  10.148  0.5974  2.1694 -0.5823
   43DOPE   C25 5460   2.875   4.307  10.254 -0.2588 -0.8423 -0.2051
   43DOPE   H5R 5461   2.841   4.378  10.332  1.2143  0.0947 -0.3563
   43DOPE   H5S 5462   2.986   4.320  10.252 -0.2179 -1.0522  0.4825
   43DOPE   C26 5463   2.848   4.158  10.265  0.5174 -1.1334 -0.1521
   43DOPE   H6R 5464   2.887   4.116  10.169 -0.7649  1.0358 -1.6983
   43DOPE   H6S 5465   2.741   4.137  10.282  0.4433 -2.1211 -1.5996
   43DOPE   C27 5466   2.917   4.096  10.383 -0.1385  0.6391  0.0124
   43DOPE   H7R 5467   2.868   4.129  10.477  0.0142  0.2262  0.2366
   43DOPE   H7S 5468   3.017   4.144  10.380  1.4826 -2.3027  2.1696
   43DOPE   C28 5469   2.954   3.942  10.386 -0.2477  0.1582 -0.5286
   43DOPE   H8R 5470   3.021   3.915  10.471 -1.4916  1.9224  1.1280
   43DOPE   H8S 5471   3.024   3.931  10.301 -0.9796  1.2761 -1.3044
   43DOPE   C29 5472   2.836   3.850  10.380  0.6498  0.3934 -0.5485
   43DOPE   H9R 5473   2.803   3.814  10.281  2.0975 -1.1047 -0.5194
   43DOPE  C210 5474   2.774   3.795  10.493 -0.1009 -0.1476  0.5359
   43DOPE  H10R 5475   2.701   3.713  10.487 -0.1595 -0.1281  1.0017
   43DOPE  C211 5476   2.818   3.818  10.635  0.3646  0.3053  0.3000
   43DOPE  H11R 5477   2.810   3.926  10.657 -1.8497 -0.3520  3.3599
   43DOPE  H11S 5478   2.922   3.783  10.652 -0.2422 -1.3083  0.8460
   43DOPE  C212 5479   2.738   3.736  10.733 -0.0330 -0.6131 -0.0320
   43DOPE  H12R 5480   2.755   3.634  10.693 -0.5791 -1.2567  1.3096
   43DOPE  H12S 5481   2.631   3.766  10.725  0.9358  2.9503 -1.8110
   43DOPE  C213 5482   2.786   3.751  10.883  0.6064 -0.2824 -0.1265
   43DOPE  H13R 5483   2.754   3.853  10.914  1.2366 -0.1776  0.1856
   43DOPE  H13S 5484   2.896   3.751  10.892  0.5282  0.7077  0.9823
   43DOPE  C214 5485   2.719   3.647  10.971  0.2409  0.7656 -0.6093
   43DOPE  H14R 5486   2.706   3.554  10.911  0.8758 -1.2202  2.1385
   43DOPE  H14S 5487   2.614   3.676  10.994  0.3305 -0.1191  1.0837
   43DOPE  C215 5488   2.798   3.612  11.093  0.2506 -0.7666 -0.3488
   43DOPE  H15R 5489   2.779   3.696  11.163  1.4490  0.3344 -1.3019
   43DOPE  H15S 5490   2.905   3.626  11.067  0.6810  0.8392  1.9521
   43DOPE  C216 5491   2.759   3.486  11.175 -0.5050 -0.5709 -0.0852
   43DOPE  H16R 5492   2.802   3.396  11.127 -0.8026 -1.2499  0.8854
   43DOPE  H16S 5493   2.651   3.471  11.192 -0.2410 -0.4487  1.9792
   43DOPE  C217 5494   2.825   3.482  11.316 -0.3275  0.1103 -0.0473
   43DOPE  H17R 5495   2.783   3.560  11.384 -0.7236  1.5892 -1.9290
   43DOPE  H17S 5496   2.935   3.488  11.309 -0.3867 -0.0810 -1.4192
   43DOPE  C218 5497   2.809   3.345  11.376  0.4965 -0.2681  0.2288
   43DOPE  H18R 5498   2.840   3.356  11.483 -0.9773  0.8787  0.5684
   43DOPE  H18S 5499   2.886   3.274  11.338  1.1413 -1.0324  2.7353
   43DOPE  H18T 5500   2.704   3.311  11.367  0.1410  0.6259  0.8350
   43DOPE   C33 5501   2.584   5.167  10.233  0.0387  0.0730 -0.9688
   43DOPE   H3X 5502   2.545   5.063  10.239  2.6468 -0.9528 -0.4713
   43DOPE   H3Y 5503   2.502   5.233  10.198  3.2468  3.7919 -2.1699
   43DOPE   C34 5504   2.632   5.211  10.376  0.3116  0.0473 -0.8887
   43DOPE   H4X 5505   2.723   5.151  10.396  0.1305  0.5224  1.6032
   43DOPE   H4Y 5506   2.650   5.320  10.380 -1.3731  0.4841 -2.9232
   43DOPE   C35 5507   2.540   5.179  10.490 -0.7319 -0.3469 -0.0330
   43DOPE   H5X 5508   2.484   5.086  10.466 -2.8317  1.1502 -1.2009
   43DOPE   H5Y 5509   2.463   5.258  10.500  1.0578  1.8168 -2.2371
   43DOPE   C36 5510   2.629   5.184  10.619  0.3268  0.9864  0.5082
   43DOPE   H6X 5511   2.699   5.269  10.624 -1.0242  2.1051  1.1706
   43DOPE   H6Y 5512   2.683   5.088  10.634 -0.6277  0.7521  2.9096
   43DOPE   C37 5513   2.547   5.194  10.743  0.3352  0.0398 -0.5470
   43DOPE   H7X 5514   2.605   5.244  10.824 -0.1574 -1.8678  1.0692
   43DOPE   H7Y 5515   2.453   5.249  10.722 -0.4042 -0.5341  1.0626
   43DOPE   C38 5516   2.523   5.052  10.800 -0.2158  0.1679 -0.1338
   43DOPE   H8X 5517   2.611   4.997  10.839 -0.2451  1.0465  1.2501
   43DOPE   H8Y 5518   2.496   4.976  10.724 -2.0130 -0.1308  0.7391
   43DOPE   C39 5519   2.408   5.053  10.900  0.5366 -0.0998 -0.4206
   43DOPE   H9X 5520   2.308   5.036  10.858 -0.0965 -1.5735  1.5387
   43DOPE  C310 5521   2.416   5.081  11.035 -0.0289  0.1185  0.0483
   43DOPE  H10X 5522   2.331   5.069  11.103  0.7796  1.1185  1.2773
   43DOPE  C311 5523   2.542   5.125  11.114  0.6114  0.0460  0.1724
   43DOPE  H11X 5524   2.556   5.090  11.218  1.9584 -0.5336 -0.1911
   43DOPE  H11Y 5525   2.636   5.095  11.064 -0.3875 -0.3000 -1.6166
   43DOPE  C312 5526   2.546   5.280  11.131 -0.3055  0.0001 -0.6936
   43DOPE  H12X 5527   2.450   5.313  11.175 -0.0722  0.6917 -0.6971
   43DOPE  H12Y 5528   2.540   5.328  11.031  1.1054  0.9252 -0.3577
   43DOPE  C313 5529   2.660   5.334  11.213  0.2195  0.2635 -0.2684
   43DOPE  H13X 5530   2.752   5.272  11.203 -1.1947 -1.8548 -1.0782
   43DOPE  H13Y 5531   2.689   5.432  11.171  0.0919  0.8996  1.0764
   43DOPE  C314 5532   2.627   5.360  11.361  0.1542  0.7150 -0.7752
   43DOPE  H14X 5533   2.598   5.269  11.417 -1.9766  1.8702  0.1309
   43DOPE  H14Y 5534   2.531   5.417  11.363  0.3981  1.1249 -0.5286
   43DOPE  C315 5535   2.726   5.430  11.452  0.3108  0.1464 -0.1976
   43DOPE  H15X 5536   2.809   5.358  11.470 -0.3038 -0.9088 -1.4748
   43DOPE  H15Y 5537   2.672   5.458  11.545  1.4967  1.1889  0.2106
   43DOPE  C316 5538   2.777   5.558  11.400 -0.0429 -0.0568 -0.3693
   43DOPE  H16X 5539   2.690   5.627  11.410 -0.1017 -0.3720  2.1841
   43DOPE  H16Y 5540   2.825   5.551  11.301  1.1363  1.1615  0.0847
   43DOPE  C317 5541   2.897   5.598  11.493 -0.1662 -0.4650  0.1364
   43DOPE  H17X 5542   2.906   5.708  11.485  0.1259 -0.3910  1.3820
   43DOPE  H17Y 5543   2.874   5.580  11.600  1.3100  0.1144  0.5825
   43DOPE  C318 5544   3.030   5.544  11.439  0.1036  0.0546 -0.0808
   43DOPE  H18X 5545   3.114   5.556  11.511 -0.0869 -1.2525  0.4004
   43DOPE  H18Y 5546   3.007   5.436  11.421 -2.5000  0.4043  0.8408
   43DOPE  H18Z 5547   3.064   5.585  11.341  1.0302 -0.9181 -0.1971
   44DOPE     N 5548   0.182   2.484   8.811  0.2727 -0.2488  0.0730
   44DOPE   HN1 5549   0.167   2.560   8.880  1.5483 -0.7764  0.9735
   44DOPE   HN2 5550   0.150   2.394   8.853  1.0649 -1.6843 -2.2062
   44DOPE   HN3 5551   0.284   2.464   8.800  0.1470  0.2202 -2.3625
   44DOPE   C12 5552   0.133   2.515   8.672  0.5955 -0.2348  0.7315
   44DOPE  H12A 5553   0.033   2.559   8.691 -0.3587 -2.3743  0.9085
   44DOPE  H12B 5554   0.116   2.425   8.609 -3.0021  0.8794 -0.1183
   44DOPE   C11 5555   0.230   2.612   8.602 -0.2376 -1.4449 -0.5411
   44DOPE  H11A 5556   0.187   2.641   8.504  1.6770  0.6943 -0.8365
   44DOPE  H11B 5557   0.325   2.556   8.596 -0.3468 -1.9963  1.8264
   44DOPE     P 5558   0.178   2.872   8.665 -0.3943  0.4264 -0.2263
   44DOPE   O13 5559   0.053   2.877   8.746 -0.3375  0.1109 -0.6184
   44DOPE   O14 5560   0.164   2.900   8.521  0.0396  0.2597 -0.1425
   44DOPE   O11 5561   0.274   2.978   8.732  0.2565 -0.2895  0.2941
   44DOPE   O12 5562   0.259   2.724   8.688  0.6820 -0.5490 -0.1260
   44DOPE    C1 5563   0.365   2.939   8.841  0.1863 -0.6544  0.5160
   44DOPE    HA 5564   0.447   3.014   8.842  0.2024 -0.3724 -3.6992
   44DOPE    HB 5565   0.420   2.846   8.816  0.2748 -0.9253  1.6302
   44DOPE    C2 5566   0.294   2.901   8.974 -0.3124 -0.1285 -0.5416
   44DOPE    HS 5567   0.216   2.830   8.940 -3.7775  2.5564  1.0809
   44DOPE   O21 5568   0.221   3.010   9.028 -0.2268 -0.2945  1.1788
   44DOPE   C21 5569   0.107   2.984   9.098  0.1785  0.2247  0.6632
   44DOPE   O22 5570   0.064   2.874   9.116  0.5825 -0.1497 -0.3726
   44DOPE   C22 5571   0.038   3.117   9.133  0.1791  0.5703 -0.8183
   44DOPE   H2R 5572  -0.011   3.160   9.043  0.2679 -1.4968 -1.9218
   44DOPE   H2S 5573   0.107   3.194   9.174  0.3033 -1.4558  3.3101
   44DOPE    C3 5574   0.403   2.846   9.075 -0.0554 -0.1201 -0.2866
   44DOPE    HX 5575   0.462   2.925   9.126  0.5541 -0.6425 -0.1871
   44DOPE    HY 5576   0.476   2.791   9.012  1.0824 -0.3121  1.1565
   44DOPE   O31 5577   0.342   2.769   9.181 -0.2083  0.0238  0.0198
   44DOPE   C31 5578   0.285   2.651   9.145 -0.6591  0.0206  0.7327
   44DOPE   O32 5579   0.268   2.608   9.031 -0.2485 -0.1767 -0.0544
   44DOPE   C32 5580   0.250   2.584   9.273  0.3580  0.0246  0.3340
   44DOPE   H2X 5581   0.343   2.594   9.332  0.2217 -0.4026  0.6237
   44DOPE   H2Y 5582   0.173   2.647   9.320  1.3741  2.0001 -0.5071
   44DOPE   C23 5583  -0.069   3.105   9.246  0.3162 -0.3785  0.3898
   44DOPE   H3R 5584  -0.139   3.019   9.232  0.1634 -0.2061  0.0912
   44DOPE   H3S 5585  -0.127   3.199   9.232 -2.0025 -1.8095 -0.2462
   44DOPE   C24 5586  -0.016   3.109   9.386  0.3448  0.7136 -0.4535
   44DOPE   H4R 5587   0.049   3.199   9.389 -2.4165  2.9960 -2.4059
   44DOPE   H4S 5588   0.045   3.018   9.399  0.7015  0.9779 -0.2727
   44DOPE   C25 5589  -0.115   3.130   9.501  0.3298 -0.8689  0.2554
   44DOPE   H5R 5590  -0.190   3.049   9.509 -0.9967  0.3649  0.6518
   44DOPE   H5S 5591  -0.174   3.218   9.469 -2.5094 -1.8674  2.3570
   44DOPE   C26 5592  -0.049   3.156   9.640 -0.4515  0.2779  0.3713
   44DOPE   H6R 5593   0.038   3.225   9.630 -1.5683  1.6559 -0.2588
   44DOPE   H6S 5594   0.000   3.063   9.675  1.9972  1.6159  0.7312
   44DOPE   C27 5595  -0.138   3.218   9.752 -0.4158 -0.4316  0.1990
   44DOPE   H7R 5596  -0.201   3.301   9.712 -0.0823  0.1116  0.7865
   44DOPE   H7S 5597  -0.069   3.268   9.822  1.0312 -0.4314 -1.1639
   44DOPE   C28 5598  -0.229   3.126   9.827 -0.1616  1.2161  0.0218
   44DOPE   H8R 5599  -0.292   3.070   9.755  0.7483 -0.0403  0.1610
   44DOPE   H8S 5600  -0.288   3.191   9.894  1.3372  0.9872  1.6495
   44DOPE   C29 5601  -0.163   3.022   9.916  1.1835  0.5165 -0.0754
   44DOPE   H9R 5602  -0.056   3.006   9.893  1.3096 -3.1277  2.1716
   44DOPE  C210 5603  -0.214   2.952  10.024  0.2003 -0.6658  0.6485
   44DOPE  H10R 5604  -0.165   2.866  10.073  1.6729  0.2234  0.7786
   44DOPE  C211 5605  -0.351   2.984  10.082 -0.2741  0.2077 -0.7413
   44DOPE  H11R 5606  -0.408   2.890  10.097 -0.0476  0.0148 -1.0802
   44DOPE  H11S 5607  -0.413   3.049  10.016 -0.5459  0.1666 -0.5291
   44DOPE  C212 5608  -0.344   3.057  10.216  0.4523 -0.4447  0.2143
   44DOPE  H12R 5609  -0.439   3.112  10.230 -0.6804 -2.0690 -0.7697
   44DOPE  H12S 5610  -0.262   3.132  10.216 -1.0479  1.2840 -0.8759
   44DOPE  C213 5611  -0.343   2.956  10.334 -0.6232  0.4284 -0.2054
   44DOPE  H13R 5612  -0.252   2.894  10.320 -0.6974  0.1490  0.5241
   44DOPE  H13S 5613  -0.424   2.881  10.325  1.6114 -1.8988 -3.1827
   44DOPE  C214 5614  -0.327   3.015  10.474  0.5449 -0.0539 -0.2373
   44DOPE  H14R 5615  -0.425   3.051  10.510  0.6016 -0.8100  0.7089
   44DOPE  H14S 5616  -0.238   3.081  10.483 -0.9151  1.7687  1.7759
   44DOPE  C215 5617  -0.308   2.893  10.569  0.0228  0.4565  0.4542
   44DOPE  H15R 5618  -0.221   2.829  10.545  0.0519  0.6674 -0.0132
   44DOPE  H15S 5619  -0.392   2.821  10.557  1.8853 -1.6859 -0.5070
   44DOPE  C216 5620  -0.302   2.950  10.711 -0.1014  0.5269 -0.7206
   44DOPE  H16R 5621  -0.403   2.980  10.746 -0.1991 -1.0671  0.4477
   44DOPE  H16S 5622  -0.238   3.041  10.721  0.4520  0.0966 -0.3080
   44DOPE  C217 5623  -0.253   2.840  10.807  0.6678 -0.0880 -0.0890
   44DOPE  H17R 5624  -0.145   2.822  10.787  0.5582  0.6914 -1.4817
   44DOPE  H17S 5625  -0.303   2.741  10.802  0.3414  0.0653  0.1230
   44DOPE  C218 5626  -0.262   2.880  10.957 -0.0440  0.3151  0.1848
   44DOPE  H18R 5627  -0.216   2.812  11.032  0.1205  1.5776  1.2886
   44DOPE  H18S 5628  -0.370   2.887  10.981 -0.0970  1.8200 -0.4013
   44DOPE  H18T 5629  -0.219   2.980  10.981  0.4487 -0.0519  0.8725
   44DOPE   C33 5630   0.207   2.439   9.243  0.0888 -0.7220  0.3793
   44DOPE   H3X 5631   0.276   2.389   9.172 -0.0657 -0.6181  0.1545
   44DOPE   H3Y 5632   0.114   2.443   9.183  1.5577 -1.6280 -2.1197
   44DOPE   C34 5633   0.186   2.347   9.362 -0.2577  0.2643 -0.3740
   44DOPE   H4X 5634   0.279   2.335   9.422  1.9836  1.6621 -3.3518
   44DOPE   H4Y 5635   0.110   2.389   9.431  1.2030  2.1180  0.1961
   44DOPE   C35 5636   0.139   2.213   9.300 -0.4246  0.6826 -0.2897
   44DOPE   H5X 5637   0.228   2.192   9.237  1.6035  2.6143  1.7422
   44DOPE   H5Y 5638   0.053   2.233   9.234 -0.1179  0.4309 -0.7712
   44DOPE   C36 5639   0.127   2.096   9.395  0.2247 -0.1758  0.5155
   44DOPE   H6X 5640   0.036   2.100   9.458  0.9344  0.7097  1.5402
   44DOPE   H6Y 5641   0.204   2.090   9.476  2.0588  0.1910 -1.1219
   44DOPE   C37 5642   0.120   1.970   9.318  0.0005  0.5016 -0.2026
   44DOPE   H7X 5643   0.214   1.958   9.260  1.8533  2.4937  2.2079
   44DOPE   H7Y 5644   0.110   1.887   9.391  2.4936  0.0435 -0.2948
   44DOPE   C38 5645  -0.004   1.949   9.226 -0.4357  0.2951  0.5634
   44DOPE   H8X 5646  -0.017   1.839   9.219  1.6327  0.0609 -0.5486
   44DOPE   H8Y 5647   0.010   1.995   9.126  0.1317 -0.9519  0.0454
   44DOPE   C39 5648  -0.128   2.000   9.288 -0.6151 -0.1582  0.9751
   44DOPE   H9X 5649  -0.146   2.106   9.265 -1.1195 -0.2065  1.1340
   44DOPE  C310 5650  -0.207   1.932   9.376 -0.2661 -0.4890 -0.0290
   44DOPE  H10X 5651  -0.305   1.979   9.396 -1.7984 -3.0094 -1.0557
   44DOPE  C311 5652  -0.207   1.784   9.406 -0.4999  0.5508 -0.3108
   44DOPE  H11X 5653  -0.293   1.730   9.362  0.5173 -2.4766  1.1161
   44DOPE  H11Y 5654  -0.110   1.740   9.374  1.7040  3.5117  1.7523
   44DOPE  C312 5655  -0.214   1.756   9.557  0.1354 -0.7768  1.1179
   44DOPE  H12X 5656  -0.131   1.812   9.605  0.8769 -0.8127 -0.0887
   44DOPE  H12Y 5657  -0.195   1.653   9.595 -1.9464 -0.8962  1.9564
   44DOPE  C313 5658  -0.352   1.792   9.609  0.5281  0.0614  0.3833
   44DOPE  H13X 5659  -0.364   1.903   9.604 -0.4677 -0.1133 -2.0083
   44DOPE  H13Y 5660  -0.421   1.752   9.533  1.0484  0.5935 -0.3804
   44DOPE  C314 5661  -0.394   1.734   9.750 -0.4698 -0.5235  0.1908
   44DOPE  H14X 5662  -0.404   1.623   9.739 -0.8380 -0.7380  2.2651
   44DOPE  H14Y 5663  -0.488   1.781   9.785  0.4168  2.4987 -1.2199
   44DOPE  C315 5664  -0.286   1.783   9.848  0.2462  0.2805  0.4945
   44DOPE  H15X 5665  -0.295   1.893   9.845  1.0143  0.3502  0.4096
   44DOPE  H15Y 5666  -0.185   1.748   9.816 -0.5356 -1.1439 -0.5440
   44DOPE  C316 5667  -0.309   1.731   9.991 -0.5734 -0.0965 -0.5702
   44DOPE  H16X 5668  -0.312   1.620   9.985  1.8861 -0.2343 -0.4551
   44DOPE  H16Y 5669  -0.406   1.768  10.031 -0.3105 -0.2559  0.2326
   44DOPE  C317 5670  -0.193   1.769  10.085  1.0217 -0.2993 -0.3868
   44DOPE  H17X 5671  -0.107   1.720  10.037  0.7101 -2.2536  0.9292
   44DOPE  H17Y 5672  -0.176   1.879  10.093  2.3384 -0.4469 -0.9922
   44DOPE  C318 5673  -0.204   1.717  10.233 -0.4446  0.0430  0.7126
   44DOPE  H18X 5674  -0.281   1.776  10.287 -1.2928 -0.0558 -0.3512
   44DOPE  H18Y 5675  -0.221   1.608  10.232 -1.4852  0.1417  2.8985
   44DOPE  H18Z 5676  -0.108   1.736  10.285  0.5373 -2.7721  0.0999
   45DOPE     N 5677   1.911   2.199   8.641 -0.0806  0.3966 -0.0924
   45DOPE   HN1 5678   1.835   2.245   8.586  1.9038  3.4843 -0.5080
   45DOPE   HN2 5679   2.000   2.238   8.601 -0.4653  2.7077  1.1092
   45DOPE   HN3 5680   1.914   2.096   8.636  0.6637  0.4326 -0.5777
   45DOPE   C12 5681   1.900   2.240   8.788  0.0550 -0.0686  0.5799
   45DOPE  H12A 5682   1.963   2.166   8.843  1.3230 -0.5158 -1.3674
   45DOPE  H12B 5683   1.793   2.241   8.817 -0.2786  2.7481 -0.4685
   45DOPE   C11 5684   1.945   2.383   8.797 -0.2754 -0.1610  0.4369
   45DOPE  H11A 5685   2.055   2.393   8.797 -0.2866  2.7168 -3.9415
   45DOPE  H11B 5686   1.913   2.426   8.894  1.2066  0.1697  0.7918
   45DOPE     P 5687   1.743   2.512   8.670 -0.1532 -0.0674  0.1415
   45DOPE   O13 5688   1.670   2.391   8.631 -0.0397  0.8234  0.3757
   45DOPE   O14 5689   1.741   2.636   8.595  0.1443  0.4228 -0.0577
   45DOPE   O11 5690   1.697   2.542   8.816  0.4644 -0.5235  0.3070
   45DOPE   O12 5691   1.896   2.473   8.690 -0.0192  0.6662  0.1819
   45DOPE    C1 5692   1.725   2.672   8.880 -0.3703 -0.0794  0.0122
   45DOPE    HA 5693   1.643   2.744   8.860  1.1763  1.9894  0.7488
   45DOPE    HB 5694   1.824   2.718   8.860  0.4570 -0.7458  2.2441
   45DOPE    C2 5695   1.731   2.647   9.042  0.7709 -0.0722  0.2115
   45DOPE    HS 5696   1.838   2.620   9.051  1.8737  3.2068 -1.3453
   45DOPE   O21 5697   1.637   2.544   9.084  0.3712  0.6635  0.1842
   45DOPE   C21 5698   1.685   2.432   9.135  0.0603 -0.1804 -0.4044
   45DOPE   O22 5699   1.801   2.401   9.135  0.2524  0.1802 -0.6625
   45DOPE   C22 5700   1.568   2.344   9.179  0.1269  0.0254 -0.3901
   45DOPE   H2R 5701   1.562   2.262   9.104  1.4519  1.8086 -2.5612
   45DOPE   H2S 5702   1.475   2.405   9.172  1.7436  2.5618 -1.1290
   45DOPE    C3 5703   1.696   2.777   9.123  0.4959  0.6703  0.3959
   45DOPE    HX 5704   1.586   2.794   9.120  0.3219 -0.3307  0.5363
   45DOPE    HY 5705   1.755   2.856   9.072  1.4181 -1.2467 -1.6910
   45DOPE   O31 5706   1.735   2.772   9.262 -0.2977 -0.3696 -0.0664
   45DOPE   C31 5707   1.652   2.721   9.355  0.6258  0.0082 -0.0668
   45DOPE   O32 5708   1.533   2.697   9.331  0.1456 -0.3749 -0.4227
   45DOPE   C32 5709   1.724   2.697   9.492  0.0578  0.6527  0.8299
   45DOPE   H2X 5710   1.810   2.635   9.461  0.1149 -0.7990  3.5723
   45DOPE   H2Y 5711   1.765   2.791   9.533 -0.9427  0.8618  1.3748
   45DOPE   C23 5712   1.590   2.295   9.325 -0.3451 -0.0038 -0.4157
   45DOPE   H3R 5713   1.650   2.363   9.390 -1.9163  0.0568  1.0415
   45DOPE   H3S 5714   1.643   2.198   9.334  0.9074  0.3284 -3.2320
   45DOPE   C24 5715   1.456   2.296   9.400  0.4853 -0.2359 -0.3807
   45DOPE   H4R 5716   1.372   2.265   9.334 -1.3985  1.3957  1.1426
   45DOPE   H4S 5717   1.426   2.403   9.412 -0.2502 -0.4357 -0.3561
   45DOPE   C25 5718   1.462   2.208   9.522 -0.0451 -1.4958  0.1704
   45DOPE   H5R 5719   1.563   2.225   9.566  0.1373 -0.0684 -0.7066
   45DOPE   H5S 5720   1.449   2.108   9.476 -1.7494 -1.1668 -0.1102
   45DOPE   C26 5721   1.345   2.230   9.622 -0.2014  0.1504  0.4268
   45DOPE   H6R 5722   1.248   2.233   9.569 -3.4801  0.8027  5.7660
   45DOPE   H6S 5723   1.362   2.326   9.677  0.3294 -0.6370  1.6841
   45DOPE   C27 5724   1.335   2.118   9.726 -0.0004 -0.3295  0.0091
   45DOPE   H7R 5725   1.327   2.013   9.693 -0.1221 -0.8713  1.6493
   45DOPE   H7S 5726   1.245   2.135   9.790  0.3081 -1.6807  0.8461
   45DOPE   C28 5727   1.457   2.118   9.819  0.2710  0.0705  0.5580
   45DOPE   H8R 5728   1.449   2.208   9.884  2.2209 -1.2688  2.8235
   45DOPE   H8S 5729   1.548   2.120   9.754  0.8268  3.6474  1.2118
   45DOPE   C29 5730   1.470   2.000   9.913 -0.3894  0.1630  0.3381
   45DOPE   H9R 5731   1.535   1.917   9.882  0.2653  0.9993 -0.6139
   45DOPE  C210 5732   1.415   1.998  10.037 -0.0226  0.3688 -0.2173
   45DOPE  H10R 5733   1.430   1.914  10.105 -1.6107  0.6813  0.5694
   45DOPE  C211 5734   1.327   2.109  10.088  0.0579 -0.2907  0.1112
   45DOPE  H11R 5735   1.243   2.138  10.021  0.5185  0.0819 -0.3197
   45DOPE  H11S 5736   1.393   2.197  10.109 -0.3846  0.6273 -2.0416
   45DOPE  C212 5737   1.260   2.065  10.224  0.2811  1.1921 -0.6458
   45DOPE  H12R 5738   1.197   1.980  10.193  0.6142  0.3171  0.9843
   45DOPE  H12S 5739   1.194   2.146  10.260  2.3085  2.1408  1.1915
   45DOPE  C213 5740   1.341   2.024  10.348  0.7850 -0.1882  0.1392
   45DOPE  H13R 5741   1.381   2.115  10.398 -0.7876  0.6337 -0.0657
   45DOPE  H13S 5742   1.427   1.960  10.320  0.8499  0.0567 -0.2181
   45DOPE  C214 5743   1.253   1.947  10.452  0.0392 -0.6228  0.1884
   45DOPE  H14R 5744   1.218   1.855  10.401 -0.7341  0.3104 -0.9972
   45DOPE  H14S 5745   1.162   2.009  10.462 -0.0577 -0.0917 -2.9272
   45DOPE  C215 5746   1.329   1.921  10.576 -0.0192  0.2458 -0.5170
   45DOPE  H15R 5747   1.339   2.011  10.640  2.5695  1.7387 -2.7907
   45DOPE  H15S 5748   1.433   1.885  10.560  0.4180  0.9052  0.6887
   45DOPE  C216 5749   1.255   1.812  10.659  0.2402 -0.3630 -0.6377
   45DOPE  H16R 5750   1.308   1.795  10.755 -1.1277 -0.2053  0.1757
   45DOPE  H16S 5751   1.261   1.715  10.605  1.9204 -1.3365  1.1655
   45DOPE  C217 5752   1.115   1.847  10.704  0.2209 -0.0322 -0.2128
   45DOPE  H17R 5753   1.057   1.851  10.609  1.9361 -0.1434 -1.3105
   45DOPE  H17S 5754   1.115   1.949  10.748 -0.8486 -0.3720  0.6091
   45DOPE  C218 5755   1.049   1.755  10.806  0.2204  0.2895  0.5378
   45DOPE  H18R 5756   1.062   1.650  10.773  0.5500  0.5771 -0.2668
   45DOPE  H18S 5757   0.942   1.782  10.817  0.0771 -0.4515  0.9859
   45DOPE  H18T 5758   1.103   1.755  10.903  1.3927 -1.5824 -0.0729
   45DOPE   C33 5759   1.647   2.614   9.601 -0.1076  0.0299  0.1994
   45DOPE   H3X 5760   1.727   2.581   9.671  2.4624  2.5102 -1.3473
   45DOPE   H3Y 5761   1.613   2.519   9.555 -0.7827 -0.2314  1.1991
   45DOPE   C34 5762   1.537   2.682   9.684 -0.1128 -0.5401 -0.7886
   45DOPE   H4X 5763   1.564   2.779   9.731  1.5607  0.5772 -3.7751
   45DOPE   H4Y 5764   1.461   2.707   9.607  0.6087 -0.6803 -1.5570
   45DOPE   C35 5765   1.472   2.599   9.788 -0.4057  0.1118 -0.1800
   45DOPE   H5X 5766   1.456   2.499   9.743  0.2598 -0.5073  0.8947
   45DOPE   H5Y 5767   1.375   2.634   9.829 -0.4631 -0.7716  0.4720
   45DOPE   C36 5768   1.568   2.581   9.910 -0.5583  0.1369 -0.9824
   45DOPE   H6X 5769   1.590   2.679   9.959  3.5654 -1.1751  0.2390
   45DOPE   H6Y 5770   1.667   2.546   9.874 -0.5640 -0.6374 -0.2767
   45DOPE   C37 5771   1.504   2.487  10.019 -0.1732 -0.6308 -0.3880
   45DOPE   H7X 5772   1.468   2.391   9.977  1.0100 -1.3873  0.2711
   45DOPE   H7Y 5773   1.587   2.465  10.089  2.0067 -0.1751 -2.6951
   45DOPE   C38 5774   1.376   2.546  10.085 -0.7891  0.0715  0.7768
   45DOPE   H8X 5775   1.333   2.465  10.149  1.7558 -0.6673  1.6825
   45DOPE   H8Y 5776   1.300   2.572  10.008 -2.2828 -0.4776  2.0057
   45DOPE   C39 5777   1.418   2.658  10.174 -0.1682  0.1750  0.2566
   45DOPE   H9X 5778   1.458   2.746  10.121 -4.1036  2.0498  0.0084
   45DOPE  C310 5779   1.418   2.671  10.305 -0.0045 -0.1670 -0.0975
   45DOPE  H10X 5780   1.427   2.771  10.350  0.9143 -0.4358  0.3607
   45DOPE  C311 5781   1.383   2.558  10.396 -0.2852  0.1126 -0.1789
   45DOPE  H11X 5782   1.304   2.487  10.364 -2.0690  0.1014  3.6945
   45DOPE  H11Y 5783   1.478   2.501  10.408 -1.0344 -1.9047 -3.0044
   45DOPE  C312 5784   1.316   2.601  10.532 -0.3179  0.7553  0.7976
   45DOPE  H12X 5785   1.209   2.616  10.509 -0.1922 -0.0804 -0.3769
   45DOPE  H12Y 5786   1.353   2.703  10.557 -1.5987  2.1677 -2.5444
   45DOPE  C313 5787   1.327   2.503  10.646  0.3872  0.1477  0.8918
   45DOPE  H13X 5788   1.292   2.403  10.613 -1.7751  0.7410  1.2154
   45DOPE  H13Y 5789   1.426   2.490  10.694  0.2149 -1.0308  0.9651
   45DOPE  C314 5790   1.223   2.534  10.757 -0.1250 -0.4606 -0.6172
   45DOPE  H14X 5791   1.122   2.554  10.713 -0.4049 -2.7575 -1.1417
   45DOPE  H14Y 5792   1.261   2.626  10.806  1.0867 -0.6112 -1.2395
   45DOPE  C315 5793   1.190   2.415  10.851  0.4494 -0.4978 -1.1316
   45DOPE  H15X 5794   1.145   2.329  10.796  1.3934 -2.2324  0.6777
   45DOPE  H15Y 5795   1.122   2.456  10.930  0.1723  0.7836 -2.0121
   45DOPE  C316 5796   1.313   2.354  10.930  0.1535  0.4850 -0.8059
   45DOPE  H16X 5797   1.361   2.437  10.986 -0.3358  0.1849  0.0694
   45DOPE  H16Y 5798   1.383   2.319  10.851  0.2212  0.0666 -0.5608
   45DOPE  C317 5799   1.279   2.246  11.028  0.8543 -0.3172 -0.0011
   45DOPE  H17X 5800   1.225   2.278  11.120 -2.5202  0.1624 -2.0021
   45DOPE  H17Y 5801   1.201   2.182  10.982  1.0814 -0.9301  0.4602
   45DOPE  C318 5802   1.404   2.170  11.065 -0.2355  0.6226  1.0645
   45DOPE  H18X 5803   1.486   2.234  11.103 -0.9812  2.1800  0.1590
   45DOPE  H18Y 5804   1.384   2.095  11.145  0.0209  1.3499  1.8191
   45DOPE  H18Z 5805   1.454   2.125  10.977 -1.0911  0.5806  0.5879
   46DOPE     N 5806   6.548   0.633   8.416  0.4600  0.3422  0.5482
   46DOPE   HN1 5807   6.553   0.703   8.339 -0.7898 -0.3534 -0.1863
   46DOPE   HN2 5808   6.572   0.675   8.509 -0.5299  0.0679  0.9392
   46DOPE   HN3 5809   6.621   0.563   8.393  0.0449 -0.0615  0.4648
   46DOPE   C12 5810   6.417   0.565   8.430 -0.2668  0.4456  0.4227
   46DOPE  H12A 5811   6.392   0.526   8.329 -0.5238  0.1746  0.5882
   46DOPE  H12B 5812   6.337   0.638   8.452 -1.3023 -0.3368 -0.6129
   46DOPE   C11 5813   6.419   0.433   8.518  0.2584 -0.4284  0.6995
   46DOPE  H11A 5814   6.314   0.399   8.530  0.0489 -0.1757 -0.3028
   46DOPE  H11B 5815   6.448   0.462   8.621 -1.2055  3.7638  0.1406
   46DOPE     P 5816   6.642   0.306   8.465 -0.1668  0.3018  0.2239
   46DOPE   O13 5817   6.707   0.415   8.387  0.4233  0.5000 -0.0995
   46DOPE   O14 5818   6.665   0.169   8.426 -0.2391  0.1679  0.2011
   46DOPE   O11 5819   6.684   0.328   8.615  0.3023  0.3864 -0.0163
   46DOPE   O12 5820   6.491   0.323   8.469 -0.0188  0.2987  0.5606
   46DOPE    C1 5821   6.615   0.245   8.710  0.5928 -0.7645  0.4345
   46DOPE    HA 5822   6.642   0.138   8.699 -1.5302 -1.4162  1.1293
   46DOPE    HB 5823   6.505   0.257   8.703  0.6962 -0.3465 -0.5561
   46DOPE    C2 5824   6.651   0.286   8.862  0.3335 -0.6265  0.2801
   46DOPE    HS 5825   6.583   0.369   8.890 -0.4106 -0.6252 -1.4097
   46DOPE   O21 5826   6.791   0.319   8.873 -0.1839  0.5058  0.2685
   46DOPE   C21 5827   6.829   0.444   8.859 -0.5365  0.5481 -0.1116
   46DOPE   O22 5828   6.753   0.534   8.825  0.2787 -0.0238  0.1599
   46DOPE   C22 5829   6.982   0.445   8.890 -1.0487 -0.1629  0.2087
   46DOPE   H2R 5830   7.032   0.470   8.795 -0.4314  1.0094  0.8177
   46DOPE   H2S 5831   7.020   0.346   8.925 -0.8221  0.6982  2.5590
   46DOPE    C3 5832   6.621   0.169   8.965 -0.2687 -0.3659 -0.7029
   46DOPE    HX 5833   6.687   0.083   8.942  1.8062  0.7593  0.6493
   46DOPE    HY 5834   6.516   0.135   8.953 -0.7048  0.7683 -0.2808
   46DOPE   O31 5835   6.645   0.218   9.099 -0.1344  0.8138 -0.5134
   46DOPE   C31 5836   6.682   0.123   9.191 -0.1903 -0.2196  0.1942
   46DOPE   O32 5837   6.706   0.006   9.158  0.0373 -0.4800  0.4478
   46DOPE   C32 5838   6.687   0.189   9.332 -0.3231 -0.3059  0.4902
   46DOPE   H2X 5839   6.766   0.266   9.324 -0.8287  0.1711  0.0013
   46DOPE   H2Y 5840   6.589   0.238   9.351  0.1424  0.6286  0.5093
   46DOPE   C23 5841   7.019   0.549   8.997  0.5648 -0.1983 -0.1586
   46DOPE   H3R 5842   7.002   0.650   8.954 -2.3641 -0.9157 -0.9403
   46DOPE   H3S 5843   7.126   0.558   9.024  0.3167  4.2512  0.1718
   46DOPE   C24 5844   6.945   0.528   9.126 -0.6913  0.1211  0.2198
   46DOPE   H4R 5845   6.925   0.421   9.150  1.2061 -0.5346 -0.8561
   46DOPE   H4S 5846   6.844   0.572   9.117 -0.6755  0.8456  2.6544
   46DOPE   C25 5847   7.016   0.603   9.244 -0.7006 -0.1322  0.0535
   46DOPE   H5R 5848   6.998   0.711   9.225  0.3257  0.0944  0.3198
   46DOPE   H5S 5849   7.123   0.571   9.246 -1.4275 -2.8286 -0.0274
   46DOPE   C26 5850   6.959   0.578   9.386 -0.8301  0.2873 -0.6676
   46DOPE   H6R 5851   6.966   0.470   9.411 -2.9177  0.3444  0.4107
   46DOPE   H6S 5852   6.851   0.601   9.397 -0.8664 -0.8704  2.0906
   46DOPE   C27 5853   7.040   0.664   9.483  0.3731 -0.4429 -0.0174
   46DOPE   H7R 5854   7.043   0.766   9.439  0.4645  0.1098  1.2056
   46DOPE   H7S 5855   7.140   0.621   9.460 -0.9505 -1.7588 -4.1230
   46DOPE   C28 5856   6.991   0.648   9.633  0.4101  0.3179  0.0297
   46DOPE   H8R 5857   6.886   0.684   9.624  0.2100 -0.7138 -2.6428
   46DOPE   H8S 5858   7.049   0.727   9.685  0.3132  1.5329 -1.6151
   46DOPE   C29 5859   7.002   0.502   9.675  0.1940  0.2214 -0.4469
   46DOPE   H9R 5860   6.967   0.431   9.599  0.4122  1.2220 -1.5106
   46DOPE  C210 5861   7.077   0.454   9.780  0.5207 -0.1866  0.6509
   46DOPE  H10R 5862   7.065   0.346   9.800 -0.7231  0.1039  1.5889
   46DOPE  C211 5863   7.159   0.530   9.883  0.6702  0.2545 -0.4862
   46DOPE  H11R 5864   7.139   0.639   9.876  1.0895  0.3215 -0.7092
   46DOPE  H11S 5865   7.268   0.522   9.859  1.1298 -2.2021  1.9330
   46DOPE  C212 5866   7.149   0.496  10.030 -0.4745 -0.2638 -0.7255
   46DOPE  H12R 5867   7.191   0.395  10.050 -0.0023  0.3951  1.9441
   46DOPE  H12S 5868   7.040   0.481  10.045 -0.1753 -0.8707  1.0172
   46DOPE  C213 5869   7.208   0.600  10.130 -0.0128  0.1224  0.2705
   46DOPE  H13R 5870   7.156   0.696  10.111 -1.4777 -0.5455  0.8151
   46DOPE  H13S 5871   7.315   0.609  10.100  0.3282 -2.2037  0.6186
   46DOPE  C214 5872   7.195   0.564  10.272  1.0819  0.2101  0.0746
   46DOPE  H14R 5873   7.256   0.472  10.279 -0.1284 -0.6119  0.1435
   46DOPE  H14S 5874   7.088   0.547  10.297  1.1429  1.2919  1.1555
   46DOPE  C215 5875   7.264   0.657  10.358 -0.4603 -0.0724  0.2738
   46DOPE  H15R 5876   7.212   0.755  10.367  0.2804  0.1796  2.5414
   46DOPE  H15S 5877   7.364   0.681  10.315  0.0085  0.6503  1.6969
   46DOPE  C216 5878   7.289   0.593  10.497 -0.1729 -0.4552  0.6840
   46DOPE  H16R 5879   7.362   0.512  10.476 -0.4652 -0.3507 -0.8505
   46DOPE  H16S 5880   7.194   0.551  10.536 -1.9421 -1.0475 -3.7174
   46DOPE  C217 5881   7.337   0.684  10.607 -0.4617 -0.1160  0.0875
   46DOPE  H17R 5882   7.331   0.620  10.698  0.0140 -0.6748 -0.2664
   46DOPE  H17S 5883   7.262   0.763  10.627  0.1559  1.0143 -1.8576
   46DOPE  C218 5884   7.476   0.751  10.595 -0.1715 -0.0559 -0.2466
   46DOPE  H18R 5885   7.480   0.842  10.532  0.2816 -0.7826 -1.3111
   46DOPE  H18S 5886   7.553   0.690  10.542  0.5812  1.3141 -0.7804
   46DOPE  H18T 5887   7.512   0.785  10.694  0.2501 -1.0173 -0.0554
   46DOPE   C33 5888   6.719   0.087   9.445  0.1327 -0.4624 -0.1332
   46DOPE   H3X 5889   6.812   0.033   9.418  1.5188  1.2872  0.8830
   46DOPE   H3Y 5890   6.643   0.008   9.457 -1.3304  1.0389  0.8799
   46DOPE   C34 5891   6.731   0.165   9.579 -0.0036  0.1627 -0.8965
   46DOPE   H4X 5892   6.764   0.268   9.557  1.1402  0.1726  0.7182
   46DOPE   H4Y 5893   6.633   0.171   9.630  0.2044  0.0178 -0.4756
   46DOPE   C35 5894   6.820   0.110   9.692  0.0541 -0.5924 -0.6629
   46DOPE   H5X 5895   6.925   0.097   9.658  0.7030 -1.1012  1.3408
   46DOPE   H5Y 5896   6.775   0.010   9.711 -0.3972 -0.2059  0.4345
   46DOPE   C36 5897   6.808   0.191   9.823 -0.6575  0.9210  0.0037
   46DOPE   H6X 5898   6.840   0.297   9.816  1.3698  0.4013  0.7515
   46DOPE   H6Y 5899   6.880   0.147   9.895 -0.5474 -0.8866 -1.1236
   46DOPE   C37 5900   6.666   0.194   9.878  0.4259  0.2066  0.3949
   46DOPE   H7X 5901   6.615   0.266   9.811  0.9982 -1.3591 -1.8221
   46DOPE   H7Y 5902   6.616   0.095   9.867 -0.7718  0.7572  0.6509
   46DOPE   C38 5903   6.664   0.219  10.031  0.4417  0.2584 -0.1180
   46DOPE   H8X 5904   6.717   0.134  10.080 -0.2198 -0.1439 -0.0821
   46DOPE   H8Y 5905   6.560   0.202  10.066  0.1575 -0.5998 -1.3484
   46DOPE   C39 5906   6.718   0.357  10.064  0.1233  0.1093  0.5210
   46DOPE   H9X 5907   6.679   0.437  10.000 -0.6352  0.9731  2.0089
   46DOPE  C310 5908   6.811   0.385  10.162 -0.2763 -0.3684  0.1492
   46DOPE  H10X 5909   6.858   0.484  10.169 -1.2170  0.0679  0.4452
   46DOPE  C311 5910   6.879   0.290  10.254  0.0918  0.4184  1.1959
   46DOPE  H11X 5911   6.839   0.188  10.236  1.7641  0.0731 -0.9862
   46DOPE  H11Y 5912   6.990   0.292  10.248 -0.0013  1.0425 -2.0213
   46DOPE  C312 5913   6.829   0.314  10.400  0.0699 -0.4678 -0.4546
   46DOPE  H12X 5914   6.895   0.254  10.466  0.5295 -1.5927 -1.8989
   46DOPE  H12Y 5915   6.724   0.286  10.421 -0.7909  1.7493 -1.4908
   46DOPE  C313 5916   6.854   0.454  10.459  0.5299  0.1239 -1.2553
   46DOPE  H13X 5917   6.965   0.459  10.456  0.9282 -0.1945  3.9992
   46DOPE  H13Y 5918   6.799   0.530  10.399  1.0126  0.8875 -0.7462
   46DOPE  C314 5919   6.802   0.459  10.606  0.1591 -0.3607 -0.4055
   46DOPE  H14X 5920   6.823   0.560  10.647 -1.6396  0.3638 -1.1430
   46DOPE  H14Y 5921   6.860   0.390  10.671  0.3271  2.0216  2.1356
   46DOPE  C315 5922   6.651   0.443  10.625 -0.0032  0.3714  0.2974
   46DOPE  H15X 5923   6.638   0.334  10.610 -0.5482  0.1945  1.8280
   46DOPE  H15Y 5924   6.605   0.510  10.549  0.5984 -1.5665 -1.8841
   46DOPE  C316 5925   6.605   0.490  10.762 -0.2167 -0.0100 -0.0443
   46DOPE  H16X 5926   6.616   0.600  10.773  2.5083 -0.1085 -1.0209
   46DOPE  H16Y 5927   6.676   0.452  10.838  4.7286  4.0303 -2.0550
   46DOPE  C317 5928   6.458   0.441  10.795 -0.5487 -0.2013 -0.0017
   46DOPE  H17X 5929   6.393   0.501  10.727 -0.4844 -0.0514  0.0684
   46DOPE  H17Y 5930   6.445   0.337  10.757 -0.1287  0.2790 -1.5368
   46DOPE  C318 5931   6.424   0.446  10.941 -0.3372 -0.2441 -0.4508
   46DOPE  H18X 5932   6.500   0.386  10.995  1.2436 -1.0399 -3.3250
   46DOPE  H18Y 5933   6.415   0.553  10.970  0.8308  0.3755 -2.2485
   46DOPE  H18Z 5934   6.321   0.406  10.958 -0.5848  0.8533  0.8032
   47DOPE     N 5935   4.799   0.126   8.853  0.4434  0.1957 -0.1776
   47DOPE   HN1 5936   4.806   0.144   8.750  1.2699 -3.2392 -0.8525
   47DOPE   HN2 5937   4.878   0.186   8.884  0.3667  1.2473 -1.8674
   47DOPE   HN3 5938   4.811   0.023   8.865 -0.1012  0.0584 -0.7532
   47DOPE   C12 5939   4.665   0.168   8.905 -0.3588  0.4387  0.1263
   47DOPE  H12A 5940   4.593   0.096   8.861 -0.4256  1.3126 -1.2599
   47DOPE  H12B 5941   4.639   0.268   8.863  1.5872  0.2840 -1.5733
   47DOPE   C11 5942   4.685   0.159   9.060  0.0059 -0.2413 -0.3163
   47DOPE  H11A 5943   4.606   0.221   9.108  1.5515  1.9687 -0.4955
   47DOPE  H11B 5944   4.780   0.211   9.082  0.6814 -1.3392 -0.5779
   47DOPE     P 5945   4.781  -0.041   9.201 -0.2015 -0.4799 -0.3020
   47DOPE   O13 5946   4.907  -0.048   9.120 -0.9355 -0.6877 -0.5730
   47DOPE   O14 5947   4.726  -0.163   9.264 -0.5454  0.3667 -0.0168
   47DOPE   O11 5948   4.808   0.061   9.319 -0.8868 -0.4932  0.8618
   47DOPE   O12 5949   4.665   0.025   9.116  0.1599  0.0655 -0.2482
   47DOPE    C1 5950   4.933   0.087   9.382  0.3681 -0.0795  0.0836
   47DOPE    HA 5951   4.921   0.179   9.443 -1.0140 -0.1859  0.0010
   47DOPE    HB 5952   5.002   0.115   9.299  1.7670 -0.4284  1.0986
   47DOPE    C2 5953   5.009  -0.026   9.453  0.3612 -0.7475 -0.0485
   47DOPE    HS 5954   5.043  -0.099   9.376 -0.3458  0.3431 -1.4275
   47DOPE   O21 5955   4.916  -0.086   9.552 -0.3321  0.2345  0.1060
   47DOPE   C21 5956   4.963  -0.194   9.611  0.4440 -0.2357  0.5068
   47DOPE   O22 5957   5.075  -0.244   9.599  0.2956  0.2501 -0.0283
   47DOPE   C22 5958   4.859  -0.241   9.720  0.9150 -1.0606 -0.0233
   47DOPE   H2R 5959   4.773  -0.289   9.668  0.3325 -0.8470  0.7120
   47DOPE   H2S 5960   4.804  -0.155   9.764  0.7642 -1.1781  0.0246
   47DOPE    C3 5961   5.139   0.032   9.519 -0.6148  0.5658 -0.8987
   47DOPE    HX 5962   5.207   0.072   9.440 -0.6006  0.3881 -0.9772
   47DOPE    HY 5963   5.202  -0.041   9.573 -1.1721  0.5816 -0.2076
   47DOPE   O31 5964   5.109   0.142   9.609  0.4057  0.5203 -0.2331
   47DOPE   C31 5965   5.100   0.109   9.740  0.0319 -0.3638 -0.2375
   47DOPE   O32 5966   5.123   0.005   9.792 -0.1285  0.3459  0.2328
   47DOPE   C32 5967   5.060   0.234   9.821  0.2748  0.0098 -0.4877
   47DOPE   H2X 5968   5.069   0.323   9.754 -2.2008  1.9554  1.5698
   47DOPE   H2Y 5969   4.952   0.220   9.842 -0.1813  1.5919 -1.5819
   47DOPE   C23 5970   4.907  -0.328   9.829  0.1414  0.0359 -0.0790
   47DOPE   H3R 5971   4.965  -0.414   9.789  0.2523  0.5050 -0.9425
   47DOPE   H3S 5972   4.826  -0.386   9.879  0.9625 -1.8573 -0.8458
   47DOPE   C24 5973   4.988  -0.257   9.942  0.0067 -0.3058  0.0552
   47DOPE   H4R 5974   5.066  -0.196   9.890 -0.0519  0.2260  0.5843
   47DOPE   H4S 5975   5.041  -0.339   9.994 -2.3837 -2.3258 -0.5255
   47DOPE   C25 5976   4.912  -0.161  10.038 -0.3991  0.3962 -0.1112
   47DOPE   H5R 5977   4.811  -0.205  10.054 -0.6369  0.7974 -0.4870
   47DOPE   H5S 5978   4.888  -0.067   9.984 -1.2465  1.3064  1.7391
   47DOPE   C26 5979   4.994  -0.138  10.166  0.7174  0.3443  0.6681
   47DOPE   H6R 5980   5.086  -0.087  10.131  0.0736  0.7023 -0.5451
   47DOPE   H6S 5981   5.028  -0.233  10.212 -0.6747  0.0490  1.1454
   47DOPE   C27 5982   4.941  -0.029  10.265 -0.2263 -0.3524  0.3425
   47DOPE   H7R 5983   4.837  -0.057  10.290 -1.1569  1.5940 -1.1415
   47DOPE   H7S 5984   4.933   0.064  10.205  1.8602 -0.2980  0.0717
   47DOPE   C28 5985   5.033  -0.019  10.387  0.0342  1.1907 -0.3340
   47DOPE   H8R 5986   5.134   0.002  10.346 -0.9076  1.4586 -2.6796
   47DOPE   H8S 5987   5.037  -0.118  10.438  0.3572  1.7395  0.7355
   47DOPE   C29 5988   4.994   0.102  10.473 -0.4534 -0.2470  0.3436
   47DOPE   H9R 5989   4.943   0.180  10.414 -0.9072 -2.2752 -2.1558
   47DOPE  C210 5990   5.009   0.111  10.602 -0.5958 -0.0765 -0.1313
   47DOPE  H10R 5991   4.981   0.201  10.659  0.2697 -0.5053  1.0131
   47DOPE  C211 5992   5.059  -0.000  10.695 -0.4121 -0.2240 -0.0567
   47DOPE  H11R 5993   5.094  -0.097  10.653  0.4212 -0.8668  1.9757
   47DOPE  H11S 5994   4.978  -0.020  10.769 -1.3938  0.2716 -0.9651
   47DOPE  C212 5995   5.183   0.051  10.772 -0.3706 -0.5349 -0.0662
   47DOPE  H12R 5996   5.252   0.102  10.702 -2.1773  0.2633 -1.3408
   47DOPE  H12S 5997   5.235  -0.033  10.823 -1.3381 -2.2609 -1.7551
   47DOPE  C213 5998   5.155   0.160  10.881  0.6002 -0.4927  0.1725
   47DOPE  H13R 5999   5.059   0.144  10.933 -1.0061  0.0667 -2.4465
   47DOPE  H13S 6000   5.146   0.255  10.825  0.2337 -1.1933 -0.9860
   47DOPE  C214 6001   5.265   0.186  10.986  0.9633  0.3355 -0.0117
   47DOPE  H14R 6002   5.350   0.223  10.926  0.9638  1.1956  0.4968
   47DOPE  H14S 6003   5.288   0.091  11.040  0.3716  1.0852  1.6467
   47DOPE  C215 6004   5.219   0.303  11.081 -0.0534  0.1236  0.7675
   47DOPE  H15R 6005   5.134   0.263  11.141 -1.6399  0.4468 -1.1563
   47DOPE  H15S 6006   5.176   0.381  11.014  1.9086  0.2231 -0.4391
   47DOPE  C216 6007   5.341   0.352  11.156  0.1700 -0.2117 -0.9646
   47DOPE  H16R 6008   5.414   0.412  11.097  1.5888 -1.1972 -0.2634
   47DOPE  H16S 6009   5.403   0.265  11.185  0.6874  0.3233 -0.4292
   47DOPE  C217 6010   5.286   0.439  11.280 -0.4770  0.6503  0.1041
   47DOPE  H17R 6011   5.198   0.497  11.244  0.2704  0.5581 -2.0389
   47DOPE  H17S 6012   5.366   0.510  11.311  1.5823 -1.7377  0.6057
   47DOPE  C218 6013   5.253   0.343  11.398  0.1325  0.2862 -0.1817
   47DOPE  H18R 6014   5.343   0.280  11.412 -0.9458 -1.4849 -0.8401
   47DOPE  H18S 6015   5.172   0.268  11.385  1.7637 -1.9603  1.7280
   47DOPE  H18T 6016   5.226   0.399  11.491 -0.1955 -1.5026  0.8516
   47DOPE   C33 6017   5.142   0.257   9.954  0.0625  0.6779  0.4557
   47DOPE   H3X 6018   5.250   0.269   9.933  0.0752 -0.7132 -0.4164
   47DOPE   H3Y 6019   5.136   0.162  10.012  0.1558 -0.1702 -0.8663
   47DOPE   C34 6020   5.079   0.381  10.022 -0.0736 -0.4232 -0.1990
   47DOPE   H4X 6021   5.098   0.475   9.966  2.2394 -0.2513  0.7965
   47DOPE   H4Y 6022   4.971   0.354  10.016 -0.0590 -0.3671 -0.7205
   47DOPE   C35 6023   5.131   0.390  10.167  0.5176  0.6957 -0.0724
   47DOPE   H5X 6024   5.239   0.366  10.174  0.9003  2.7603  2.5221
   47DOPE   H5Y 6025   5.087   0.311  10.231  1.3438 -0.2224 -0.6136
   47DOPE   C36 6026   5.136   0.529  10.227  0.0940 -0.2629 -0.0460
   47DOPE   H6X 6027   5.036   0.574  10.205 -0.5756 -1.4908  0.3893
   47DOPE   H6Y 6028   5.209   0.593  10.173  0.4475  0.7371  1.5359
   47DOPE   C37 6029   5.167   0.539  10.380  0.2940  0.0612  0.1470
   47DOPE   H7X 6030   5.271   0.505  10.400  0.4086  1.0362  1.3863
   47DOPE   H7Y 6031   5.153   0.644  10.413 -0.8789 -0.1241  0.2859
   47DOPE   C38 6032   5.075   0.454  10.472  0.3087 -0.0278  0.1064
   47DOPE   H8X 6033   5.102   0.492  10.573  1.2468  0.6161 -0.3752
   47DOPE   H8Y 6034   5.107   0.348  10.465 -0.2198 -0.0632 -2.9067
   47DOPE   C39 6035   4.929   0.465  10.442 -0.1526 -0.6409  0.4497
   47DOPE   H9X 6036   4.902   0.457  10.336 -1.4137  0.9533  0.6176
   47DOPE  C310 6037   4.828   0.496  10.523 -1.0463 -0.2357 -0.5556
   47DOPE  H10X 6038   4.728   0.512  10.481 -1.7197  0.8490  1.3250
   47DOPE  C311 6039   4.828   0.519  10.672  0.4200  0.5834 -0.5687
   47DOPE  H11X 6040   4.933   0.514  10.711  1.7469  1.9982 -3.6313
   47DOPE  H11Y 6041   4.790   0.619  10.700 -1.0240 -0.1834  0.3003
   47DOPE  C312 6042   4.746   0.407  10.746 -0.4356 -0.2627  0.0396
   47DOPE  H12X 6043   4.796   0.309  10.730 -2.1768 -1.0526 -0.7786
   47DOPE  H12Y 6044   4.642   0.397  10.709 -0.0583  1.1810 -1.5298
   47DOPE  C313 6045   4.731   0.441  10.894 -0.1738 -0.1233 -0.3479
   47DOPE  H13X 6046   4.711   0.550  10.898  1.1113  0.1306 -0.2148
   47DOPE  H13Y 6047   4.643   0.388  10.935 -0.2605  1.4200  1.5917
   47DOPE  C314 6048   4.861   0.409  10.974 -0.0529 -0.0528  0.5660
   47DOPE  H14X 6049   4.949   0.440  10.914 -0.8890 -0.3390 -0.8397
   47DOPE  H14Y 6050   4.859   0.298  10.983  0.9506 -0.3847 -2.4485
   47DOPE  C315 6051   4.890   0.483  11.104  0.3498 -0.2030 -0.2617
   47DOPE  H15X 6052   4.995   0.459  11.130  0.0110  0.6973  2.2831
   47DOPE  H15Y 6053   4.835   0.450  11.195  2.4523  0.2477  1.2409
   47DOPE  C316 6054   4.872   0.631  11.095  0.0264 -0.6596 -0.1675
   47DOPE  H16X 6055   4.765   0.659  11.086 -0.1258 -1.0139  0.5018
   47DOPE  H16Y 6056   4.923   0.665  11.002  0.5375 -0.3263  0.2275
   47DOPE  C317 6057   4.930   0.707  11.216  0.1170 -0.4115  0.4416
   47DOPE  H17X 6058   4.874   0.686  11.309  1.6666  0.7798  1.6895
   47DOPE  H17Y 6059   5.033   0.669  11.236  0.3398 -0.1484 -0.1597
   47DOPE  C318 6060   4.940   0.858  11.184 -0.3135  0.1267 -0.2770
   47DOPE  H18X 6061   5.010   0.853  11.098  0.1473 -1.0104  0.1490
   47DOPE  H18Y 6062   4.842   0.904  11.158 -0.6233 -0.0689  0.5373
   47DOPE  H18Z 6063   4.999   0.910  11.262  0.3841 -0.7602 -0.2074
   48DOPE     N 6064   2.603   3.597   9.227 -0.1331  0.0350  0.1636
   48DOPE   HN1 6065   2.615   3.631   9.325  1.1666  1.2971 -0.4002
   48DOPE   HN2 6066   2.500   3.598   9.210 -0.2944 -3.0847  0.3507
   48DOPE   HN3 6067   2.631   3.497   9.238 -3.2635 -0.7752  2.1247
   48DOPE   C12 6068   2.697   3.655   9.133  0.4123  0.2063 -0.3601
   48DOPE  H12A 6069   2.792   3.599   9.146 -1.5209 -2.9473  1.5908
   48DOPE  H12B 6070   2.703   3.762   9.161 -0.8120  0.0864  0.4299
   48DOPE   C11 6071   2.621   3.665   8.996  0.0861  0.2173  0.5567
   48DOPE  H11A 6072   2.595   3.559   8.976  0.8628 -0.2722  1.9696
   48DOPE  H11B 6073   2.695   3.706   8.924 -1.0877  1.5879  0.0673
   48DOPE     P 6074   2.386   3.738   8.904 -0.0229 -0.0923  0.1389
   48DOPE   O13 6075   2.430   3.715   8.767  0.2126 -0.4462  0.6760
   48DOPE   O14 6076   2.297   3.851   8.929  0.0640  0.3042  0.2470
   48DOPE   O11 6077   2.317   3.606   8.957  0.3854 -0.1134 -0.2084
   48DOPE   O12 6078   2.509   3.758   8.997  0.3397  0.1514  0.1508
   48DOPE    C1 6079   2.195   3.558   8.889 -0.4296  0.3124 -0.0291
   48DOPE    HA 6080   2.188   3.448   8.903  0.8131 -0.1232 -2.2982
   48DOPE    HB 6081   2.205   3.556   8.778  0.2740 -0.4296  0.0319
   48DOPE    C2 6082   2.066   3.614   8.950  0.0441 -0.3495  0.5942
   48DOPE    HS 6083   2.070   3.723   8.926 -0.8715 -0.3862  0.2261
   48DOPE   O21 6084   2.059   3.587   9.094 -0.3932 -0.3535 -0.0911
   48DOPE   C21 6085   1.966   3.649   9.157 -0.0455  0.2463 -0.6338
   48DOPE   O22 6086   1.889   3.735   9.119 -0.7882 -0.1284  0.6161
   48DOPE   C22 6087   1.972   3.583   9.304 -0.2170  0.2908  0.1385
   48DOPE   H2R 6088   2.043   3.644   9.363 -2.5660  1.1188  2.2744
   48DOPE   H2S 6089   2.021   3.484   9.292  1.9711  0.8686  3.1700
   48DOPE    C3 6090   1.953   3.544   8.873 -0.4159 -0.9747 -0.1610
   48DOPE    HX 6091   1.978   3.563   8.766  0.6358  0.6212  0.3391
   48DOPE    HY 6092   1.851   3.587   8.889  0.3017  1.0584 -0.7660
   48DOPE   O31 6093   1.958   3.404   8.896  0.4285 -0.2448 -0.5454
   48DOPE   C31 6094   1.882   3.360   9.000  0.1127  0.1164 -0.2233
   48DOPE   O32 6095   1.795   3.430   9.052 -0.1888 -0.1533 -0.0987
   48DOPE   C32 6096   1.901   3.216   9.025 -0.4300 -0.2973 -0.0551
   48DOPE   H2X 6097   1.833   3.153   8.963  0.1927  1.5672 -2.8139
   48DOPE   H2Y 6098   2.001   3.194   8.982 -0.5625  0.4624 -0.7731
   48DOPE   C23 6099   1.848   3.564   9.386  0.2497 -0.5126  0.2963
   48DOPE   H3R 6100   1.770   3.520   9.320  0.9243  0.6289 -1.3313
   48DOPE   H3S 6101   1.804   3.662   9.416 -2.3228 -0.9971 -1.6059
   48DOPE   C24 6102   1.868   3.478   9.514 -0.4130 -0.6984 -0.3677
   48DOPE   H4R 6103   1.953   3.534   9.560 -0.9576 -0.2566  0.1188
   48DOPE   H4S 6104   1.903   3.378   9.483  0.0691 -0.3789 -0.8812
   48DOPE   C25 6105   1.743   3.461   9.601  0.5488  0.1010  0.1861
   48DOPE   H5R 6106   1.675   3.415   9.527  2.3689  1.3080 -2.4010
   48DOPE   H5S 6107   1.702   3.559   9.633  2.9109  0.6851  1.7629
   48DOPE   C26 6108   1.757   3.373   9.729 -0.4430 -0.2612  0.6411
   48DOPE   H6R 6109   1.829   3.431   9.791 -0.9145 -2.3905  3.3750
   48DOPE   H6S 6110   1.812   3.284   9.692 -1.6041  1.2218 -5.8396
   48DOPE   C27 6111   1.625   3.343   9.805 -0.7680  0.4486 -0.2746
   48DOPE   H7R 6112   1.577   3.285   9.723  0.6027 -0.9969 -0.1050
   48DOPE   H7S 6113   1.572   3.437   9.830  0.1947  0.8289  0.3570
   48DOPE   C28 6114   1.662   3.274   9.937 -0.0709 -0.1590 -0.6124
   48DOPE   H8R 6115   1.661   3.358  10.011  2.0932 -0.1770 -0.4844
   48DOPE   H8S 6116   1.767   3.237   9.939 -0.6831 -1.9704  0.5247
   48DOPE   C29 6117   1.562   3.170   9.982  0.5162  0.1210  0.6424
   48DOPE   H9R 6118   1.497   3.132   9.901 -1.0572  1.2086  1.3474
   48DOPE  C210 6119   1.538   3.123  10.108 -0.4633 -0.3003  0.8505
   48DOPE  H10R 6120   1.446   3.068  10.132 -0.3071 -0.1747  1.7600
   48DOPE  C211 6121   1.609   3.162  10.238  0.2321 -0.0155 -0.4147
   48DOPE  H11R 6122   1.578   3.261  10.278 -0.2988 -0.0648 -0.7041
   48DOPE  H11S 6123   1.718   3.165  10.217  0.4985 -2.6216  0.3342
   48DOPE  C212 6124   1.605   3.070  10.366  0.2917  0.4650  0.2685
   48DOPE  H12R 6125   1.689   3.089  10.436 -0.6532 -1.6758  2.1623
   48DOPE  H12S 6126   1.618   2.967  10.326  2.1162  0.4176  0.8925
   48DOPE  C213 6127   1.468   3.075  10.434 -0.1476 -0.5713  0.2372
   48DOPE  H13R 6128   1.411   2.987  10.398 -2.0032  1.0193 -0.9548
   48DOPE  H13S 6129   1.403   3.161  10.408 -0.4670 -0.4246  1.4554
   48DOPE  C214 6130   1.486   3.061  10.587  0.4515 -0.6584  0.2417
   48DOPE  H14R 6131   1.525   3.152  10.637 -0.5739 -1.7105  3.1622
   48DOPE  H14S 6132   1.551   2.973  10.607 -0.5204 -1.0037  2.0425
   48DOPE  C215 6133   1.349   3.038  10.665  0.2172  0.1721  0.9491
   48DOPE  H15R 6134   1.286   2.955  10.625  1.1484  0.6767 -1.8073
   48DOPE  H15S 6135   1.282   3.125  10.648  0.2598  0.1366  0.5952
   48DOPE  C216 6136   1.376   3.019  10.814 -0.5516 -0.0835  0.1220
   48DOPE  H16R 6137   1.438   3.100  10.857 -1.3843  0.5427  0.1803
   48DOPE  H16S 6138   1.418   2.917  10.824  3.6611  1.3959 -0.6276
   48DOPE  C217 6139   1.255   3.034  10.906 -0.6357 -0.8968 -0.2227
   48DOPE  H17R 6140   1.229   3.142  10.903  1.8276 -0.1178  2.1119
   48DOPE  H17S 6141   1.300   3.026  11.008 -0.3943  1.5995 -0.0492
   48DOPE  C218 6142   1.136   2.950  10.885 -0.3634  0.0299  0.0322
   48DOPE  H18R 6143   1.056   2.969  10.960 -0.9012  1.2542 -0.8235
   48DOPE  H18S 6144   1.153   2.840  10.885  1.8070  0.3145  0.4739
   48DOPE  H18T 6145   1.082   2.967  10.790 -0.0590 -1.0881 -0.3596
   48DOPE   C33 6146   1.892   3.173   9.172 -0.7048 -0.2524 -0.1297
   48DOPE   H3X 6147   1.931   3.249   9.243 -0.8591  1.1549 -1.4674
   48DOPE   H3Y 6148   1.951   3.080   9.182  0.6571  0.5312 -0.5599
   48DOPE   C34 6149   1.746   3.158   9.222 -0.0476 -0.4925  0.5568
   48DOPE   H4X 6150   1.704   3.261   9.219  0.4971 -0.2857 -0.9566
   48DOPE   H4Y 6151   1.683   3.103   9.149 -1.2191  0.7175  0.6189
   48DOPE   C35 6152   1.731   3.109   9.369 -0.6824  0.1308  0.7134
   48DOPE   H5X 6153   1.802   3.164   9.434  1.0366 -0.2743 -0.7256
   48DOPE   H5Y 6154   1.756   3.001   9.373 -3.2629 -0.6251 -0.8349
   48DOPE   C36 6155   1.584   3.115   9.413  0.2645 -0.1852 -0.2348
   48DOPE   H6X 6156   1.532   3.081   9.321  1.6559  1.4104 -1.6859
   48DOPE   H6Y 6157   1.547   3.219   9.425  2.3657  0.5598  0.0950
   48DOPE   C37 6158   1.561   3.039   9.544  0.0310  0.8928  0.4453
   48DOPE   H7X 6159   1.598   2.935   9.538 -0.1477  0.8962 -1.2365
   48DOPE   H7Y 6160   1.631   3.078   9.621  0.6065 -2.9174  2.0867
   48DOPE   C38 6161   1.415   3.045   9.592 -0.1271  0.3900 -0.6459
   48DOPE   H8X 6162   1.377   3.148   9.575 -0.7891  0.1528 -0.6386
   48DOPE   H8Y 6163   1.407   3.018   9.700  0.8514  1.0636 -0.3851
   48DOPE   C39 6164   1.333   2.951   9.509  0.5052  0.0686  0.3423
   48DOPE   H9X 6165   1.380   2.906   9.421 -0.4804 -0.4557  0.0668
   48DOPE  C310 6166   1.198   2.926   9.523 -0.6673  0.2492  0.5791
   48DOPE  H10X 6167   1.138   2.868   9.451 -0.3173  0.0128  0.4769
   48DOPE  C311 6168   1.122   2.964   9.652 -0.1345  0.4829 -0.1243
   48DOPE  H11X 6169   1.156   3.057   9.702  0.7892 -0.8283  1.7704
   48DOPE  H11Y 6170   1.013   2.961   9.629  0.1197 -1.6286 -1.3903
   48DOPE  C312 6171   1.143   2.863   9.769 -0.2651 -0.2311 -0.0800
   48DOPE  H12X 6172   1.251   2.868   9.795 -0.1379  0.4500 -0.6945
   48DOPE  H12Y 6173   1.121   2.759   9.737 -0.4789 -0.0492 -0.5369
   48DOPE  C313 6174   1.053   2.906   9.890 -0.2933 -0.3885 -0.6172
   48DOPE  H13X 6175   1.010   3.008   9.879 -1.4573 -0.7172  0.5617
   48DOPE  H13Y 6176   0.961   2.845   9.873 -1.5048  1.2041 -0.0870
   48DOPE  C314 6177   1.120   2.891  10.027  0.0585 -0.3641 -0.1383
   48DOPE  H14X 6178   1.208   2.959  10.037  0.7074 -1.1881 -0.1682
   48DOPE  H14Y 6179   1.166   2.792  10.047 -0.2371 -1.0292 -2.4424
   48DOPE  C315 6180   1.023   2.919  10.124 -0.1456 -0.6656  0.1772
   48DOPE  H15X 6181   0.920   2.888  10.095 -0.3747  0.6524 -0.5107
   48DOPE  H15Y 6182   1.007   3.028  10.138  0.5626 -0.7113  1.4803
   48DOPE  C316 6183   1.061   2.871  10.269 -0.0582  0.2841  0.4669
   48DOPE  H16X 6184   1.151   2.930  10.297 -0.3824  1.1514 -0.2615
   48DOPE  H16Y 6185   1.083   2.763  10.260 -1.8793 -0.2338  1.6296
   48DOPE  C317 6186   0.939   2.898  10.372 -0.2480  0.2675 -0.6543
   48DOPE  H17X 6187   0.906   3.004  10.361 -0.2667  0.3326  0.0222
   48DOPE  H17Y 6188   0.853   2.835  10.344  0.5130 -1.4021  0.6216
   48DOPE  C318 6189   0.991   2.852  10.508  0.2351 -0.3943 -0.1596
   48DOPE  H18X 6190   0.919   2.884  10.587  0.4814 -1.2502  0.4212
   48DOPE  H18Y 6191   0.998   2.742  10.514 -2.3830 -0.5838  0.7488
   48DOPE  H18Z 6192   1.085   2.911  10.516 -0.1456 -0.0662  3.6560
   49DOPE     N 6193   4.590   0.490   8.614  0.0605 -0.7351  0.2419
   49DOPE   HN1 6194   4.637   0.399   8.596  1.5387  0.0792 -0.2051
   49DOPE   HN2 6195   4.517   0.477   8.688 -0.8581  0.4154 -0.4294
   49DOPE   HN3 6196   4.530   0.525   8.537  1.9129  2.4023  0.0850
   49DOPE   C12 6197   4.686   0.592   8.664  0.1704 -0.5910  0.0493
   49DOPE  H12A 6198   4.638   0.690   8.641  0.7544 -0.2899  0.0921
   49DOPE  H12B 6199   4.781   0.579   8.608  0.4932 -2.3025  0.9367
   49DOPE   C11 6200   4.696   0.582   8.819 -0.3232  0.6862 -0.1442
   49DOPE  H11A 6201   4.596   0.570   8.866 -0.2356 -1.8651 -0.4875
   49DOPE  H11B 6202   4.736   0.668   8.876  1.2809 -0.6285  0.7872
   49DOPE     P 6203   4.924   0.466   8.867  0.4732 -0.4045  0.0803
   49DOPE   O13 6204   4.996   0.541   8.765 -0.6121  0.2455  0.9546
   49DOPE   O14 6205   4.973   0.327   8.891  0.5205  0.5162 -0.1057
   49DOPE   O11 6206   4.933   0.547   8.994  0.6524 -0.0745 -0.4286
   49DOPE   O12 6207   4.770   0.459   8.846  0.1635 -1.0200 -0.3311
   49DOPE    C1 6208   4.919   0.489   9.126 -0.2128 -0.4408  0.0643
   49DOPE    HA 6209   4.986   0.544   9.196 -0.9141  0.3875  0.1008
   49DOPE    HB 6210   4.956   0.384   9.121 -1.7053 -0.9339 -1.0477
   49DOPE    C2 6211   4.776   0.492   9.178  0.3901 -0.0992  0.6276
   49DOPE    HS 6212   4.714   0.423   9.116  0.5333  1.3752 -1.2438
   49DOPE   O21 6213   4.737   0.632   9.175  0.2567 -0.1104 -0.1237
   49DOPE   C21 6214   4.607   0.644   9.153  0.2780 -0.2932 -0.1711
   49DOPE   O22 6215   4.523   0.556   9.159  0.4384 -0.1977 -0.0289
   49DOPE   C22 6216   4.568   0.791   9.109  0.4998 -0.2388  0.2816
   49DOPE   H2R 6217   4.500   0.787   9.022  0.0377 -1.6741  0.6868
   49DOPE   H2S 6218   4.661   0.837   9.068 -0.9742  1.1107 -1.6981
   49DOPE    C3 6219   4.758   0.424   9.318  0.0678  0.3731 -0.6197
   49DOPE    HX 6220   4.798   0.320   9.316  0.6260  0.5940 -1.2425
   49DOPE    HY 6221   4.651   0.410   9.343  0.3340  0.0042  0.3718
   49DOPE   O31 6222   4.821   0.506   9.420 -0.4215 -0.5995  0.2872
   49DOPE   C31 6223   4.743   0.594   9.478 -0.1936  0.2719 -0.2193
   49DOPE   O32 6224   4.626   0.613   9.460 -0.4276 -0.8161 -0.0382
   49DOPE   C32 6225   4.824   0.665   9.583 -0.0989 -0.0320  0.5262
   49DOPE   H2X 6226   4.928   0.658   9.546  0.0073 -0.7512  0.9404
   49DOPE   H2Y 6227   4.796   0.772   9.592  1.3012  0.5612 -1.5339
   49DOPE   C23 6228   4.494   0.878   9.218  0.0699 -0.5060  0.6130
   49DOPE   H3R 6229   4.569   0.918   9.290  1.0511  3.3402 -2.2063
   49DOPE   H3S 6230   4.418   0.826   9.280 -1.5678 -1.4989 -2.0495
   49DOPE   C24 6231   4.432   1.006   9.151  0.5645  0.3050  0.3442
   49DOPE   H4R 6232   4.355   0.977   9.075  1.3640  1.2800 -0.8823
   49DOPE   H4S 6233   4.511   1.052   9.088  0.7343  1.0253  1.0693
   49DOPE   C25 6234   4.361   1.105   9.248  0.0430  0.3167  0.2522
   49DOPE   H5R 6235   4.299   1.047   9.320  0.5879 -0.5834  0.0204
   49DOPE   H5S 6236   4.306   1.177   9.185  0.9299  1.5092  0.8075
   49DOPE   C26 6237   4.463   1.185   9.329 -0.3993 -0.6439 -0.5060
   49DOPE   H6R 6238   4.537   1.242   9.269  0.7793 -0.3394  1.1852
   49DOPE   H6S 6239   4.517   1.109   9.389  2.1233  0.6004 -1.0376
   49DOPE   C27 6240   4.384   1.278   9.426 -0.2013  0.3445 -0.8124
   49DOPE   H7R 6241   4.353   1.226   9.519  0.1171 -0.9476 -1.4004
   49DOPE   H7S 6242   4.304   1.332   9.371  0.2894  1.2195 -0.6766
   49DOPE   C28 6243   4.478   1.393   9.469  0.4204 -0.2295 -0.0051
   49DOPE   H8R 6244   4.426   1.449   9.550  0.2436 -2.1996  1.3337
   49DOPE   H8S 6245   4.477   1.460   9.381 -1.7590 -1.1553 -0.7702
   49DOPE   C29 6246   4.613   1.350   9.522  0.7082  0.0401 -0.0198
   49DOPE   H9R 6247   4.685   1.303   9.454 -1.4624  1.8676 -3.9909
   49DOPE  C210 6248   4.653   1.380   9.639  0.3390  0.1092  0.4010
   49DOPE  H10R 6249   4.748   1.333   9.668 -0.4302 -1.5967  0.2866
   49DOPE  C211 6250   4.595   1.463   9.750  0.5494  0.8253  0.4136
   49DOPE  H11R 6251   4.584   1.403   9.843  1.0311  0.1861  0.0726
   49DOPE  H11S 6252   4.497   1.501   9.716 -0.1371 -1.6955 -0.6599
   49DOPE  C212 6253   4.696   1.579   9.769 -0.6094  0.2546 -0.0370
   49DOPE  H12R 6254   4.677   1.652   9.687 -1.1777  0.7216  0.5071
   49DOPE  H12S 6255   4.804   1.552   9.764 -0.3250  1.3436  0.0048
   49DOPE  C213 6256   4.684   1.636   9.904 -0.5935  0.3297 -0.8770
   49DOPE  H13R 6257   4.706   1.548   9.968  0.2029 -0.9458 -2.8249
   49DOPE  H13S 6258   4.578   1.667   9.910 -0.4836  0.4675  2.0226
   49DOPE  C214 6259   4.770   1.758   9.919  0.4809  0.1798  0.5798
   49DOPE  H14R 6260   4.701   1.845   9.922  0.6516  0.3631 -0.4143
   49DOPE  H14S 6261   4.817   1.773   9.819  0.8807  1.2709  0.9203
   49DOPE  C215 6262   4.883   1.759  10.018 -0.6408  1.0157 -0.1972
   49DOPE  H15R 6263   4.915   1.865  10.017  0.4940  0.6896 -2.0519
   49DOPE  H15S 6264   4.963   1.688   9.988 -0.6291  0.6972  0.5587
   49DOPE  C216 6265   4.828   1.722  10.153 -0.3396  0.3063 -0.3580
   49DOPE  H16R 6266   4.909   1.722  10.229 -0.4560  0.7943 -0.2264
   49DOPE  H16S 6267   4.789   1.619  10.143 -2.2662  0.9581 -0.0287
   49DOPE  C217 6268   4.715   1.813  10.199 -0.0711 -0.7594 -0.3771
   49DOPE  H17R 6269   4.627   1.800  10.133 -0.8696 -0.4277  0.5974
   49DOPE  H17S 6270   4.743   1.914  10.160  2.0061 -0.7999  0.8629
   49DOPE  C218 6271   4.685   1.821  10.342  0.0316  0.3004 -0.6224
   49DOPE  H18R 6272   4.631   1.914  10.372  1.1998  0.7694  0.0887
   49DOPE  H18S 6273   4.781   1.817  10.398  1.6684  1.0427 -3.1971
   49DOPE  H18T 6274   4.629   1.730  10.371  2.1247 -1.1491 -0.9562
   49DOPE   C33 6275   4.806   0.601   9.719 -0.4693  0.0283 -0.2555
   49DOPE   H3X 6276   4.854   0.502   9.732 -0.5420  0.0047 -0.1632
   49DOPE   H3Y 6277   4.699   0.588   9.748  0.2582  0.6341  3.1362
   49DOPE   C34 6278   4.859   0.688   9.828 -0.5709 -0.2469 -0.2797
   49DOPE   H4X 6279   4.909   0.618   9.897  1.2670  0.9688 -0.3074
   49DOPE   H4Y 6280   4.937   0.758   9.790 -0.0952 -1.3661 -1.4095
   49DOPE   C35 6281   4.756   0.762   9.922  0.7648 -0.4638 -1.0224
   49DOPE   H5X 6282   4.660   0.705   9.916  1.3173 -1.7033  0.9754
   49DOPE   H5Y 6283   4.748   0.867   9.889 -0.9809 -0.1153  0.3489
   49DOPE   C36 6284   4.795   0.770  10.070  0.1021 -0.1241 -1.2955
   49DOPE   H6X 6285   4.799   0.665  10.108  0.7801 -0.0559 -1.1594
   49DOPE   H6Y 6286   4.708   0.814  10.124  1.0538 -0.2158  0.4161
   49DOPE   C37 6287   4.919   0.844  10.118 -0.1360 -0.0410 -0.1641
   49DOPE   H7X 6288   5.004   0.799  10.062 -1.5391 -2.5925 -0.3854
   49DOPE   H7Y 6289   4.918   0.950  10.083  2.2863  0.1627  0.1905
   49DOPE   C38 6290   4.938   0.846  10.267 -0.5365 -0.0271 -0.6500
   49DOPE   H8X 6291   5.045   0.856  10.296 -1.0508  2.8665  0.6169
   49DOPE   H8Y 6292   4.902   0.750  10.311  1.8555 -0.1988  1.1461
   49DOPE   C39 6293   4.870   0.960  10.339  0.2517 -0.2825 -0.1969
   49DOPE   H9X 6294   4.902   1.060  10.305  0.7422  0.9200  3.4089
   49DOPE  C310 6295   4.759   0.952  10.413 -0.1397  0.0366 -0.3140
   49DOPE  H10X 6296   4.711   1.050  10.430  0.7607  0.3529  0.5226
   49DOPE  C311 6297   4.676   0.836  10.459  0.4206  0.8724  0.1376
   49DOPE  H11X 6298   4.703   0.748  10.398  2.7071  3.0793 -2.3370
   49DOPE  H11Y 6299   4.698   0.829  10.568  1.9566 -0.3319 -0.2227
   49DOPE  C312 6300   4.528   0.855  10.449 -0.0950 -0.5768 -0.4404
   49DOPE  H12X 6301   4.475   0.758  10.439 -0.4123 -0.4054 -0.4155
   49DOPE  H12Y 6302   4.487   0.907  10.360 -1.7015 -1.5266 -0.2964
   49DOPE  C313 6303   4.465   0.923  10.574  0.3742 -0.0279 -0.2871
   49DOPE  H13X 6304   4.496   0.860  10.661  0.9286  0.7874  0.1200
   49DOPE  H13Y 6305   4.510   1.024  10.576 -1.3399  0.7820 -1.3326
   49DOPE  C314 6306   4.308   0.930  10.555 -0.7142  0.5639  0.1481
   49DOPE  H14X 6307   4.273   0.831  10.519  1.1136 -0.7736  1.8637
   49DOPE  H14Y 6308   4.292   0.995  10.466  0.0688  1.4998  0.6627
   49DOPE  C315 6309   4.233   0.973  10.679 -0.2568 -0.5055 -0.2040
   49DOPE  H15X 6310   4.139   1.026  10.651 -0.4661 -1.6788 -1.8365
   49DOPE  H15Y 6311   4.294   1.042  10.742  1.0194 -1.7887  0.0191
   49DOPE  C316 6312   4.201   0.842  10.761 -0.1525 -0.3630 -0.3182
   49DOPE  H16X 6313   4.294   0.794  10.798 -0.7512 -0.4857  1.0941
   49DOPE  H16Y 6314   4.143   0.775  10.693 -3.9546 -0.2300  2.4360
   49DOPE  C317 6315   4.130   0.867  10.892 -0.1171 -0.1453  0.0236
   49DOPE  H17X 6316   4.115   0.773  10.949 -2.4799  0.9077  1.2901
   49DOPE  H17Y 6317   4.205   0.923  10.951 -0.3577  1.1029 -0.8017
   49DOPE  C318 6318   3.987   0.927  10.904 -0.2396 -0.1605 -0.5309
   49DOPE  H18X 6319   3.926   0.872  10.829 -0.8218  0.2138 -0.3378
   49DOPE  H18Y 6320   3.953   0.910  11.008  1.3905  0.7075  0.1831
   49DOPE  H18Z 6321   3.990   1.035  10.877  0.5673  0.0751  0.4292
   50DOPE     N 6322   3.118   4.843   9.332  0.3388 -0.4447  0.3198
   50DOPE   HN1 6323   3.075   4.938   9.339  0.9225 -0.1059 -0.5206
   50DOPE   HN2 6324   3.049   4.795   9.271  0.9807 -0.1858 -0.6298
   50DOPE   HN3 6325   3.113   4.810   9.431  2.7722  0.9568  0.9825
   50DOPE   C12 6326   3.262   4.842   9.284  0.7698  0.0708  0.5155
   50DOPE  H12A 6327   3.254   4.875   9.179 -1.2562  2.0593  1.2208
   50DOPE  H12B 6328   3.297   4.736   9.276  0.7747  0.2305 -2.8211
   50DOPE   C11 6329   3.364   4.933   9.346  0.5384  0.0328  0.4016
   50DOPE  H11A 6330   3.453   4.922   9.281 -0.2042  0.3131 -0.6884
   50DOPE  H11B 6331   3.397   4.901   9.447  0.0434  2.1655  1.3097
   50DOPE     P 6332   3.418   5.177   9.408  0.0297 -0.1541  0.1692
   50DOPE   O13 6333   3.368   5.307   9.375  0.1836 -0.4536  0.1495
   50DOPE   O14 6334   3.554   5.148   9.363  0.1043 -0.6017  0.0125
   50DOPE   O11 6335   3.411   5.138   9.560 -0.5127  0.2939 -0.1203
   50DOPE   O12 6336   3.319   5.071   9.340 -0.0510 -0.1790 -0.1385
   50DOPE    C1 6337   3.300   5.111   9.636 -0.2754  0.4879  0.1550
   50DOPE    HA 6338   3.322   5.115   9.745 -0.2293 -2.4035  0.3227
   50DOPE    HB 6339   3.270   5.007   9.613  1.4002  0.3794 -1.8398
   50DOPE    C2 6340   3.178   5.208   9.608  0.5925  0.3679 -0.1465
   50DOPE    HS 6341   3.157   5.222   9.500 -2.0453  0.3038  0.2879
   50DOPE   O21 6342   3.210   5.332   9.674 -0.2585 -0.1670 -0.0807
   50DOPE   C21 6343   3.135   5.440   9.635 -0.8391 -0.2431  0.1365
   50DOPE   O22 6344   3.040   5.432   9.562  0.4376  0.6330 -0.5057
   50DOPE   C22 6345   3.201   5.570   9.673 -0.2933  0.0624 -0.5865
   50DOPE   H2R 6346   3.158   5.650   9.608 -0.6854  0.4902  0.1907
   50DOPE   H2S 6347   3.311   5.558   9.663 -0.0529  0.3876  1.2642
   50DOPE    C3 6348   3.052   5.143   9.670  0.1326 -0.0997  0.4893
   50DOPE    HX 6349   3.012   5.068   9.599  0.4006 -0.2374  0.4866
   50DOPE    HY 6350   2.973   5.222   9.679  0.8098  0.4780  1.6072
   50DOPE   O31 6351   3.074   5.093   9.802 -0.5011 -0.2611  0.1991
   50DOPE   C31 6352   3.040   5.162   9.907 -0.8806  0.2028  0.8658
   50DOPE   O32 6353   3.000   5.277   9.908  0.0597 -0.1335  0.2068
   50DOPE   C32 6354   3.072   5.084  10.028  0.3977 -0.0728 -0.2699
   50DOPE   H2X 6355   2.988   5.100  10.100 -0.3402 -0.3149 -1.0656
   50DOPE   H2Y 6356   3.075   4.973  10.025 -0.8020 -0.2680  2.2705
   50DOPE   C23 6357   3.161   5.601   9.817  0.1250 -0.4149 -0.3478
   50DOPE   H3R 6358   3.059   5.560   9.837  1.0163 -3.0286 -0.7120
   50DOPE   H3S 6359   3.160   5.711   9.830 -0.1459 -0.3600 -0.7962
   50DOPE   C24 6360   3.258   5.530   9.918 -0.1056  0.0957  0.2246
   50DOPE   H4R 6361   3.363   5.562   9.901  0.4018 -2.5411 -2.4559
   50DOPE   H4S 6362   3.250   5.419   9.908 -2.9084  0.3586 -1.6184
   50DOPE   C25 6363   3.229   5.557  10.062 -0.0600  0.2944 -0.7475
   50DOPE   H5R 6364   3.143   5.495  10.096 -0.6997  1.6872  0.2848
   50DOPE   H5S 6365   3.190   5.661  10.061  0.1056  0.3645 -0.0756
   50DOPE   C26 6366   3.348   5.533  10.151 -0.3150  0.2802  0.3171
   50DOPE   H6R 6367   3.443   5.551  10.095  0.4306 -2.3649  0.5909
   50DOPE   H6S 6368   3.357   5.427  10.181  2.1803 -0.1048 -1.4231
   50DOPE   C27 6369   3.360   5.609  10.278 -1.0870 -1.2185  0.2649
   50DOPE   H7R 6370   3.271   5.594  10.343 -0.7382  0.7837  1.2987
   50DOPE   H7S 6371   3.372   5.718  10.261  0.5858 -1.3442  0.4952
   50DOPE   C28 6372   3.485   5.564  10.360  0.5245 -0.5787 -0.7008
   50DOPE   H8R 6373   3.579   5.575  10.302  1.3875  0.5177  0.8361
   50DOPE   H8S 6374   3.482   5.455  10.377  1.2415 -0.9684 -2.8133
   50DOPE   C29 6375   3.498   5.654  10.480  0.1271 -0.2447  0.3315
   50DOPE   H9R 6376   3.508   5.758  10.445 -0.2107  0.4244  2.1216
   50DOPE  C210 6377   3.463   5.623  10.604 -0.9450 -0.5566 -0.2643
   50DOPE  H10R 6378   3.468   5.706  10.676 -0.7538 -0.1535 -0.7381
   50DOPE  C211 6379   3.421   5.492  10.655  0.5873  0.0788  0.0871
   50DOPE  H11R 6380   3.463   5.408  10.597  1.9719  0.7937  0.0045
   50DOPE  H11S 6381   3.310   5.486  10.660  0.5898  0.5448  1.0583
   50DOPE  C212 6382   3.454   5.472  10.801 -0.4382  0.3075  0.3137
   50DOPE  H12R 6383   3.402   5.374  10.813 -1.6359  0.6893 -1.3414
   50DOPE  H12S 6384   3.406   5.552  10.862  2.1783  0.5079  2.2624
   50DOPE  C213 6385   3.602   5.464  10.817 -0.0275 -0.4867 -0.4253
   50DOPE  H13R 6386   3.643   5.567  10.808 -1.2722  0.2516  1.6161
   50DOPE  H13S 6387   3.649   5.403  10.738  1.7424  0.9491 -0.5496
   50DOPE  C214 6388   3.649   5.408  10.951 -0.7638 -0.1236 -0.7680
   50DOPE  H14R 6389   3.608   5.306  10.972  1.1834 -0.9072 -0.5464
   50DOPE  H14S 6390   3.597   5.470  11.027  0.3827 -0.3320  0.2197
   50DOPE  C215 6391   3.800   5.411  10.987  0.4486  0.1274  0.5757
   50DOPE  H15R 6392   3.845   5.511  10.968  2.7766 -1.2750 -1.9954
   50DOPE  H15S 6393   3.847   5.336  10.921 -1.0312 -0.8621  0.5960
   50DOPE  C216 6394   3.841   5.378  11.134  0.2702  0.2588 -0.1769
   50DOPE  H16R 6395   3.947   5.405  11.150  0.2646 -1.0913  2.7479
   50DOPE  H16S 6396   3.826   5.268  11.142  1.9903 -0.0317 -0.5918
   50DOPE  C217 6397   3.764   5.457  11.249  0.2110  0.5071 -0.1731
   50DOPE  H17R 6398   3.795   5.419  11.349  1.3877  1.0162 -0.3258
   50DOPE  H17S 6399   3.654   5.441  11.243  0.0629  0.2242  2.2253
   50DOPE  C218 6400   3.793   5.609  11.248 -0.0537  0.1847  0.1794
   50DOPE  H18R 6401   3.896   5.625  11.287 -0.3348 -2.6895  2.3843
   50DOPE  H18S 6402   3.726   5.663  11.318 -0.1568  2.6894 -1.6823
   50DOPE  H18T 6403   3.782   5.656  11.148 -0.9430  0.3017  0.3208
   50DOPE   C33 6404   3.195   5.134  10.112 -0.1792  0.4425 -0.3647
   50DOPE   H3X 6405   3.206   5.244  10.107 -1.9958  0.5918 -2.8309
   50DOPE   H3Y 6406   3.289   5.092  10.069 -0.7819 -1.3064 -0.0390
   50DOPE   C34 6407   3.168   5.100  10.260 -0.0779 -0.0211  0.6747
   50DOPE   H4X 6408   3.060   5.115  10.283 -0.1723  0.6319 -0.1399
   50DOPE   H4Y 6409   3.184   4.991  10.274  1.8523  0.1204 -0.1413
   50DOPE   C35 6410   3.261   5.177  10.352 -0.0598 -0.3063 -0.1085
   50DOPE   H5X 6411   3.240   5.286  10.355  1.7328  0.0345  1.6372
   50DOPE   H5Y 6412   3.366   5.178  10.315  0.1142  3.7685  0.0700
   50DOPE   C36 6413   3.251   5.129  10.504 -0.1029  0.7598  0.1923
   50DOPE   H6X 6414   3.325   5.187  10.563  1.0599  0.2305 -0.7049
   50DOPE   H6Y 6415   3.282   5.023  10.515 -0.0517  0.6359 -0.9425
   50DOPE   C37 6416   3.109   5.155  10.549  0.9724 -0.4908 -0.7294
   50DOPE   H7X 6417   3.067   5.247  10.503 -0.2502 -0.2478  0.7765
   50DOPE   H7Y 6418   3.037   5.081  10.508  0.6571  0.1098 -1.2839
   50DOPE   C38 6419   3.106   5.166  10.701  0.3179  0.4015 -0.3615
   50DOPE   H8X 6420   3.156   5.261  10.732  1.3703 -0.3206  0.2238
   50DOPE   H8Y 6421   3.167   5.086  10.747 -0.9725 -0.1139  0.5128
   50DOPE   C39 6422   2.964   5.166  10.753 -0.3670  0.4357 -0.4529
   50DOPE   H9X 6423   2.893   5.104  10.696  0.4985 -0.0795 -0.9922
   50DOPE  C310 6424   2.921   5.240  10.852 -0.0947 -0.6971  0.6793
   50DOPE  H10X 6425   2.824   5.208  10.892  0.2612 -0.5174  1.7144
   50DOPE  C311 6426   2.993   5.349  10.923  0.3565 -0.5385  0.0313
   50DOPE  H11X 6427   3.050   5.403  10.844 -1.9143  0.8643 -0.7338
   50DOPE  H11Y 6428   2.929   5.431  10.962  0.7120 -0.8864  1.3952
   50DOPE  C312 6429   3.091   5.307  11.036 -0.1259  1.0437  0.1713
   50DOPE  H12X 6430   3.154   5.232  10.982 -2.0238 -0.8469  0.4287
   50DOPE  H12Y 6431   3.048   5.253  11.123  0.0479  2.9926  1.5164
   50DOPE  C313 6432   3.183   5.430  11.082  0.1518 -0.2972 -0.3000
   50DOPE  H13X 6433   3.198   5.485  10.986  2.1357 -0.5462 -0.1784
   50DOPE  H13Y 6434   3.124   5.481  11.162  1.8897 -1.3486  1.7657
   50DOPE  C314 6435   3.318   5.380  11.124 -0.1517 -0.7986 -0.3330
   50DOPE  H14X 6436   3.379   5.463  11.165 -1.0662  0.7498 -1.9719
   50DOPE  H14Y 6437   3.373   5.358  11.030 -1.9783 -1.8947 -1.2107
   50DOPE  C315 6438   3.320   5.268  11.237  0.1716  0.4693  0.1360
   50DOPE  H15X 6439   3.264   5.185  11.188 -0.5014  0.3281  1.1284
   50DOPE  H15Y 6440   3.255   5.301  11.320 -1.6370  0.0190 -1.0589
   50DOPE  C316 6441   3.463   5.217  11.274  0.8868  0.1777  0.4868
   50DOPE  H16X 6442   3.532   5.289  11.323 -0.1361 -0.2936  2.7561
   50DOPE  H16Y 6443   3.504   5.200  11.172  0.7499 -0.4152  0.5258
   50DOPE  C317 6444   3.456   5.083  11.344  0.5597 -0.1454 -0.1904
   50DOPE  H17X 6445   3.352   5.047  11.331  0.7356 -0.8881  0.3976
   50DOPE  H17Y 6446   3.518   5.007  11.292 -4.5442 -3.8381 -1.6241
   50DOPE  C318 6447   3.466   5.096  11.499 -0.0861 -0.5389 -0.0528
   50DOPE  H18X 6448   3.566   5.125  11.538  0.3219 -1.1004 -0.6598
   50DOPE  H18Y 6449   3.388   5.172  11.523  1.8426  1.6761 -0.4564
   50DOPE  H18Z 6450   3.445   4.996  11.543  0.3766 -1.7286 -2.3873
   51DOPE     N 6451   5.168   0.216   8.754 -0.4000 -0.6224 -0.1790
   51DOPE   HN1 6452   5.183   0.120   8.791  1.4464 -0.5665 -0.6751
   51DOPE   HN2 6453   5.087   0.253   8.807 -0.3008 -1.3525  0.4946
   51DOPE   HN3 6454   5.167   0.220   8.650  0.4939 -3.5738 -0.3976
   51DOPE   C12 6455   5.285   0.301   8.804 -0.2236  0.6053  0.7258
   51DOPE  H12A 6456   5.250   0.401   8.836 -1.1575  0.3705  0.4607
   51DOPE  H12B 6457   5.344   0.315   8.711 -0.7069 -1.0878  0.1291
   51DOPE   C11 6458   5.369   0.225   8.912 -0.6303 -0.2364  0.8784
   51DOPE  H11A 6459   5.297   0.219   8.997  0.4936  0.4937  1.9225
   51DOPE  H11B 6460   5.455   0.291   8.934 -0.0105 -1.1130  1.1312
   51DOPE     P 6461   5.462  -0.000   8.980  0.3885  0.0832  0.2984
   51DOPE   O13 6462   5.523  -0.107   8.904  0.3184 -0.4295 -0.3410
   51DOPE   O14 6463   5.343  -0.029   9.067  0.6155 -0.5355  0.6056
   51DOPE   O11 6464   5.560   0.084   9.071 -0.4169 -0.4612  0.1644
   51DOPE   O12 6465   5.412   0.096   8.869 -0.2672 -0.0535  0.2481
   51DOPE    C1 6466   5.672   0.152   9.019 -0.5491  0.1731  0.2035
   51DOPE    HA 6467   5.652   0.223   8.935 -0.3265  0.1865  0.1626
   51DOPE    HB 6468   5.748   0.082   8.977  0.0061  0.0038  1.4591
   51DOPE    C2 6469   5.746   0.230   9.132  0.2687 -0.0263 -0.4667
   51DOPE    HS 6470   5.841   0.273   9.095 -0.5440  1.2708 -1.1194
   51DOPE   O21 6471   5.768   0.140   9.247  0.6083  0.1856 -0.0775
   51DOPE   C21 6472   5.865   0.049   9.231  0.9473 -0.1100 -0.0489
   51DOPE   O22 6473   5.950   0.046   9.141  0.6852 -0.3534 -0.5600
   51DOPE   C22 6474   5.875  -0.029   9.357  0.9131  0.2522  0.0626
   51DOPE   H2R 6475   5.773  -0.070   9.374  0.6725  1.1985  0.9966
   51DOPE   H2S 6476   5.888   0.035   9.447 -0.8439  1.8078 -0.7215
   51DOPE    C3 6477   5.656   0.354   9.171 -0.0351  0.0172 -0.0961
   51DOPE    HX 6478   5.555   0.327   9.208 -0.3681  0.3951 -0.7306
   51DOPE    HY 6479   5.644   0.405   9.073  1.6687 -0.8661 -0.8304
   51DOPE   O31 6480   5.728   0.442   9.256 -0.4641  0.2140 -0.0833
   51DOPE   C31 6481   5.729   0.407   9.382 -0.9362 -0.4654  0.3573
   51DOPE   O32 6482   5.671   0.308   9.430 -0.5912 -0.3685 -0.1057
   51DOPE   C32 6483   5.804   0.510   9.467 -0.4353 -0.1738  0.0018
   51DOPE   H2X 6484   5.906   0.522   9.423 -0.7838  4.3557 -0.0125
   51DOPE   H2Y 6485   5.768   0.613   9.447  1.8476  0.9653  1.3282
   51DOPE   C23 6486   5.981  -0.133   9.356 -0.0243 -0.4985  0.1510
   51DOPE   H3R 6487   6.082  -0.101   9.325  0.5401 -2.8866 -0.6513
   51DOPE   H3S 6488   5.956  -0.203   9.274 -0.5418 -0.2912  0.1241
   51DOPE   C24 6489   5.979  -0.219   9.487  0.3117  0.3228 -0.0301
   51DOPE   H4R 6490   6.027  -0.314   9.455  0.9645  0.9465 -0.9662
   51DOPE   H4S 6491   5.877  -0.247   9.521  1.0483  1.6274  3.6898
   51DOPE   C25 6492   6.045  -0.154   9.610  0.1658 -0.6808  0.3452
   51DOPE   H5R 6493   6.002  -0.056   9.639 -0.3653 -0.0133 -2.3861
   51DOPE   H5S 6494   6.148  -0.124   9.581 -0.0083  0.2121  0.6262
   51DOPE   C26 6495   6.050  -0.249   9.733  0.0840 -0.0896 -0.4011
   51DOPE   H6R 6496   6.122  -0.209   9.808 -0.2908 -0.4255  0.1438
   51DOPE   H6S 6497   6.081  -0.352   9.706 -2.0422 -0.8003 -0.2671
   51DOPE   C27 6498   5.918  -0.261   9.812 -0.2245  0.5123 -0.0904
   51DOPE   H7R 6499   5.837  -0.298   9.745  0.2464 -0.1981 -0.2791
   51DOPE   H7S 6500   5.898  -0.153   9.829 -0.9044  0.2756  0.6620
   51DOPE   C28 6501   5.922  -0.345   9.939 -0.2745  0.0056  0.0531
   51DOPE   H8R 6502   5.942  -0.449   9.907 -1.6971  0.3258 -2.1032
   51DOPE   H8S 6503   5.821  -0.339   9.986  0.5563 -0.5202  2.0205
   51DOPE   C29 6504   6.032  -0.302  10.037 -0.5579 -0.2429  0.4776
   51DOPE   H9R 6505   6.133  -0.340  10.017 -0.2696  1.0545 -0.6551
   51DOPE  C210 6506   6.018  -0.227  10.149 -0.4080 -0.0041 -0.7006
   51DOPE  H10R 6507   6.105  -0.208  10.213 -0.1251 -1.1154 -0.7433
   51DOPE  C211 6508   5.889  -0.173  10.199 -0.0152 -1.2201 -0.2149
   51DOPE  H11R 6509   5.799  -0.218  10.151 -0.7477 -0.7210  0.6598
   51DOPE  H11S 6510   5.874  -0.067  10.167 -1.2230 -1.4312 -0.4138
   51DOPE  C212 6511   5.879  -0.184  10.349  0.4640  0.2605 -0.1502
   51DOPE  H12R 6512   5.902  -0.291  10.368  1.0469  0.4270  0.1151
   51DOPE  H12S 6513   5.772  -0.161  10.369  0.6546  1.3201 -0.2969
   51DOPE  C213 6514   5.980  -0.104  10.429  0.3164  0.7270  0.0171
   51DOPE  H13R 6515   5.979   0.001  10.394 -1.3824  0.2739 -1.3837
   51DOPE  H13S 6516   6.085  -0.133  10.407  1.4597  3.0605  1.8615
   51DOPE  C214 6517   5.945  -0.118  10.570 -0.0793  0.0726  0.0254
   51DOPE  H14R 6518   5.916  -0.221  10.602 -0.4217  0.3136  0.4948
   51DOPE  H14S 6519   5.851  -0.063  10.592  1.0842  1.5874  1.4687
   51DOPE  C215 6520   6.051  -0.082  10.672 -0.1703 -0.3367 -0.1643
   51DOPE  H15R 6521   6.131  -0.158  10.681 -0.0603 -0.2560 -0.4439
   51DOPE  H15S 6522   5.998  -0.078  10.769 -0.8339  0.7621 -0.5545
   51DOPE  C216 6523   6.112   0.051  10.635  0.6366 -0.7352  0.1569
   51DOPE  H16R 6524   6.032   0.123  10.607  0.2225 -2.3021 -3.1224
   51DOPE  H16S 6525   6.159   0.043  10.535 -1.7665  0.6405 -1.1621
   51DOPE  C217 6526   6.211   0.104  10.742 -0.2338 -0.1126  0.0179
   51DOPE  H17R 6527   6.251   0.202  10.707 -1.6315  0.2083 -0.7738
   51DOPE  H17S 6528   6.298   0.035  10.731  0.0381 -0.0057  1.3531
   51DOPE  C218 6529   6.159   0.122  10.888 -0.8382  0.8388  0.3598
   51DOPE  H18R 6530   6.069   0.186  10.879 -0.4419  1.2370 -0.9362
   51DOPE  H18S 6531   6.236   0.155  10.961 -0.9028  0.9435  0.3805
   51DOPE  H18T 6532   6.113   0.024  10.914  0.7563  0.2213  1.0121
   51DOPE   C33 6533   5.815   0.476   9.618 -0.5982  0.3568 -0.3906
   51DOPE   H3X 6534   5.910   0.423   9.638 -0.0261  0.1847 -3.1186
   51DOPE   H3Y 6535   5.735   0.410   9.658  0.3944 -0.8734 -0.3829
   51DOPE   C34 6536   5.817   0.608   9.709 -0.0585 -0.2105  0.4258
   51DOPE   H4X 6537   5.905   0.670   9.683 -0.4375 -0.0708 -0.5707
   51DOPE   H4Y 6538   5.725   0.669   9.693 -0.2280 -0.5356  0.1592
   51DOPE   C35 6539   5.816   0.579   9.859  0.4111  0.3549 -0.0669
   51DOPE   H5X 6540   5.878   0.488   9.876  0.9886  0.1528 -2.7585
   51DOPE   H5Y 6541   5.709   0.577   9.886  0.9337  0.7547  2.2069
   51DOPE   C36 6542   5.883   0.695   9.934  0.5862  0.4293 -0.3662
   51DOPE   H6X 6543   5.832   0.794   9.921  0.0860 -0.0207 -2.1373
   51DOPE   H6Y 6544   5.987   0.721   9.906  1.7224 -0.4332  2.6698
   51DOPE   C37 6545   5.883   0.670  10.085  0.5463  0.0070 -0.3276
   51DOPE   H7X 6546   5.780   0.660  10.124  1.2049  0.4010  1.6230
   51DOPE   H7Y 6547   5.947   0.580  10.103 -1.9417 -2.2684 -2.0549
   51DOPE   C38 6548   5.939   0.785  10.169  0.0613 -0.2798  0.8735
   51DOPE   H8X 6549   5.871   0.872  10.154 -0.1888 -0.6432 -0.1717
   51DOPE   H8Y 6550   6.040   0.810  10.130  0.3333 -3.5111 -0.9235
   51DOPE   C39 6551   5.935   0.749  10.311 -0.8179 -0.6825 -1.0181
   51DOPE   H9X 6552   5.848   0.750  10.377  0.4862  1.2658  0.7981
   51DOPE  C310 6553   6.046   0.719  10.386 -0.2173 -0.5788  0.4697
   51DOPE  H10X 6554   6.036   0.698  10.494  0.6313  2.1196  1.1323
   51DOPE  C311 6555   6.193   0.713  10.336 -0.0932 -0.0896  0.0747
   51DOPE  H11X 6556   6.229   0.608  10.337 -0.5029 -0.2360 -0.1431
   51DOPE  H11Y 6557   6.203   0.726  10.227  0.3686 -1.6680 -0.0845
   51DOPE  C312 6558   6.292   0.807  10.411  0.3668 -0.1922  0.5277
   51DOPE  H12X 6559   6.250   0.909  10.394 -2.2866 -1.1557  0.8310
   51DOPE  H12Y 6560   6.388   0.806  10.356 -0.0792 -1.3542 -0.2715
   51DOPE  C313 6561   6.299   0.777  10.560 -0.2160 -0.1067  0.1630
   51DOPE  H13X 6562   6.204   0.809  10.607  0.2241 -0.1717  1.1285
   51DOPE  H13Y 6563   6.311   0.666  10.568  0.1813 -0.1724 -1.1580
   51DOPE  C314 6564   6.420   0.850  10.631 -0.2758  0.4113 -0.5040
   51DOPE  H14X 6565   6.409   0.824  10.739  0.4027  0.7721 -0.3388
   51DOPE  H14Y 6566   6.411   0.960  10.616 -1.3041  0.1948 -1.6915
   51DOPE  C315 6567   6.560   0.815  10.587 -0.1272 -0.3535  0.1464
   51DOPE  H15X 6568   6.567   0.853  10.483  0.6458  1.0211  0.6735
   51DOPE  H15Y 6569   6.579   0.705  10.589  3.3702  0.0524 -2.1545
   51DOPE  C316 6570   6.678   0.876  10.666 -0.6041 -0.2768 -0.1779
   51DOPE  H16X 6571   6.676   0.821  10.762 -0.7132 -1.6255 -0.9263
   51DOPE  H16Y 6572   6.664   0.981  10.700 -2.2285  0.0269 -1.6418
   51DOPE  C317 6573   6.823   0.858  10.620  0.8218 -0.6229 -0.5316
   51DOPE  H17X 6574   6.831   0.752  10.587 -1.5917 -1.4209  1.1927
   51DOPE  H17Y 6575   6.838   0.926  10.533  1.0435 -0.2434 -0.2034
   51DOPE  C318 6576   6.940   0.896  10.712 -0.0114  0.1694 -0.0371
   51DOPE  H18X 6577   6.926   1.002  10.744 -1.7047  0.5042 -1.6701
   51DOPE  H18Y 6578   6.928   0.835  10.804  0.4753  0.0615 -0.0417
   51DOPE  H18Z 6579   7.039   0.889  10.662  0.0894  0.5864  0.0953
   52DOPE     N 6580   3.499   5.854   8.716  0.2309 -0.6328  0.3466
   52DOPE   HN1 6581   3.554   5.769   8.736 -0.5782 -0.4956  3.7887
   52DOPE   HN2 6582   3.444   5.845   8.628  0.6804 -1.1102  0.1081
   52DOPE   HN3 6583   3.562   5.936   8.704  0.4715 -0.9649 -0.7456
   52DOPE   C12 6584   3.413   5.874   8.837 -0.7227 -0.7286  0.0064
   52DOPE  H12A 6585   3.326   5.807   8.844 -2.5674  1.5945  0.5815
   52DOPE  H12B 6586   3.364   5.974   8.832  0.4834  0.0198  1.9063
   52DOPE   C11 6587   3.496   5.855   8.964  0.0415  0.4153 -0.5163
   52DOPE  H11A 6588   3.422   5.863   9.046  0.6258  0.9837 -0.0346
   52DOPE  H11B 6589   3.571   5.934   8.988  1.1388 -1.1320  1.4602
   52DOPE     P 6590   3.492   5.600   9.036  0.1978 -0.0344  0.0976
   52DOPE   O13 6591   3.585   5.489   9.013  0.1775 -0.0166 -0.3595
   52DOPE   O14 6592   3.354   5.587   8.990 -0.4989  0.4427  0.2884
   52DOPE   O11 6593   3.498   5.636   9.189  0.0175  0.3481 -0.1482
   52DOPE   O12 6594   3.557   5.727   8.968  0.0907 -0.6941  0.0911
   52DOPE    C1 6595   3.620   5.680   9.257  0.1557 -0.2362 -0.1755
   52DOPE    HA 6596   3.600   5.762   9.329  1.6549  0.1356 -0.1408
   52DOPE    HB 6597   3.691   5.728   9.186  0.0228  0.7208  0.3214
   52DOPE    C2 6598   3.692   5.575   9.337 -0.5743 -0.0462  0.4604
   52DOPE    HS 6599   3.725   5.488   9.278  0.3497  2.4950 -3.1124
   52DOPE   O21 6600   3.609   5.527   9.441 -0.0984 -0.3366  0.4727
   52DOPE   C21 6601   3.653   5.433   9.521 -1.3384  0.2647 -0.3008
   52DOPE   O22 6602   3.760   5.370   9.511  0.2333  0.4551  0.1837
   52DOPE   C22 6603   3.569   5.429   9.643 -0.0707  0.6681  0.0627
   52DOPE   H2R 6604   3.471   5.383   9.619  0.1371 -0.3436  1.0789
   52DOPE   H2S 6605   3.561   5.528   9.691  0.5556  2.1815 -2.7138
   52DOPE    C3 6606   3.812   5.640   9.412  0.0456 -0.2844  0.1027
   52DOPE    HX 6607   3.876   5.687   9.334 -0.5159 -1.6555 -1.2345
   52DOPE    HY 6608   3.877   5.565   9.460 -1.0180 -2.0098 -1.0273
   52DOPE   O31 6609   3.768   5.748   9.507  0.2526  0.0923 -0.1403
   52DOPE   C31 6610   3.863   5.802   9.586  0.3068 -0.4594 -0.2578
   52DOPE   O32 6611   3.980   5.769   9.585 -0.3390  0.6223  0.1849
   52DOPE   C32 6612   3.804   5.911   9.675  0.1570  0.2648 -0.6138
   52DOPE   H2X 6613   3.744   5.986   9.620 -1.1319 -0.7247 -0.6099
   52DOPE   H2Y 6614   3.739   5.864   9.752  1.2568  0.3548  0.3937
   52DOPE   C23 6615   3.635   5.331   9.749 -0.6876 -0.6081  0.2479
   52DOPE   H3R 6616   3.732   5.380   9.772  0.1785 -0.4941 -3.1437
   52DOPE   H3S 6617   3.669   5.231   9.712  0.9698 -0.3444  0.9771
   52DOPE   C24 6618   3.551   5.295   9.874 -0.0635  0.4126 -0.3264
   52DOPE   H4R 6619   3.471   5.224   9.848 -0.2698  1.0613 -1.5115
   52DOPE   H4S 6620   3.497   5.383   9.916 -1.4156 -0.7634  0.4754
   52DOPE   C25 6621   3.647   5.235   9.988 -0.4176  0.1511  0.2918
   52DOPE   H5R 6622   3.730   5.308   9.994 -1.6170  1.8863 -2.2181
   52DOPE   H5S 6623   3.676   5.137   9.943  0.5392 -0.5280  2.3006
   52DOPE   C26 6624   3.584   5.225  10.124  0.0700 -0.3278  0.1192
   52DOPE   H6R 6625   3.497   5.155  10.119  0.5158 -0.9339  0.6283
   52DOPE   H6S 6626   3.549   5.324  10.161 -0.0938  0.2432 -1.5012
   52DOPE   C27 6627   3.690   5.163  10.221  0.2333 -0.4906 -0.8634
   52DOPE   H7R 6628   3.781   5.226  10.209  0.4205 -0.7059 -0.5905
   52DOPE   H7S 6629   3.713   5.058  10.194 -1.9219 -0.7315 -1.9504
   52DOPE   C28 6630   3.647   5.163  10.374 -0.0633 -0.0335 -0.8053
   52DOPE   H8R 6631   3.564   5.090  10.385 -0.1274  0.1905  0.3633
   52DOPE   H8S 6632   3.617   5.266  10.404 -0.2099 -0.3479  0.1696
   52DOPE   C29 6633   3.755   5.123  10.473 -0.5758  0.2378 -0.0788
   52DOPE   H9R 6634   3.838   5.196  10.476  0.1764 -0.6200  1.4263
   52DOPE  C210 6635   3.744   5.037  10.579 -0.1827  0.1571 -0.2229
   52DOPE  H10R 6636   3.822   5.038  10.657  0.7540  0.3969 -1.1292
   52DOPE  C211 6637   3.627   4.941  10.607  0.8576  0.3135  0.7592
   52DOPE  H11R 6638   3.673   4.854  10.658  2.5007  0.1971 -0.8410
   52DOPE  H11S 6639   3.586   4.894  10.515  0.6663  2.5338 -0.3610
   52DOPE  C212 6640   3.514   5.008  10.678 -0.1470 -0.0322 -0.2044
   52DOPE  H12R 6641   3.414   4.960  10.676  0.1230 -0.6650  0.9787
   52DOPE  H12S 6642   3.502   5.108  10.631 -0.3003  0.9995  1.9210
   52DOPE  C213 6643   3.555   5.032  10.828 -0.0255  0.6682 -0.0419
   52DOPE  H13R 6644   3.545   5.140  10.853 -0.7985  0.0945  2.3518
   52DOPE  H13S 6645   3.657   4.989  10.834 -1.3130 -3.4039 -2.7821
   52DOPE  C214 6646   3.468   4.955  10.926 -0.1281 -0.4509 -0.2612
   52DOPE  H14R 6647   3.365   4.983  10.896 -0.0438  0.9281  0.6233
   52DOPE  H14S 6648   3.487   4.991  11.029  0.7006  0.2509 -0.6422
   52DOPE  C215 6649   3.467   4.800  10.911  0.0250 -0.2028 -0.3437
   52DOPE  H15R 6650   3.568   4.754  10.910  0.7860  1.0679  3.3609
   52DOPE  H15S 6651   3.413   4.774  10.817 -1.2872  0.4094  0.2220
   52DOPE  C216 6652   3.408   4.724  11.032 -0.5389 -0.2281  0.0478
   52DOPE  H16R 6653   3.451   4.763  11.127  0.9287  0.5498 -0.8820
   52DOPE  H16S 6654   3.422   4.614  11.022  0.9505 -0.2336  1.6890
   52DOPE  C217 6655   3.258   4.736  11.045  0.0378  0.0310  0.1951
   52DOPE  H17R 6656   3.214   4.693  10.953  0.3041  2.5719 -1.2193
   52DOPE  H17S 6657   3.227   4.843  11.038  2.1876  0.7429  0.7990
   52DOPE  C218 6658   3.204   4.663  11.171 -0.1384  0.3056  0.5000
   52DOPE  H18R 6659   3.097   4.692  11.170  0.3818  2.4760 -0.2814
   52DOPE  H18S 6660   3.220   4.553  11.171 -0.9198  0.1565 -1.2372
   52DOPE  H18T 6661   3.255   4.702  11.261 -0.2340  2.1660 -0.1980
   52DOPE   C33 6662   3.913   6.001   9.746 -0.0987  0.0878 -0.3315
   52DOPE   H3X 6663   3.864   6.099   9.768 -1.2089 -0.5452  0.1029
   52DOPE   H3Y 6664   3.993   6.038   9.679  0.2508 -0.5472 -0.2670
   52DOPE   C34 6665   3.977   5.951   9.872  0.0456  0.4812 -0.1180
   52DOPE   H4X 6666   3.919   5.865   9.910 -0.1714  0.5928 -0.1941
   52DOPE   H4Y 6667   4.076   5.902   9.859  0.1920  1.2412 -2.3485
   52DOPE   C35 6668   3.999   6.069   9.970  0.0505 -0.4583  0.1617
   52DOPE   H5X 6669   3.899   6.098  10.008  0.2023  1.5295 -0.8439
   52DOPE   H5Y 6670   4.037   6.160   9.918 -0.4176 -0.2647  0.1500
   52DOPE   C36 6671   4.098   6.030  10.080  0.3177 -0.0927  0.0502
   52DOPE   H6X 6672   4.188   5.993  10.026  0.7271  0.6255  0.2168
   52DOPE   H6Y 6673   4.047   5.950  10.137 -0.2893 -0.0097 -0.3657
   52DOPE   C37 6674   4.123   6.153  10.171 -0.1847  0.5366  0.5038
   52DOPE   H7X 6675   4.140   6.247  10.113 -1.4924 -0.3497 -1.4201
   52DOPE   H7Y 6676   4.026   6.182  10.216 -1.6417 -0.9406 -1.4979
   52DOPE   C38 6677   4.243   6.147  10.272 -0.1420 -0.2461 -0.1824
   52DOPE   H8X 6678   4.249   6.241  10.331 -1.4006 -0.9244  1.0985
   52DOPE   H8Y 6679   4.339   6.135  10.218 -0.5573 -1.6122 -0.6843
   52DOPE   C39 6680   4.223   6.035  10.366  0.1571  0.6262 -0.4650
   52DOPE   H9X 6681   4.222   5.943  10.306  2.5903 -0.7685  1.4643
   52DOPE  C310 6682   4.202   6.037  10.501 -0.8043 -0.1920  0.1553
   52DOPE  H10X 6683   4.211   5.942  10.555  0.8445 -0.6148 -0.7887
   52DOPE  C311 6684   4.202   6.160  10.590 -0.6934  0.0713  0.2006
   52DOPE  H11X 6685   4.143   6.244  10.545  0.0608  0.6368  0.2448
   52DOPE  H11Y 6686   4.149   6.132  10.683 -1.4512  1.1875  0.1305
   52DOPE  C312 6687   4.341   6.216  10.617  0.2625 -0.5332  0.9600
   52DOPE  H12X 6688   4.378   6.256  10.521 -1.4804 -0.8895  0.1100
   52DOPE  H12Y 6689   4.416   6.140  10.651  1.8446 -0.6041 -2.2846
   52DOPE  C313 6690   4.326   6.325  10.720 -0.8301 -0.1348  0.8663
   52DOPE  H13X 6691   4.387   6.415  10.695  1.8834 -2.0043  0.3277
   52DOPE  H13Y 6692   4.220   6.354  10.707 -0.8611 -1.1034 -1.7192
   52DOPE  C314 6693   4.342   6.255  10.861 -0.1900  0.0481  0.1054
   52DOPE  H14X 6694   4.443   6.212  10.878 -0.2391 -1.3260 -2.5106
   52DOPE  H14Y 6695   4.287   6.158  10.858  0.7208 -0.5321  1.4644
   52DOPE  C315 6696   4.286   6.338  10.979  0.1813  0.6761  0.2024
   52DOPE  H15X 6697   4.222   6.272  11.041  0.8437  0.8380  1.0729
   52DOPE  H15Y 6698   4.222   6.421  10.942  0.1165  1.8475  2.7568
   52DOPE  C316 6699   4.391   6.399  11.070 -0.1205 -0.3953  0.8012
   52DOPE  H16X 6700   4.449   6.477  11.016 -2.0404  1.2183  0.9481
   52DOPE  H16Y 6701   4.446   6.307  11.101 -2.2527 -1.8745  0.3452
   52DOPE  C317 6702   4.332   6.467  11.190  0.5718 -0.3510 -0.6183
   52DOPE  H17X 6703   4.276   6.557  11.157 -2.5831 -0.9209  2.5878
   52DOPE  H17Y 6704   4.268   6.392  11.241 -0.1196 -0.1720 -1.2028
   52DOPE  C318 6705   4.441   6.508  11.291  0.4675  0.1822  0.1832
   52DOPE  H18X 6706   4.393   6.533  11.388  2.5535 -1.2121  1.6510
   52DOPE  H18Y 6707   4.520   6.430  11.299  2.2962  1.6598 -2.0802
   52DOPE  H18Z 6708   4.489   6.602  11.258 -1.3718  0.3389 -2.3960
   53DOPE     N 6709   1.469   1.168   8.787  0.2962 -0.3087 -0.0147
   53DOPE   HN1 6710   1.497   1.108   8.707 -0.5581  0.3992 -0.8604
   53DOPE   HN2 6711   1.467   1.258   8.735 -0.0234 -1.2443 -1.6861
   53DOPE   HN3 6712   1.550   1.168   8.852  0.4740 -1.6154 -0.2106
   53DOPE   C12 6713   1.338   1.122   8.840 -0.5423  0.4376 -0.0205
   53DOPE  H12A 6714   1.271   1.109   8.752 -0.7317  2.3646 -0.2031
   53DOPE  H12B 6715   1.297   1.209   8.897  2.2264  2.0647 -0.3128
   53DOPE   C11 6716   1.349   0.985   8.910  0.0394  0.1878 -0.0626
   53DOPE  H11A 6717   1.244   0.953   8.930  0.4018 -1.1374 -0.2004
   53DOPE  H11B 6718   1.398   0.999   9.008  0.7479 -1.2819 -0.1729
   53DOPE     P 6719   1.412   0.742   8.853  0.0552  0.1331 -0.5134
   53DOPE   O13 6720   1.498   0.680   8.751  0.5480  0.1362 -0.4859
   53DOPE   O14 6721   1.270   0.700   8.860  0.6951  1.3324  0.0929
   53DOPE   O11 6722   1.470   0.736   9.002 -0.3787  0.1581 -0.4745
   53DOPE   O12 6723   1.425   0.896   8.823  0.0515 -0.2957 -0.2848
   53DOPE    C1 6724   1.608   0.769   9.032 -0.8570 -0.0986  0.3739
   53DOPE    HA 6725   1.637   0.870   8.996 -3.7078  0.0456 -1.9119
   53DOPE    HB 6726   1.673   0.699   8.976 -0.9868  2.0313 -2.7106
   53DOPE    C2 6727   1.644   0.755   9.182  0.7463  0.5124 -0.1647
   53DOPE    HS 6728   1.665   0.650   9.212  0.3794  0.9432  1.7657
   53DOPE   O21 6729   1.532   0.813   9.250  0.8153  0.1076  0.5829
   53DOPE   C21 6730   1.429   0.725   9.281 -0.1730  0.2299  0.7203
   53DOPE   O22 6731   1.433   0.603   9.266 -0.4941 -0.0829 -0.2884
   53DOPE   C22 6732   1.305   0.801   9.326 -0.3778  0.0055  0.0925
   53DOPE   H2R 6733   1.257   0.861   9.246 -1.9136 -0.4696  0.6231
   53DOPE   H2S 6734   1.321   0.874   9.409 -0.9402 -0.4166  0.5783
   53DOPE    C3 6735   1.771   0.838   9.219 -0.2616  0.1013  0.0037
   53DOPE    HX 6736   1.769   0.941   9.175  1.0292 -0.1382 -0.6742
   53DOPE    HY 6737   1.856   0.795   9.161 -1.7203 -1.9282 -0.7297
   53DOPE   O31 6738   1.799   0.845   9.357  0.2863 -0.2196 -0.0860
   53DOPE   C31 6739   1.821   0.734   9.427  0.6529  0.4188 -0.5248
   53DOPE   O32 6740   1.858   0.625   9.387 -0.2170 -0.0033  0.2354
   53DOPE   C32 6741   1.800   0.767   9.578  0.8394 -0.5328 -0.4153
   53DOPE   H2X 6742   1.775   0.874   9.594  2.3785 -0.2689  0.4228
   53DOPE   H2Y 6743   1.721   0.697   9.613  1.6408 -0.6600  1.2732
   53DOPE   C23 6744   1.200   0.704   9.382 -0.3030  0.2113 -0.1930
   53DOPE   H3R 6745   1.182   0.623   9.308 -1.8020  1.8068 -1.6413
   53DOPE   H3S 6746   1.106   0.764   9.387 -1.6395 -1.3432 -3.4917
   53DOPE   C24 6747   1.228   0.641   9.523 -0.1544  0.4052  0.0033
   53DOPE   H4R 6748   1.253   0.535   9.501 -1.5814 -0.1545  0.9091
   53DOPE   H4S 6749   1.139   0.647   9.589 -0.6956  0.1094 -0.6801
   53DOPE   C25 6750   1.342   0.693   9.609 -0.5640 -0.1955 -0.2163
   53DOPE   H5R 6751   1.335   0.802   9.630  1.5236 -0.3189  1.4447
   53DOPE   H5S 6752   1.439   0.658   9.569 -0.5101  0.6329 -0.8382
   53DOPE   C26 6753   1.337   0.629   9.749  0.4802  0.3224 -0.0023
   53DOPE   H6R 6754   1.361   0.522   9.732  0.5626  0.2588  0.4866
   53DOPE   H6S 6755   1.234   0.630   9.791 -0.1791  1.1991 -1.5823
   53DOPE   C27 6756   1.429   0.691   9.849 -0.7686 -1.1243 -0.2759
   53DOPE   H7R 6757   1.392   0.795   9.860 -0.4490 -1.2022  1.8857
   53DOPE   H7S 6758   1.527   0.710   9.800 -0.9633  0.0303 -0.2480
   53DOPE   C28 6759   1.440   0.608   9.983 -0.8437  0.2632  0.0845
   53DOPE   H8R 6760   1.342   0.576  10.024 -0.7461  0.8215  0.7539
   53DOPE   H8S 6761   1.487   0.675  10.058 -0.9654  1.5129 -0.9212
   53DOPE   C29 6762   1.525   0.481   9.965 -0.0019  0.1349  0.1724
   53DOPE   H9R 6763   1.558   0.466   9.860 -1.0838 -0.4444 -0.1024
   53DOPE  C210 6764   1.569   0.398  10.057 -0.4085 -0.1079 -0.0065
   53DOPE  H10R 6765   1.648   0.325  10.036  1.5446  0.9175  3.0956
   53DOPE  C211 6766   1.534   0.405  10.201  0.1071 -0.7598 -0.1375
   53DOPE  H11R 6767   1.458   0.327  10.221 -0.0036 -1.6418 -3.4102
   53DOPE  H11S 6768   1.502   0.507  10.230  0.5567 -0.4510 -0.7128
   53DOPE  C212 6769   1.656   0.382  10.299  0.3588  0.0069 -0.5308
   53DOPE  H12R 6770   1.701   0.282  10.279 -1.5551 -1.2363  0.9270
   53DOPE  H12S 6771   1.621   0.373  10.404  0.4816  0.6976 -0.4236
   53DOPE  C213 6772   1.764   0.498  10.315 -0.1352  0.6994  0.0105
   53DOPE  H13R 6773   1.802   0.512  10.211 -0.0598 -1.0911 -0.2401
   53DOPE  H13S 6774   1.854   0.461  10.370  0.1622  1.8654  0.3255
   53DOPE  C214 6775   1.724   0.628  10.383  0.0762 -0.1860  0.0586
   53DOPE  H14R 6776   1.636   0.669  10.330 -0.7199 -1.2580  0.5341
   53DOPE  H14S 6777   1.803   0.706  10.371 -1.7598  1.5903 -1.2118
   53DOPE  C215 6778   1.687   0.612  10.529  0.6915  0.4731 -0.7268
   53DOPE  H15R 6779   1.764   0.548  10.576  0.9308 -0.3418 -2.1960
   53DOPE  H15S 6780   1.589   0.564  10.550  1.7317 -1.2857  0.3746
   53DOPE  C216 6781   1.687   0.750  10.601  0.4830 -0.1454  0.4473
   53DOPE  H16R 6782   1.789   0.793  10.600  1.6341 -2.6270  1.1395
   53DOPE  H16S 6783   1.647   0.748  10.705  1.6752  0.4192  0.9373
   53DOPE  C217 6784   1.579   0.849  10.541  0.3443 -0.0219 -0.2391
   53DOPE  H17R 6785   1.605   0.877  10.437  0.7315  0.7101  0.0468
   53DOPE  H17S 6786   1.591   0.938  10.607  2.2224 -1.3856  1.3903
   53DOPE  C218 6787   1.436   0.812  10.564 -0.4710 -0.1043  0.1856
   53DOPE  H18R 6788   1.415   0.795  10.672  1.0761  2.2126  0.9353
   53DOPE  H18S 6789   1.420   0.721  10.503 -1.1524  0.2776 -0.2167
   53DOPE  H18T 6790   1.370   0.894  10.527 -1.6434 -0.1646  1.9667
   53DOPE   C33 6791   1.915   0.708   9.663 -0.6860  0.0947 -0.5706
   53DOPE   H3X 6792   1.999   0.781   9.656 -0.5948 -0.1032 -1.6432
   53DOPE   H3Y 6793   1.947   0.617   9.609  0.7297  1.0816 -1.4808
   53DOPE   C34 6794   1.886   0.673   9.809  0.0155  0.0730 -0.7639
   53DOPE   H4X 6795   1.794   0.616   9.833 -0.2194 -0.7484 -3.3609
   53DOPE   H4Y 6796   1.971   0.607   9.836  1.9664  3.0097  0.8560
   53DOPE   C35 6797   1.888   0.801   9.897  0.2614 -0.2464 -0.1011
   53DOPE   H5X 6798   1.805   0.866   9.863  0.6769  0.5597  0.3869
   53DOPE   H5Y 6799   1.980   0.858   9.874 -0.2289  1.3367  1.6206
   53DOPE   C36 6800   1.883   0.755  10.042 -0.4152  0.5581  0.0604
   53DOPE   H6X 6801   1.881   0.646  10.063 -1.0301  1.1487  3.8379
   53DOPE   H6Y 6802   1.795   0.797  10.094 -0.6414  0.1131  0.0467
   53DOPE   C37 6803   2.011   0.812  10.110  0.0150  0.4033  0.0977
   53DOPE   H7X 6804   2.092   0.787  10.039  0.6960  2.3579  0.1258
   53DOPE   H7Y 6805   2.007   0.923  10.100  0.1180  0.3714 -0.2755
   53DOPE   C38 6806   2.047   0.775  10.255 -0.0748  0.1855 -0.6315
   53DOPE   H8X 6807   1.970   0.811  10.328 -0.4240  2.6239 -2.0757
   53DOPE   H8Y 6808   2.143   0.827  10.277  0.2398 -0.1172 -1.2660
   53DOPE   C39 6809   2.065   0.628  10.281  0.4891 -0.4797  0.6367
   53DOPE   H9X 6810   2.035   0.560  10.200  0.4568  0.4650 -0.1560
   53DOPE  C310 6811   2.126   0.569  10.382  0.6161 -0.3205 -0.3360
   53DOPE  H10X 6812   2.112   0.459  10.381 -0.6887 -0.1748 -0.0791
   53DOPE  C311 6813   2.163   0.646  10.510  0.7757  0.0033  0.0862
   53DOPE  H11X 6814   2.244   0.582  10.552  0.2690 -1.6165 -1.2851
   53DOPE  H11Y 6815   2.198   0.750  10.491  1.2841  0.1526  1.7321
   53DOPE  C312 6816   2.053   0.649  10.621 -0.3443  0.4692  0.1558
   53DOPE  H12X 6817   2.026   0.541  10.631  1.7324 -0.3069 -1.7108
   53DOPE  H12Y 6818   1.971   0.711  10.580  1.4404  2.7248 -0.1592
   53DOPE  C313 6819   2.093   0.705  10.756 -0.4414  0.4070 -0.5021
   53DOPE  H13X 6820   2.152   0.634  10.818 -1.9567  1.2289  2.0536
   53DOPE  H13Y 6821   2.155   0.795  10.734  0.2722 -0.0191 -0.2753
   53DOPE  C314 6822   1.971   0.759  10.823 -0.2700  0.3906 -0.4638
   53DOPE  H14X 6823   1.892   0.681  10.830  0.1672  0.0675  1.0198
   53DOPE  H14Y 6824   1.941   0.838  10.750  0.3986  0.6284 -0.4872
   53DOPE  C315 6825   2.005   0.812  10.964 -0.5452 -0.3910 -0.1933
   53DOPE  H15X 6826   2.093   0.753  10.996 -0.4290  0.2642  0.7436
   53DOPE  H15Y 6827   1.928   0.809  11.044 -1.3191  4.5819 -0.3951
   53DOPE  C316 6828   2.025   0.965  10.958 -0.2218 -0.3071  0.1512
   53DOPE  H16X 6829   1.925   1.005  10.931  0.2634  0.9832  0.2330
   53DOPE  H16Y 6830   2.090   0.993  10.872 -1.8106 -1.9610 -1.6945
   53DOPE  C317 6831   2.074   1.020  11.095 -0.0322 -0.0236 -0.4864
   53DOPE  H17X 6832   2.000   0.988  11.172  1.6521  0.1546  1.2792
   53DOPE  H17Y 6833   2.170   0.970  11.117 -0.0356  1.0916  2.5326
   53DOPE  C318 6834   2.089   1.171  11.112  0.1060  0.2011  0.0266
   53DOPE  H18X 6835   2.006   1.229  11.066  0.8295  0.7915 -0.5422
   53DOPE  H18Y 6836   2.093   1.203  11.218 -0.9519  0.8480 -0.1162
   53DOPE  H18Z 6837   2.185   1.197  11.063 -0.0207 -1.1344 -1.0071
   54DOPE     N 6838   3.212   5.223   9.125 -0.3114  0.8667  0.0222
   54DOPE   HN1 6839   3.233   5.168   9.211  1.0086 -2.8080 -2.4396
   54DOPE   HN2 6840   3.159   5.159   9.063  1.3971 -1.4487  0.8405
   54DOPE   HN3 6841   3.306   5.227   9.081  0.5278  0.6835  1.7149
   54DOPE   C12 6842   3.154   5.358   9.139 -0.9452  0.0049  0.0315
   54DOPE  H12A 6843   3.104   5.393   9.046 -1.2834  1.5430  0.7622
   54DOPE  H12B 6844   3.230   5.427   9.180 -1.1240  2.2637 -3.1025
   54DOPE   C11 6845   3.042   5.362   9.244 -0.1555  1.0643 -0.3453
   54DOPE  H11A 6846   3.004   5.466   9.256  3.0890  2.2975  0.4078
   54DOPE  H11B 6847   3.093   5.339   9.340  1.3713  1.6049 -0.9898
   54DOPE     P 6848   2.888   5.143   9.279 -0.4089 -0.4294  0.3762
   54DOPE   O13 6849   3.005   5.085   9.344 -0.6767  0.1763 -0.3384
   54DOPE   O14 6850   2.806   5.050   9.197 -0.4544 -0.0748  0.3837
   54DOPE   O11 6851   2.796   5.195   9.399 -0.0154 -0.1103 -0.6386
   54DOPE   O12 6852   2.930   5.275   9.195 -0.4669 -0.8018 -0.2065
   54DOPE    C1 6853   2.700   5.296   9.400  0.8644  0.7709 -0.5961
   54DOPE    HA 6854   2.636   5.285   9.310  1.9798  1.9844 -1.5790
   54DOPE    HB 6855   2.747   5.395   9.384  1.0999  0.5373 -1.4665
   54DOPE    C2 6856   2.609   5.279   9.529 -0.4575 -0.7926 -0.0912
   54DOPE    HS 6857   2.523   5.350   9.521 -0.1365 -0.5616 -1.9840
   54DOPE   O21 6858   2.693   5.311   9.645 -0.6937  0.2566 -0.3745
   54DOPE   C21 6859   2.707   5.442   9.667 -0.1324  0.2497 -0.4861
   54DOPE   O22 6860   2.661   5.530   9.595  0.6717  1.1436  0.4799
   54DOPE   C22 6861   2.774   5.473   9.799 -0.2184 -0.1995  0.3563
   54DOPE   H2R 6862   2.881   5.445   9.794 -0.2547 -0.2388 -0.3221
   54DOPE   H2S 6863   2.727   5.403   9.871  2.9878 -0.6317  2.2317
   54DOPE    C3 6864   2.550   5.142   9.529  0.7438  0.7817 -0.0153
   54DOPE    HX 6865   2.623   5.059   9.531 -1.3446 -1.1852 -1.2587
   54DOPE    HY 6866   2.497   5.125   9.433  0.4003  0.7072  0.1839
   54DOPE   O31 6867   2.453   5.133   9.641  0.1507 -0.1163  0.5004
   54DOPE   C31 6868   2.402   5.011   9.660  0.0880  0.4935 -0.1033
   54DOPE   O32 6869   2.426   4.907   9.600  0.0059 -0.4280 -0.1613
   54DOPE   C32 6870   2.288   5.026   9.758  0.0649  0.2966  0.1878
   54DOPE   H2X 6871   2.311   5.112   9.825  2.0886  1.1776 -1.5207
   54DOPE   H2Y 6872   2.198   5.052   9.698  0.6697 -1.0528 -1.3844
   54DOPE   C23 6873   2.755   5.625   9.839 -0.3050  0.5850  0.1827
   54DOPE   H3R 6874   2.647   5.651   9.840 -0.8756 -1.6000  0.6560
   54DOPE   H3S 6875   2.801   5.689   9.761  0.0412 -1.5464 -1.4632
   54DOPE   C24 6876   2.822   5.663   9.972 -0.2122 -0.2918 -0.3331
   54DOPE   H4R 6877   2.765   5.752  10.009 -1.5804 -1.2526 -0.0374
   54DOPE   H4S 6878   2.930   5.686   9.965  0.0948 -2.0324 -2.2125
   54DOPE   C25 6879   2.806   5.566  10.090  0.0372 -0.4177 -0.0768
   54DOPE   H5R 6880   2.858   5.476  10.051  0.4848  0.0296 -0.5304
   54DOPE   H5S 6881   2.697   5.542  10.089  0.3954 -2.2491  0.5492
   54DOPE   C26 6882   2.858   5.619  10.221  0.1673 -0.7361  0.3340
   54DOPE   H6R 6883   2.792   5.689  10.277  0.0329  0.4051 -1.1860
   54DOPE   H6S 6884   2.942   5.687  10.196 -0.2971 -0.4138 -0.3728
   54DOPE   C27 6885   2.919   5.503  10.302  0.3163  0.4417 -0.4049
   54DOPE   H7R 6886   3.018   5.477  10.261  0.8126  1.2579  0.2392
   54DOPE   H7S 6887   2.859   5.411  10.288  1.1088 -0.6671  2.7755
   54DOPE   C28 6888   2.940   5.535  10.452  0.2633  0.5912 -0.4497
   54DOPE   H8R 6889   2.989   5.448  10.501  3.3369  2.0174 -0.6929
   54DOPE   H8S 6890   2.844   5.541  10.506  0.5767 -0.5668  0.2814
   54DOPE   C29 6891   3.029   5.656  10.473  0.3318 -0.6312  0.6127
   54DOPE   H9R 6892   3.083   5.687  10.383  3.5562 -1.1027  2.2358
   54DOPE  C210 6893   3.041   5.732  10.582 -0.0821 -0.7412  0.0419
   54DOPE  H10R 6894   3.113   5.815  10.574  1.1409 -1.8292 -0.4827
   54DOPE  C211 6895   2.978   5.703  10.717 -0.0931 -0.1483  0.1746
   54DOPE  H11R 6896   2.933   5.601  10.718  0.4970 -0.4273 -0.7099
   54DOPE  H11S 6897   2.891   5.768  10.740 -0.2920 -0.3454 -0.0171
   54DOPE  C212 6898   3.076   5.717  10.840 -0.2529 -1.0510  0.0450
   54DOPE  H12R 6899   3.168   5.655  10.828  0.4510 -0.2618  1.0846
   54DOPE  H12S 6900   3.029   5.679  10.933  1.7602 -0.4500  1.3913
   54DOPE  C213 6901   3.116   5.864  10.872 -0.1301 -0.3286 -0.4899
   54DOPE  H13R 6902   3.025   5.926  10.855 -1.0491 -1.4467  0.2094
   54DOPE  H13S 6903   3.189   5.887  10.792  0.4496 -0.3460  0.0292
   54DOPE  C214 6904   3.167   5.876  11.018  0.7574  0.2183  0.0477
   54DOPE  H14R 6905   3.089   5.843  11.090  2.3673  1.1742  2.3321
   54DOPE  H14S 6906   3.191   5.984  11.029  0.0836  0.2304  1.7010
   54DOPE  C215 6907   3.297   5.807  11.053  0.1630 -0.0021  0.0345
   54DOPE  H15R 6908   3.374   5.816  10.974 -0.6033  0.0250 -0.7204
   54DOPE  H15S 6909   3.281   5.697  11.055 -0.9509  0.0958 -1.8009
   54DOPE  C216 6910   3.351   5.868  11.188  0.8638  0.4043 -0.0638
   54DOPE  H16R 6911   3.359   5.978  11.176  0.5783  0.2816 -1.5854
   54DOPE  H16S 6912   3.453   5.825  11.194  1.2387  0.5944 -3.3471
   54DOPE  C217 6913   3.262   5.829  11.305  0.4979  1.4437 -0.2227
   54DOPE  H17R 6914   3.169   5.782  11.266 -0.2756  1.3037  1.6871
   54DOPE  H17S 6915   3.219   5.913  11.363 -1.9097 -1.0001  1.7827
   54DOPE  C218 6916   3.337   5.748  11.411 -0.0209 -0.3363 -0.3979
   54DOPE  H18R 6917   3.266   5.717  11.490 -0.8268  0.0054 -0.9683
   54DOPE  H18S 6918   3.415   5.811  11.458 -1.0786  0.5628  0.2130
   54DOPE  H18T 6919   3.383   5.657  11.369 -0.1224 -0.5566 -0.0292
   54DOPE   C33 6920   2.260   4.899   9.834  0.0351 -0.4388 -0.3003
   54DOPE   H3X 6921   2.267   4.815   9.761 -0.1675 -1.8356  1.2181
   54DOPE   H3Y 6922   2.158   4.894   9.877 -0.6568 -1.9905 -1.9671
   54DOPE   C34 6923   2.358   4.862   9.945 -0.0197  0.3290 -0.4030
   54DOPE   H4X 6924   2.448   4.824   9.892  0.2094 -1.1768  0.9647
   54DOPE   H4Y 6925   2.393   4.946  10.008  1.3911  1.2034 -2.2498
   54DOPE   C35 6926   2.307   4.746  10.033  0.3867 -0.0259 -0.0483
   54DOPE   H5X 6927   2.275   4.665   9.964  1.0094  0.1722 -0.5826
   54DOPE   H5Y 6928   2.220   4.784  10.090  1.3112  1.7737  0.2414
   54DOPE   C36 6929   2.420   4.710  10.130 -1.4185  0.5718 -0.6132
   54DOPE   H6X 6930   2.458   4.799  10.184 -2.4292 -1.2890  3.6389
   54DOPE   H6Y 6931   2.510   4.661  10.087 -0.5115 -1.1498  2.8303
   54DOPE   C37 6932   2.372   4.615  10.241 -0.1092 -0.0582  0.2166
   54DOPE   H7X 6933   2.290   4.669  10.292  0.3360  0.3915  0.4621
   54DOPE   H7Y 6934   2.347   4.517  10.196 -0.6688 -0.4370  1.3167
   54DOPE   C38 6935   2.483   4.590  10.353 -0.3489  0.3530  0.4071
   54DOPE   H8X 6936   2.510   4.688  10.398  0.7903  0.6705 -0.8898
   54DOPE   H8Y 6937   2.574   4.541  10.312 -1.5733  0.2653 -2.4568
   54DOPE   C39 6938   2.431   4.499  10.465 -0.2456  0.5400  0.3930
   54DOPE   H9X 6939   2.328   4.462  10.452  0.0737 -0.1712 -0.2527
   54DOPE  C310 6940   2.511   4.460  10.571  0.1794  0.0781  0.1235
   54DOPE  H10X 6941   2.462   4.406  10.653 -1.7595  1.2458 -0.2091
   54DOPE  C311 6942   2.654   4.494  10.599  0.3328  0.3331  0.7912
   54DOPE  H11X 6943   2.702   4.406  10.648 -1.7485 -1.3576 -0.0374
   54DOPE  H11Y 6944   2.699   4.516  10.500 -1.0385  0.0316  0.0785
   54DOPE  C312 6945   2.661   4.611  10.699  0.2247  1.1884 -0.4431
   54DOPE  H12X 6946   2.601   4.701  10.674 -1.0753  0.5659  0.3528
   54DOPE  H12Y 6947   2.767   4.643  10.693  0.8614 -0.3178  1.5955
   54DOPE  C313 6948   2.618   4.571  10.846 -0.1733  0.6793  0.5994
   54DOPE  H13X 6949   2.513   4.535  10.850  0.6661 -1.8601  2.4857
   54DOPE  H13Y 6950   2.689   4.491  10.875  0.3483  1.0287  0.3022
   54DOPE  C314 6951   2.633   4.687  10.948  0.2867 -0.0654 -0.0997
   54DOPE  H14X 6952   2.554   4.763  10.930  0.0430  0.0041  1.1567
   54DOPE  H14Y 6953   2.731   4.738  10.933  0.2644 -0.0668 -0.2517
   54DOPE  C315 6954   2.634   4.630  11.089  0.8544 -0.7125 -0.0862
   54DOPE  H15X 6955   2.620   4.715  11.159 -1.7422 -2.2355  1.4186
   54DOPE  H15Y 6956   2.728   4.574  11.110  1.7948  0.9484  0.3190
   54DOPE  C316 6957   2.506   4.552  11.125 -0.2516  0.2390 -0.4818
   54DOPE  H16X 6958   2.502   4.472  11.047  1.1481 -1.5557  1.1875
   54DOPE  H16Y 6959   2.415   4.615  11.129  0.7249  1.7135 -0.8187
   54DOPE  C317 6960   2.513   4.483  11.271  0.3496  0.3180 -0.1513
   54DOPE  H17X 6961   2.614   4.443  11.297  0.0195  0.0280  0.7461
   54DOPE  H17Y 6962   2.486   4.566  11.339  1.1962  0.9391 -0.5661
   54DOPE  C318 6963   2.415   4.369  11.289  0.4664  0.1062 -0.9414
   54DOPE  H18X 6964   2.400   4.364  11.399 -0.1492  1.5234 -0.9375
   54DOPE  H18Y 6965   2.313   4.381  11.246 -0.0242  1.1388  0.4497
   54DOPE  H18Z 6966   2.451   4.268  11.260  1.2629 -0.3049  1.2430
   55DOPE     N 6967   5.297   0.874   8.398  0.1884 -0.4507  0.3221
   55DOPE   HN1 6968   5.273   0.835   8.491 -0.3662 -0.5299  0.1501
   55DOPE   HN2 6969   5.222   0.835   8.337 -1.2161  1.2130  0.8867
   55DOPE   HN3 6970   5.385   0.835   8.358  0.4656 -1.2114  1.6433
   55DOPE   C12 6971   5.289   1.021   8.399 -0.1146  0.6323  0.3321
   55DOPE  H12A 6972   5.307   1.072   8.302  0.9193 -1.0348 -0.4018
   55DOPE  H12B 6973   5.360   1.056   8.477  3.0683 -4.1727 -0.0306
   55DOPE   C11 6974   5.147   1.059   8.450 -0.4835 -0.1275  0.5520
   55DOPE  H11A 6975   5.132   1.168   8.432 -0.4187  0.1143  1.8927
   55DOPE  H11B 6976   5.133   1.035   8.557 -2.8564 -1.6437 -0.0200
   55DOPE     P 6977   4.903   0.962   8.416  0.3909  0.0756 -0.3362
   55DOPE   O13 6978   4.915   0.822   8.470 -0.2131  0.1920 -0.4715
   55DOPE   O14 6979   4.812   0.986   8.299 -0.0411 -0.7110  0.0588
   55DOPE   O11 6980   4.879   1.064   8.532 -0.3215  0.7078 -0.7555
   55DOPE   O12 6981   5.047   1.000   8.371 -0.2674 -0.4816 -0.2959
   55DOPE    C1 6982   4.779   1.025   8.633 -0.5595  0.5214 -0.6737
   55DOPE    HA 6983   4.714   0.938   8.606  0.3386 -0.2472 -0.3923
   55DOPE    HB 6984   4.703   1.106   8.639 -1.2605 -0.0436 -1.6573
   55DOPE    C2 6985   4.839   0.999   8.771 -0.3263  0.3590 -0.2490
   55DOPE    HS 6986   4.761   0.960   8.840  1.4054 -4.5178 -0.6894
   55DOPE   O21 6987   4.905   1.117   8.827 -0.2346 -0.2095  0.4534
   55DOPE   C21 6988   4.836   1.200   8.905 -0.0534 -0.0059 -0.2924
   55DOPE   O22 6989   4.717   1.189   8.926  0.1496 -0.0120  0.3049
   55DOPE   C22 6990   4.929   1.292   8.973 -0.4990  0.3812 -0.1507
   55DOPE   H2R 6991   5.021   1.315   8.915  0.2542  1.8065  1.5230
   55DOPE   H2S 6992   4.968   1.238   9.063  0.4211 -1.5424 -1.6276
   55DOPE    C3 6993   4.950   0.890   8.765 -0.2665  0.4338 -0.3673
   55DOPE    HX 6994   5.042   0.921   8.710 -0.0322  2.2718  0.9636
   55DOPE    HY 6995   4.911   0.806   8.704 -2.8820  0.9393  0.4715
   55DOPE   O31 6996   4.982   0.843   8.896  0.3844 -1.0619  0.5652
   55DOPE   C31 6997   5.093   0.894   8.951 -0.5543  0.6113 -0.0212
   55DOPE   O32 6998   5.182   0.956   8.894  0.2317  0.3907 -0.5976
   55DOPE   C32 6999   5.100   0.845   9.092 -0.1751  0.6878  0.6981
   55DOPE   H2X 7000   5.027   0.761   9.102  1.0090 -0.7391 -1.6228
   55DOPE   H2Y 7001   5.194   0.791   9.117 -1.2321 -2.6768 -1.8024
   55DOPE   C23 7002   4.859   1.417   9.027 -0.4989 -0.2338  0.0373
   55DOPE   H3R 7003   4.750   1.401   9.043 -0.5890  1.5842  1.6071
   55DOPE   H3S 7004   4.869   1.492   8.946  1.2087  0.3240  0.7140
   55DOPE   C24 7005   4.930   1.489   9.139 -0.2448 -0.3587 -0.3535
   55DOPE   H4R 7006   4.914   1.598   9.124  0.8211 -0.2725 -1.0213
   55DOPE   H4S 7007   5.038   1.463   9.126 -0.4186 -1.4878  0.3421
   55DOPE   C25 7008   4.877   1.443   9.281  0.1648  0.1003  1.3151
   55DOPE   H5R 7009   4.869   1.333   9.284 -0.8310 -0.4121 -5.0618
   55DOPE   H5S 7010   4.769   1.469   9.290 -0.5381 -1.9261 -0.4693
   55DOPE   C26 7011   4.956   1.492   9.400  0.3407 -0.8564 -0.2863
   55DOPE   H6R 7012   5.061   1.493   9.366  0.4587 -3.8948 -0.2652
   55DOPE   H6S 7013   4.953   1.414   9.479  1.8533  0.8148  1.5322
   55DOPE   C27 7014   4.905   1.628   9.455  0.6919  0.4306 -0.2624
   55DOPE   H7R 7015   4.801   1.606   9.486  1.2233 -0.9729  0.6619
   55DOPE   H7S 7016   4.911   1.691   9.364 -0.0379 -1.6652 -1.8439
   55DOPE   C28 7017   4.982   1.681   9.577 -0.6987  0.3437 -0.5104
   55DOPE   H8R 7018   4.977   1.597   9.649  0.5205  0.7249  0.0277
   55DOPE   H8S 7019   4.924   1.768   9.614 -0.4388 -0.0126  0.7780
   55DOPE   C29 7020   5.122   1.721   9.541  0.2449 -0.1946  0.4256
   55DOPE   H9R 7021   5.168   1.648   9.472  0.2869  2.5427 -2.7015
   55DOPE  C210 7022   5.190   1.828   9.588  0.0181 -0.2054  0.0952
   55DOPE  H10R 7023   5.288   1.855   9.546  0.0205 -0.7231 -0.2392
   55DOPE  C211 7024   5.129   1.938   9.666 -0.0825 -0.5712 -0.3009
   55DOPE  H11R 7025   5.027   1.960   9.627  0.2391  0.7479 -0.4355
   55DOPE  H11S 7026   5.193   2.026   9.647 -0.3543 -0.3230 -0.0843
   55DOPE  C212 7027   5.108   1.928   9.815 -0.2457 -0.0942  0.5431
   55DOPE  H12R 7028   5.078   1.827   9.850  0.0996 -1.0901 -1.8145
   55DOPE  H12S 7029   5.026   1.994   9.850  1.1696  1.2775  1.3691
   55DOPE  C213 7030   5.235   1.968   9.889 -0.1962  0.5029  0.1316
   55DOPE  H13R 7031   5.248   2.077   9.875  1.7863  0.3592  0.5406
   55DOPE  H13S 7032   5.328   1.928   9.843 -1.0407 -1.9155  0.3884
   55DOPE  C214 7033   5.226   1.946  10.043  0.0603  0.0466  0.5345
   55DOPE  H14R 7034   5.121   1.971  10.070  0.4071  0.6511  1.3630
   55DOPE  H14S 7035   5.290   2.027  10.082 -0.1843  0.8199 -0.6222
   55DOPE  C215 7036   5.265   1.803  10.084  0.3638 -0.1908 -0.1954
   55DOPE  H15R 7037   5.354   1.776  10.024  0.3503  1.1352 -0.8432
   55DOPE  H15S 7038   5.184   1.728  10.079  0.1748 -0.1933  2.0540
   55DOPE  C216 7039   5.307   1.794  10.231  0.2651  0.2468  1.1037
   55DOPE  H16R 7040   5.376   1.880  10.252  0.2800  0.8222 -1.0903
   55DOPE  H16S 7041   5.351   1.693  10.241 -0.0713 -0.2237 -1.4867
   55DOPE  C217 7042   5.190   1.790  10.334 -1.1824 -0.6720  0.6526
   55DOPE  H17R 7043   5.145   1.688  10.329  0.3422 -1.3625  0.2295
   55DOPE  H17S 7044   5.109   1.859  10.303 -0.2061  0.6474  0.9565
   55DOPE  C218 7045   5.236   1.826  10.474  0.3049  0.2070  0.1828
   55DOPE  H18R 7046   5.289   1.739  10.520  0.2856  0.0307 -0.1235
   55DOPE  H18S 7047   5.150   1.853  10.538  0.8421  0.2553  0.9057
   55DOPE  H18T 7048   5.303   1.915  10.473  0.2461  0.2991  1.7695
   55DOPE   C33 7049   5.075   0.961   9.186 -0.5637  0.1136 -0.3521
   55DOPE   H3X 7050   4.980   1.003   9.148  0.4072  2.2110 -0.5585
   55DOPE   H3Y 7051   5.158   1.034   9.186  2.3494 -2.9492 -0.0638
   55DOPE   C34 7052   5.050   0.914   9.328 -0.2315 -0.1151  0.1140
   55DOPE   H4X 7053   4.973   0.835   9.337 -1.3030  0.9216  0.2127
   55DOPE   H4Y 7054   5.143   0.871   9.372 -1.5810 -1.8396  1.4760
   55DOPE   C35 7055   4.995   1.034   9.416  0.2985 -0.0277  0.6135
   55DOPE   H5X 7056   4.898   1.070   9.376  1.1814 -0.6367 -2.3101
   55DOPE   H5Y 7057   5.070   1.115   9.401 -0.6074  0.8732  0.8555
   55DOPE   C36 7058   4.985   1.010   9.570 -0.5709  0.3597 -0.1636
   55DOPE   H6X 7059   5.091   1.010   9.604  0.0080 -0.3225 -1.8939
   55DOPE   H6Y 7060   4.943   0.909   9.588 -0.1476  0.2228  0.0626
   55DOPE   C37 7061   4.920   1.123   9.655  0.2689  0.1942 -0.7581
   55DOPE   H7X 7062   4.958   1.215   9.606  1.9936 -0.0800  0.0006
   55DOPE   H7Y 7063   4.809   1.116   9.647  0.0266 -0.2264  1.9930
   55DOPE   C38 7064   4.957   1.113   9.805 -0.1309 -0.5737 -0.3960
   55DOPE   H8X 7065   4.941   1.008   9.836 -0.6117  0.2864  2.4833
   55DOPE   H8Y 7066   4.890   1.166   9.875  3.9116  0.8344  2.7821
   55DOPE   C39 7067   5.095   1.166   9.834  0.2113  0.0421 -0.2533
   55DOPE   H9X 7068   5.174   1.134   9.765 -0.5520 -0.2221 -1.0232
   55DOPE  C310 7069   5.124   1.268   9.917  0.0498  0.1825  0.2995
   55DOPE  H10X 7070   5.231   1.290   9.927  0.1641 -0.0175 -0.4728
   55DOPE  C311 7071   5.027   1.352   9.999 -0.8217  0.0840 -0.2126
   55DOPE  H11X 7072   5.055   1.459  10.002  0.1806 -0.1595  3.2921
   55DOPE  H11Y 7073   4.931   1.359   9.943 -0.2300  0.6721 -1.1832
   55DOPE  C312 7074   5.007   1.308  10.150  0.2364  1.0954 -0.0440
   55DOPE  H12X 7075   4.986   1.199  10.148 -0.2142  1.1857 -0.2663
   55DOPE  H12Y 7076   4.916   1.350  10.197 -1.0271 -1.5940  0.1478
   55DOPE  C313 7077   5.129   1.323  10.243  0.3479 -1.3187 -0.5298
   55DOPE  H13X 7078   5.217   1.269  10.202  0.6485  0.1763 -1.9478
   55DOPE  H13Y 7079   5.158   1.430  10.232 -2.8156 -0.4304 -1.0571
   55DOPE  C314 7080   5.107   1.296  10.381  0.3879  0.1110 -0.2368
   55DOPE  H14X 7081   5.198   1.293  10.444 -1.3467  0.5348  2.4596
   55DOPE  H14Y 7082   5.067   1.192  10.381 -0.0708  0.2855  0.5810
   55DOPE  C315 7083   5.010   1.394  10.450  0.2050 -0.3864  0.1495
   55DOPE  H15X 7084   4.905   1.378  10.418  1.3171 -2.7846 -2.8247
   55DOPE  H15Y 7085   5.049   1.495  10.428  1.8487 -0.6054  1.7540
   55DOPE  C316 7086   5.006   1.380  10.607  0.2463  0.7038 -0.0246
   55DOPE  H16X 7087   5.110   1.396  10.643 -0.2568  1.4133  1.2060
   55DOPE  H16Y 7088   4.968   1.279  10.633 -0.5818  0.5714 -1.6373
   55DOPE  C317 7089   4.907   1.479  10.676 -0.1602  0.0817  0.4011
   55DOPE  H17X 7090   4.801   1.449  10.660  0.4705 -1.4610 -1.1837
   55DOPE  H17Y 7091   4.928   1.466  10.784  1.4573  0.7384  0.1835
   55DOPE  C318 7092   4.924   1.622  10.631  0.3035  0.2968  0.8554
   55DOPE  H18X 7093   4.845   1.681  10.684 -0.4186  1.0869 -1.0153
   55DOPE  H18Y 7094   5.017   1.676  10.656  0.0939  0.6689  0.8373
   55DOPE  H18Z 7095   4.896   1.632  10.524 -0.8420 -2.4316  0.8120
   56DOPE     N 7096   4.327   1.300   8.271  0.1313  0.0533 -0.4236
   56DOPE   HN1 7097   4.364   1.257   8.184 -1.7233  2.3106 -2.4766
   56DOPE   HN2 7098   4.264   1.374   8.235  1.1370  0.9702 -0.3797
   56DOPE   HN3 7099   4.405   1.342   8.326 -0.7863  0.2781  0.7519
   56DOPE   C12 7100   4.264   1.200   8.360 -0.2155 -0.3284 -0.3583
   56DOPE  H12A 7101   4.301   1.097   8.342  0.3454 -0.1631 -0.1932
   56DOPE  H12B 7102   4.155   1.187   8.344  0.0289 -2.0132 -0.7942
   56DOPE   C11 7103   4.281   1.245   8.506 -0.2775 -0.2827  0.4295
   56DOPE  H11A 7104   4.389   1.258   8.530  0.2259 -0.7201 -1.4409
   56DOPE  H11B 7105   4.227   1.178   8.576 -2.0486  1.0802  0.4382
   56DOPE     P 7106   4.133   1.434   8.615  0.2085 -0.4652  0.5374
   56DOPE   O13 7107   4.050   1.538   8.541  0.1840  0.2189 -0.3418
   56DOPE   O14 7108   4.228   1.474   8.726  0.5138 -0.2718 -0.6032
   56DOPE   O11 7109   4.042   1.313   8.667 -0.4583 -0.5891 -0.2850
   56DOPE   O12 7110   4.218   1.369   8.505 -1.0029  0.6177 -0.2886
   56DOPE    C1 7111   3.934   1.350   8.752  0.7150  0.5547 -0.5709
   56DOPE    HA 7112   3.862   1.267   8.738 -0.4027  1.5401 -0.7666
   56DOPE    HB 7113   3.885   1.445   8.725 -2.0387 -0.7094 -0.3428
   56DOPE    C2 7114   3.964   1.337   8.907  0.3216 -0.3524  0.2771
   56DOPE    HS 7115   3.873   1.353   8.969 -0.1592 -0.8141 -0.2979
   56DOPE   O21 7116   4.062   1.428   8.959  0.8198  0.5161  0.1555
   56DOPE   C21 7117   4.019   1.551   8.985 -0.7514 -0.4880 -0.2855
   56DOPE   O22 7118   3.911   1.601   8.950  0.2172 -0.3586  0.2561
   56DOPE   C22 7119   4.129   1.625   9.063 -0.5950  0.1106  0.7434
   56DOPE   H2R 7120   4.192   1.676   8.986 -0.9737  0.3314  0.5814
   56DOPE   H2S 7121   4.183   1.550   9.124  0.8683  1.3281  1.0160
   56DOPE    C3 7122   4.007   1.190   8.940  0.3596  0.1862 -0.4822
   56DOPE    HX 7123   4.084   1.147   8.872 -0.8697 -1.9238 -0.6322
   56DOPE    HY 7124   3.911   1.139   8.916  0.3237  0.4528 -0.9078
   56DOPE   O31 7125   4.044   1.175   9.075  0.1697 -0.0318 -0.1445
   56DOPE   C31 7126   3.947   1.183   9.167 -0.0262  0.1270 -0.8021
   56DOPE   O32 7127   3.831   1.206   9.144 -0.1064  0.1383  0.2459
   56DOPE   C32 7128   4.006   1.186   9.302  0.3959  0.2041 -0.3511
   56DOPE   H2X 7129   4.063   1.092   9.315  3.5571  2.0590  0.3543
   56DOPE   H2Y 7130   4.087   1.261   9.316  2.0402 -1.3220 -1.1591
   56DOPE   C23 7131   4.082   1.745   9.150 -0.0701  0.0192  0.6829
   56DOPE   H3R 7132   4.005   1.795   9.087  1.4388  0.5835 -0.7766
   56DOPE   H3S 7133   4.160   1.821   9.172  0.9808 -0.9960  0.5514
   56DOPE   C24 7134   4.029   1.697   9.282 -0.0583  0.6897 -0.8532
   56DOPE   H4R 7135   3.977   1.602   9.256 -0.9065  1.5411 -2.4661
   56DOPE   H4S 7136   3.951   1.772   9.307 -1.9007 -0.8341 -1.6886
   56DOPE   C25 7137   4.140   1.678   9.383 -0.1954 -0.4239  0.5161
   56DOPE   H5R 7138   4.197   1.773   9.387 -0.0874 -0.3448 -1.8981
   56DOPE   H5S 7139   4.213   1.602   9.349  1.4850  1.0062  0.7534
   56DOPE   C26 7140   4.099   1.635   9.532  0.4198  0.3011 -0.7184
   56DOPE   H6R 7141   4.072   1.528   9.544 -2.3002  0.7828 -1.9441
   56DOPE   H6S 7142   4.018   1.702   9.567  0.2412 -0.4840  0.4105
   56DOPE   C27 7143   4.215   1.660   9.635  0.3426  0.1369  0.1026
   56DOPE   H7R 7144   4.229   1.770   9.646  1.5556  0.1114 -0.9525
   56DOPE   H7S 7145   4.305   1.630   9.577 -0.2754  0.4770 -1.0654
   56DOPE   C28 7146   4.195   1.577   9.759  0.2012 -0.3165 -0.0142
   56DOPE   H8R 7147   4.294   1.553   9.805  0.8109  0.0746 -1.0930
   56DOPE   H8S 7148   4.155   1.476   9.734  0.9612 -0.4405 -0.7694
   56DOPE   C29 7149   4.105   1.664   9.848  0.1339  0.5421  0.3180
   56DOPE   H9R 7150   4.007   1.695   9.809 -0.4201  1.3108  2.2330
   56DOPE  C210 7151   4.123   1.714   9.976  0.3637  0.4538  0.4235
   56DOPE  H10R 7152   4.054   1.787  10.024  1.7373  1.8004  0.4193
   56DOPE  C211 7153   4.236   1.673  10.064 -0.5030  0.6316 -0.5174
   56DOPE  H11R 7154   4.318   1.749  10.069  1.5785 -1.5930  1.0903
   56DOPE  H11S 7155   4.281   1.578  10.028 -0.7579  0.0916  0.5612
   56DOPE  C212 7156   4.187   1.650  10.210 -0.2116  0.6745  0.2213
   56DOPE  H12R 7157   4.268   1.602  10.269  0.2930  0.3897 -0.6833
   56DOPE  H12S 7158   4.098   1.584  10.214  0.0307  0.4313  2.4781
   56DOPE  C213 7159   4.158   1.779  10.291 -0.0393 -0.0332  0.1221
   56DOPE  H13R 7160   4.096   1.846  10.228 -2.2614 -2.3963 -0.3907
   56DOPE  H13S 7161   4.251   1.838  10.306 -0.6008  0.3396  2.5661
   56DOPE  C214 7162   4.097   1.750  10.430 -0.0410  0.0689 -0.4437
   56DOPE  H14R 7163   4.175   1.688  10.479  0.5067  1.4145  0.4645
   56DOPE  H14S 7164   4.009   1.683  10.420  1.7554 -2.1145 -4.0355
   56DOPE  C215 7165   4.069   1.875  10.511  0.0929  0.4737 -0.2637
   56DOPE  H15R 7166   3.994   1.951  10.480 -0.2728 -0.1155 -0.8642
   56DOPE  H15S 7167   4.163   1.934  10.508 -0.1664  0.8742 -2.1164
   56DOPE  C216 7168   4.023   1.844  10.653 -0.1742  0.0108 -0.4986
   56DOPE  H16R 7169   4.090   1.765  10.694 -1.4923  0.1176  2.0688
   56DOPE  H16S 7170   3.916   1.813  10.648  0.2021 -2.6292  3.5214
   56DOPE  C217 7171   4.013   1.956  10.757  0.1987  0.1418 -0.3920
   56DOPE  H17R 7172   3.935   2.026  10.721 -2.9219 -2.0060  1.6979
   56DOPE  H17S 7173   4.105   2.018  10.768  0.0582  0.3734 -0.5071
   56DOPE  C218 7174   3.975   1.894  10.885  0.6546 -0.6396 -0.2389
   56DOPE  H18R 7175   3.934   1.972  10.952  0.2474 -2.3746  1.6541
   56DOPE  H18S 7176   4.051   1.828  10.933  1.0995 -1.7332 -2.3048
   56DOPE  H18T 7177   3.890   1.823  10.878 -0.0533  0.1681  0.0335
   56DOPE   C33 7178   3.894   1.213   9.400 -0.1498 -0.0787 -0.5193
   56DOPE   H3X 7179   3.805   1.148   9.388 -0.1354 -0.3690  0.7316
   56DOPE   H3Y 7180   3.843   1.311   9.386 -1.3278 -0.7813 -1.2897
   56DOPE   C34 7181   3.930   1.201   9.552 -0.5177  0.1640 -0.5982
   56DOPE   H4X 7182   3.981   1.104   9.571  0.3774  0.9249  1.1160
   56DOPE   H4Y 7183   4.005   1.281   9.570  0.4806 -0.7392 -0.6542
   56DOPE   C35 7184   3.808   1.226   9.650 -0.4489  0.2858  0.0755
   56DOPE   H5X 7185   3.728   1.153   9.624  0.9597 -1.4366  0.3616
   56DOPE   H5Y 7186   3.762   1.326   9.639 -1.6009 -0.2860 -0.5386
   56DOPE   C36 7187   3.830   1.192   9.797 -0.3486  0.9961  0.1110
   56DOPE   H6X 7188   3.851   1.084   9.814 -0.0642  0.6193 -2.2600
   56DOPE   H6Y 7189   3.733   1.218   9.845  1.4228  2.4336  3.2114
   56DOPE   C37 7190   3.946   1.272   9.855  0.0543  0.0295  0.2171
   56DOPE   H7X 7191   4.033   1.222   9.809 -1.3276 -1.3917 -0.9714
   56DOPE   H7Y 7192   3.943   1.378   9.822  1.7993  1.0183  2.8882
   56DOPE   C38 7193   3.957   1.273  10.008  0.4205 -0.4704 -0.0472
   56DOPE   H8X 7194   3.950   1.167  10.040 -1.4503 -0.4925 -0.3723
   56DOPE   H8Y 7195   3.876   1.333  10.055  0.6140  0.6882 -1.1383
   56DOPE   C39 7196   4.081   1.335  10.060 -0.2534 -0.2188 -0.4403
   56DOPE   H9X 7197   4.106   1.429  10.009 -0.6731 -0.0617 -0.3551
   56DOPE  C310 7198   4.161   1.301  10.167 -0.0491  0.0665  0.6763
   56DOPE  H10X 7199   4.252   1.360  10.184 -0.8509  1.7288 -0.5054
   56DOPE  C311 7200   4.135   1.188  10.261 -0.0353 -0.1247 -0.0237
   56DOPE  H11X 7201   4.114   1.100  10.196  0.4286 -1.5504  1.6672
   56DOPE  H11Y 7202   4.229   1.164  10.316 -1.0390 -2.4754  0.8065
   56DOPE  C312 7203   4.026   1.217  10.361  0.7331  0.5673 -0.1861
   56DOPE  H12X 7204   4.007   1.123  10.417 -0.9037 -0.0969 -1.7657
   56DOPE  H12Y 7205   3.937   1.264  10.313  1.1552  1.8627  0.2504
   56DOPE  C313 7206   4.083   1.316  10.469  0.3313 -0.2448 -0.9635
   56DOPE  H13X 7207   4.188   1.283  10.486  0.8441  1.2149 -1.1814
   56DOPE  H13Y 7208   4.089   1.415  10.421  0.7160 -0.2916 -1.0199
   56DOPE  C314 7209   4.001   1.318  10.597 -0.3314  0.2558  0.1708
   56DOPE  H14X 7210   4.003   1.226  10.658  1.0082  0.2386  0.1296
   56DOPE  H14Y 7211   3.895   1.337  10.569 -0.5288 -0.0557  0.6926
   56DOPE  C315 7212   4.059   1.416  10.699 -0.2162  1.1174  0.2598
   56DOPE  H15X 7213   4.071   1.510  10.642  1.5064 -0.2678 -1.8378
   56DOPE  H15Y 7214   4.164   1.395  10.729  0.5615 -1.1273 -3.3831
   56DOPE  C316 7215   3.982   1.411  10.827 -0.5242  0.3215 -0.1067
   56DOPE  H16X 7216   3.977   1.303  10.854  1.2719  0.3433  0.4988
   56DOPE  H16Y 7217   3.874   1.437  10.820 -0.2296  1.6284 -0.1048
   56DOPE  C317 7218   4.049   1.479  10.952  0.3653  0.4395  0.1716
   56DOPE  H17X 7219   4.150   1.439  10.974  0.8501  0.3822 -1.9365
   56DOPE  H17Y 7220   4.058   1.587  10.926 -1.0743  0.4422 -0.3970
   56DOPE  C318 7221   3.963   1.468  11.074  0.6267 -0.3095  0.3439
   56DOPE  H18X 7222   3.968   1.368  11.123  1.4527 -0.8891 -0.8674
   56DOPE  H18Y 7223   3.982   1.538  11.157 -3.8746 -1.1803  2.4075
   56DOPE  H18Z 7224   3.856   1.480  11.046  0.5185 -0.3534  0.7303
   57DOPE     N 7225   2.203   3.201   8.003 -0.0893  0.5472  0.0625
   57DOPE   HN1 7226   2.132   3.234   7.934 -0.6510  0.3660  0.5503
   57DOPE   HN2 7227   2.255   3.132   7.946 -0.2207 -0.8548  1.5910
   57DOPE   HN3 7228   2.150   3.159   8.081 -0.2093  0.0774 -0.2674
   57DOPE   C12 7229   2.283   3.325   8.038  0.2733 -0.2220 -0.3738
   57DOPE  H12A 7230   2.216   3.398   8.089 -0.8580 -0.7121 -1.1218
   57DOPE  H12B 7231   2.314   3.369   7.940 -1.4828  2.2238  0.0629
   57DOPE   C11 7232   2.409   3.290   8.122  0.9860  0.0485 -0.4762
   57DOPE  H11A 7233   2.467   3.383   8.141  0.0932  0.3194  1.0964
   57DOPE  H11B 7234   2.479   3.221   8.070  1.0355 -0.1922 -0.0880
   57DOPE     P 7235   2.399   3.104   8.304  0.0324  0.0738 -0.0893
   57DOPE   O13 7236   2.535   3.110   8.362 -0.3097  0.2104  0.3019
   57DOPE   O14 7237   2.370   3.003   8.202  0.2620  0.0623 -0.0002
   57DOPE   O11 7238   2.302   3.084   8.427 -0.2780  0.6891 -0.4973
   57DOPE   O12 7239   2.358   3.238   8.246 -0.1543 -0.5553  0.3540
   57DOPE    C1 7240   2.291   3.185   8.526  1.0961  0.3597  0.7532
   57DOPE    HA 7241   2.196   3.237   8.501 -0.5973 -2.6303  0.4548
   57DOPE    HB 7242   2.361   3.271   8.527 -0.5230  1.7606  3.2090
   57DOPE    C2 7243   2.289   3.123   8.661  0.0266 -0.0007 -0.3909
   57DOPE    HS 7244   2.393   3.095   8.689 -0.4240 -0.0687  1.2727
   57DOPE   O21 7245   2.190   3.015   8.673 -0.0578 -0.2807  0.9982
   57DOPE   C21 7246   2.222   2.926   8.770 -0.1042 -0.0783 -0.5588
   57DOPE   O22 7247   2.331   2.926   8.829 -0.4057  0.2438 -0.1702
   57DOPE   C22 7248   2.108   2.823   8.782 -0.2040 -0.5048 -0.2279
   57DOPE   H2R 7249   2.110   2.764   8.688 -0.5882 -1.2232  0.2052
   57DOPE   H2S 7250   2.014   2.882   8.774 -0.8790 -1.5790 -0.4246
   57DOPE    C3 7251   2.251   3.230   8.764  0.7221 -0.9294  0.5660
   57DOPE    HX 7252   2.153   3.269   8.731  2.1294  0.8197 -1.8601
   57DOPE    HY 7253   2.318   3.318   8.751 -0.3359 -0.0556  0.9255
   57DOPE   O31 7254   2.240   3.184   8.894 -0.4821 -0.2046  0.3519
   57DOPE   C31 7255   2.336   3.205   8.981 -0.3872 -1.0607  0.1122
   57DOPE   O32 7256   2.443   3.259   8.954 -0.4433  0.8627  0.5709
   57DOPE   C32 7257   2.287   3.176   9.121 -0.5206 -0.6421  0.2156
   57DOPE   H2X 7258   2.178   3.193   9.122 -0.1356  2.4525 -0.8437
   57DOPE   H2Y 7259   2.306   3.066   9.124 -1.3904 -0.8706 -1.8187
   57DOPE   C23 7260   2.119   2.734   8.908 -0.6093 -0.3965  0.9929
   57DOPE   H3R 7261   2.218   2.685   8.910  0.1007  0.9277 -0.1061
   57DOPE   H3S 7262   2.056   2.643   8.899  0.5238 -1.0563 -0.6373
   57DOPE   C24 7263   2.092   2.823   9.032 -0.5114 -0.2479  0.0758
   57DOPE   H4R 7264   1.983   2.847   9.036 -0.7689 -1.4510  0.9304
   57DOPE   H4S 7265   2.157   2.912   9.039 -1.1590  0.1021  2.3542
   57DOPE   C25 7266   2.121   2.750   9.167  0.1251  0.0474 -0.4791
   57DOPE   H5R 7267   2.220   2.701   9.160 -0.5452 -1.3222 -0.6478
   57DOPE   H5S 7268   2.044   2.670   9.178 -1.7106  1.8982  1.3032
   57DOPE   C26 7269   2.098   2.852   9.284  0.0514  0.3488  0.0131
   57DOPE   H6R 7270   2.001   2.905   9.270 -0.0928  0.2709  0.6962
   57DOPE   H6S 7271   2.180   2.925   9.267  0.9217 -0.3999  0.8608
   57DOPE   C27 7272   2.097   2.776   9.414 -0.5603 -0.4077 -0.8195
   57DOPE   H7R 7273   2.167   2.690   9.405  0.9269  0.7334 -0.5061
   57DOPE   H7S 7274   1.990   2.747   9.428 -0.6711  0.7163  0.9653
   57DOPE   C28 7275   2.135   2.864   9.536  0.1709 -0.6874 -0.5281
   57DOPE   H8R 7276   2.227   2.917   9.504  0.4327  0.5093  1.9445
   57DOPE   H8S 7277   2.155   2.803   9.627 -3.3482  2.1721  2.4908
   57DOPE   C29 7278   2.018   2.964   9.561  0.0068 -0.5004  0.4122
   57DOPE   H9R 7279   1.994   3.027   9.474 -1.8184 -0.8131  0.6502
   57DOPE  C210 7280   1.923   2.962   9.660 -0.0600 -0.5596 -0.0711
   57DOPE  H10R 7281   1.833   3.025   9.666 -0.5442 -1.3617  2.0185
   57DOPE  C211 7282   1.914   2.853   9.763 -0.5263  0.1087 -0.0247
   57DOPE  H11R 7283   1.990   2.773   9.752  1.7628  2.0129  1.0814
   57DOPE  H11S 7284   1.814   2.803   9.756 -1.2551  1.4810  0.3150
   57DOPE  C212 7285   1.920   2.912   9.900 -0.0364  0.0011  0.3480
   57DOPE  H12R 7286   1.848   2.997   9.902 -0.2248 -0.1520  0.0830
   57DOPE  H12S 7287   2.024   2.948   9.914 -1.0862  3.6754 -0.0949
   57DOPE  C213 7288   1.877   2.811  10.016 -0.7375 -0.2526 -0.0494
   57DOPE  H13R 7289   1.941   2.721  10.012  1.1246  0.9801  0.4659
   57DOPE  H13S 7290   1.777   2.774   9.987  0.1685 -2.1473 -0.9190
   57DOPE  C214 7291   1.884   2.863  10.160 -0.0408 -0.5440  0.4729
   57DOPE  H14R 7292   1.824   2.956  10.173 -2.6565 -2.2997  1.9094
   57DOPE  H14S 7293   1.993   2.878  10.175  0.1539 -2.4850  1.2195
   57DOPE  C215 7294   1.838   2.763  10.266  0.7536  0.1678 -0.1200
   57DOPE  H15R 7295   1.885   2.671  10.227 -1.6304  0.0707 -3.1471
   57DOPE  H15S 7296   1.728   2.757  10.250  0.6521 -0.5596  0.7409
   57DOPE  C216 7297   1.881   2.799  10.406  0.3084  0.3844  0.1344
   57DOPE  H16R 7298   1.839   2.899  10.433  2.8935  1.8359 -0.8475
   57DOPE  H16S 7299   1.991   2.811  10.402  0.2548  0.7205 -0.4620
   57DOPE  C217 7300   1.844   2.699  10.520 -0.8154  0.2351  1.3782
   57DOPE  H17R 7301   1.905   2.733  10.606  1.2576 -0.7401  0.3499
   57DOPE  H17S 7302   1.864   2.598  10.477 -2.5044 -0.2295  1.5992
   57DOPE  C218 7303   1.699   2.704  10.568  0.2503 -0.0663  0.0368
   57DOPE  H18R 7304   1.676   2.802  10.616  0.8206  0.1598 -0.1415
   57DOPE  H18S 7305   1.682   2.620  10.638  1.7222 -0.4685 -0.0524
   57DOPE  H18T 7306   1.626   2.691  10.485  1.1879 -3.7619 -0.3761
   57DOPE   C33 7307   2.368   3.270   9.222  0.6274 -0.0937  0.2071
   57DOPE   H3X 7308   2.378   3.371   9.177  0.9837 -0.9035 -1.6558
   57DOPE   H3Y 7309   2.471   3.233   9.243  0.0708 -0.8236  1.7722
   57DOPE   C34 7310   2.293   3.278   9.353  0.2635 -0.4105 -0.0063
   57DOPE   H4X 7311   2.189   3.314   9.336  0.5334 -0.1414 -1.1887
   57DOPE   H4Y 7312   2.304   3.174   9.392  0.3802 -0.2384  0.4181
   57DOPE   C35 7313   2.374   3.366   9.453  0.0013  0.0396  0.2200
   57DOPE   H5X 7314   2.346   3.474   9.446 -1.2236 -0.1400  1.6962
   57DOPE   H5Y 7315   2.482   3.347   9.436  0.1652  0.2990  0.9059
   57DOPE   C36 7316   2.338   3.313   9.596 -0.4641 -0.3686  0.2738
   57DOPE   H6X 7317   2.404   3.353   9.676 -1.3392  1.5331  0.0847
   57DOPE   H6Y 7318   2.332   3.202   9.591  1.0216 -0.4054 -2.1786
   57DOPE   C37 7319   2.201   3.359   9.642  0.2852 -0.0039  0.8987
   57DOPE   H7X 7320   2.197   3.470   9.646  0.0900  0.0679 -0.7380
   57DOPE   H7Y 7321   2.116   3.327   9.578  0.8693  1.0492 -0.4503
   57DOPE   C38 7322   2.166   3.299   9.785  0.1957  0.3669  0.6003
   57DOPE   H8X 7323   2.193   3.191   9.786 -2.2854 -0.3380 -0.8107
   57DOPE   H8Y 7324   2.055   3.300   9.785  0.1911  0.0672  0.4584
   57DOPE   C39 7325   2.226   3.364   9.904  0.0348 -0.0030  0.7706
   57DOPE   H9X 7326   2.315   3.426   9.883  1.3283 -1.6601  1.0718
   57DOPE  C310 7327   2.206   3.322  10.030  1.0547 -0.4781 -0.0858
   57DOPE  H10X 7328   2.256   3.385  10.105 -1.9765  0.9469  0.9174
   57DOPE  C311 7329   2.101   3.237  10.095  0.3008  0.5177  0.4000
   57DOPE  H11X 7330   2.027   3.202  10.020  0.6501  0.7981 -0.0776
   57DOPE  H11Y 7331   2.156   3.147  10.129  1.8612 -0.4044 -4.0160
   57DOPE  C312 7332   2.020   3.309  10.213 -0.2795 -0.6085 -0.0568
   57DOPE  H12X 7333   1.919   3.263  10.217 -0.2439 -0.7796 -1.0566
   57DOPE  H12Y 7334   1.992   3.413  10.184 -0.4583 -0.6630 -0.0818
   57DOPE  C313 7335   2.084   3.303  10.353 -0.6243 -0.5066  0.1561
   57DOPE  H13X 7336   2.188   3.265  10.356  0.5296  2.4150  0.5442
   57DOPE  H13Y 7337   2.094   3.409  10.386  1.0304 -1.0462  1.5316
   57DOPE  C314 7338   2.001   3.220  10.454 -0.0395 -1.0133  0.4358
   57DOPE  H14X 7339   2.011   3.111  10.441  1.0260 -0.9745  0.8440
   57DOPE  H14Y 7340   1.895   3.251  10.445  0.0400 -1.2626 -2.0335
   57DOPE  C315 7341   2.063   3.244  10.595 -0.5466  0.1568  0.5555
   57DOPE  H15X 7342   2.055   3.351  10.624 -1.0858 -0.1839  1.7584
   57DOPE  H15Y 7343   2.170   3.216  10.594 -0.4681  0.3298 -2.2357
   57DOPE  C316 7344   2.008   3.157  10.715  0.4315 -0.2333  0.1907
   57DOPE  H16X 7345   2.054   3.193  10.811  1.3575  0.9068 -0.6429
   57DOPE  H16Y 7346   2.037   3.050  10.710 -1.1016 -0.7330  1.2775
   57DOPE  C317 7347   1.852   3.171  10.731 -0.4415  0.3808 -0.3288
   57DOPE  H17X 7348   1.819   3.276  10.750 -0.2150  0.9384 -2.7003
   57DOPE  H17Y 7349   1.796   3.134  10.642 -0.7861  2.6329 -1.1168
   57DOPE  C318 7350   1.810   3.079  10.851  0.0448  0.1733 -0.1180
   57DOPE  H18X 7351   1.861   2.980  10.848  1.2864  0.8123 -0.9448
   57DOPE  H18Y 7352   1.850   3.130  10.942 -0.7397 -1.5585  1.2800
   57DOPE  H18Z 7353   1.701   3.068  10.867  0.0403 -0.9351 -0.8027
   58DOPE     N 7354   3.220   0.973   8.616 -0.0333 -1.0063  0.3455
   58DOPE   HN1 7355   3.163   0.903   8.565 -0.8144 -0.4629  0.4485
   58DOPE   HN2 7356   3.229   1.054   8.551  0.8149 -1.0767  0.3711
   58DOPE   HN3 7357   3.313   0.936   8.644 -1.0322 -2.5402  1.7792
   58DOPE   C12 7358   3.148   1.032   8.728  0.5757  0.2303 -0.4452
   58DOPE  H12A 7359   3.223   1.076   8.797 -0.7985  0.7114  0.7920
   58DOPE  H12B 7360   3.086   0.958   8.783  0.9394 -2.0063 -2.8241
   58DOPE   C11 7361   3.045   1.139   8.678 -0.4520 -0.0627  0.1173
   58DOPE  H11A 7362   3.090   1.231   8.635 -2.7772  1.3846  0.5554
   58DOPE  H11B 7363   3.010   1.176   8.777  1.2440 -0.2122  0.8042
   58DOPE     P 7364   2.802   1.157   8.597 -0.2139 -0.4502  0.0002
   58DOPE   O13 7365   2.704   1.124   8.490 -0.0640 -0.6701 -0.0359
   58DOPE   O14 7366   2.821   1.302   8.633 -0.2012 -0.3337  0.0207
   58DOPE   O11 7367   2.754   1.087   8.728 -0.1730  0.6591 -0.1796
   58DOPE   O12 7368   2.941   1.087   8.590  0.1452  0.2981 -0.2339
   58DOPE    C1 7369   2.734   0.944   8.720 -0.7444  0.8575  0.0455
   58DOPE    HA 7370   2.792   0.897   8.803 -1.8341 -0.1743  0.2350
   58DOPE    HB 7371   2.773   0.904   8.624 -0.6569  2.4695 -0.6272
   58DOPE    C2 7372   2.583   0.900   8.724 -0.3136  0.5529  0.0961
   58DOPE    HS 7373   2.537   0.975   8.656 -0.7857  0.6503  0.5274
   58DOPE   O21 7374   2.534   0.931   8.860 -0.2980  0.4622  0.0074
   58DOPE   C21 7375   2.399   0.938   8.854  0.4217  0.4673  0.0322
   58DOPE   O22 7376   2.328   0.924   8.754 -0.5235 -0.4351 -0.1592
   58DOPE   C22 7377   2.346   0.978   8.988  0.3246  0.0637 -0.8114
   58DOPE   H2R 7378   2.297   1.077   8.977 -1.2769 -0.5256  0.5799
   58DOPE   H2S 7379   2.423   0.979   9.067 -1.4597  0.4801  1.0193
   58DOPE    C3 7380   2.547   0.751   8.664 -0.4859 -0.2405 -0.0276
   58DOPE    HX 7381   2.586   0.749   8.560 -2.6333  0.0793 -0.9063
   58DOPE    HY 7382   2.438   0.726   8.663 -0.4870 -0.9542  3.8414
   58DOPE   O31 7383   2.624   0.649   8.744  0.5963 -0.2768 -0.1557
   58DOPE   C31 7384   2.559   0.602   8.847 -0.4773 -0.3690 -0.0146
   58DOPE   O32 7385   2.445   0.619   8.873 -0.0163 -0.0165  0.3093
   58DOPE   C32 7386   2.660   0.528   8.944 -0.1884  0.4226 -0.0379
   58DOPE   H2X 7387   2.655   0.419   8.921  0.8152 -0.1904  2.2729
   58DOPE   H2Y 7388   2.760   0.573   8.926 -0.0204 -0.0974 -0.4258
   58DOPE   C23 7389   2.244   0.872   9.040 -0.5671 -0.4072 -0.1187
   58DOPE   H3R 7390   2.306   0.783   9.065  0.3621  0.5537  1.1121
   58DOPE   H3S 7391   2.183   0.842   8.952 -0.6706 -1.9557  0.4359
   58DOPE   C24 7392   2.156   0.922   9.152 -0.9144  0.3172 -0.4523
   58DOPE   H4R 7393   2.087   0.838   9.171  1.5750 -1.1413  3.1538
   58DOPE   H4S 7394   2.088   1.006   9.124 -0.8696  1.0589  1.5313
   58DOPE   C25 7395   2.225   0.946   9.287 -0.6328  0.0059 -0.1982
   58DOPE   H5R 7396   2.293   1.032   9.273  0.3664 -0.6859  0.2934
   58DOPE   H5S 7397   2.282   0.852   9.303 -1.7424 -0.8471 -1.0978
   58DOPE   C26 7398   2.141   0.962   9.415 -0.2497 -0.7664  0.7618
   58DOPE   H6R 7399   2.073   0.874   9.422 -0.4374 -0.7736 -0.6856
   58DOPE   H6S 7400   2.085   1.058   9.414  1.7343  0.4645  2.1472
   58DOPE   C27 7401   2.230   0.956   9.536  0.2658 -0.6646 -0.2560
   58DOPE   H7R 7402   2.335   0.982   9.510  0.0648 -0.7895 -1.2048
   58DOPE   H7S 7403   2.242   0.858   9.587 -0.1670 -0.4313  0.3034
   58DOPE   C28 7404   2.198   1.064   9.638 -0.7938  0.3833 -0.3936
   58DOPE   H8R 7405   2.221   1.162   9.590 -0.3755  0.1378 -0.6983
   58DOPE   H8S 7406   2.275   1.047   9.715  0.4029  1.3669 -1.3343
   58DOPE   C29 7407   2.064   1.065   9.700 -0.4303 -0.1295 -0.2215
   58DOPE   H9R 7408   1.997   0.983   9.671  1.4241 -1.9292  0.2887
   58DOPE  C210 7409   2.030   1.141   9.794 -0.1206 -0.4638 -0.5557
   58DOPE  H10R 7410   1.933   1.124   9.841  0.0471 -0.2764 -0.1411
   58DOPE  C211 7411   2.115   1.251   9.860 -0.4917 -0.3830 -0.4879
   58DOPE  H11R 7412   2.062   1.348   9.850  1.1920  0.4630 -1.6348
   58DOPE  H11S 7413   2.211   1.263   9.805 -0.5925  0.0124 -0.5781
   58DOPE  C212 7414   2.165   1.216  10.002  0.1290  0.1924  0.0703
   58DOPE  H12R 7415   2.245   1.289  10.028  0.3645 -0.2042  0.4793
   58DOPE  H12S 7416   2.207   1.114   9.994  1.1397  0.7328 -2.2650
   58DOPE  C213 7417   2.058   1.233  10.103 -0.0648 -0.2376  0.0914
   58DOPE  H13R 7418   1.962   1.194  10.062  0.3713 -1.1518 -0.0837
   58DOPE  H13S 7419   2.038   1.341  10.120  2.7386  0.4257 -0.3354
   58DOPE  C214 7420   2.088   1.182  10.243 -0.5256  0.3328 -0.0973
   58DOPE  H14R 7421   2.185   1.222  10.279 -1.2421  1.9739  0.1011
   58DOPE  H14S 7422   2.094   1.072  10.229 -0.0096 -0.0626  2.6920
   58DOPE  C215 7423   1.985   1.227  10.340  0.2250 -0.6170  0.4178
   58DOPE  H15R 7424   1.885   1.199  10.301  0.7679  0.7272 -2.1655
   58DOPE  H15S 7425   1.994   1.338  10.349 -1.8769 -0.3564 -0.3389
   58DOPE  C216 7426   2.000   1.159  10.480 -0.3732 -0.1734 -0.6774
   58DOPE  H16R 7427   2.090   1.186  10.540 -1.8460 -0.7392  1.9781
   58DOPE  H16S 7428   1.997   1.048  10.477 -0.4981 -0.1529 -1.3039
   58DOPE  C217 7429   1.877   1.211  10.562  0.7295  0.6622 -0.1694
   58DOPE  H17R 7430   1.852   1.134  10.637 -0.7551  1.1786 -0.1040
   58DOPE  H17S 7431   1.789   1.217  10.494  0.2802 -0.2592  0.3212
   58DOPE  C218 7432   1.898   1.345  10.632  0.2268  0.3853  0.6728
   58DOPE  H18R 7433   1.816   1.364  10.705  0.2016 -1.1730  1.0878
   58DOPE  H18S 7434   1.890   1.428  10.559 -1.2516  0.7291  1.1858
   58DOPE  H18T 7435   1.998   1.337  10.680  0.6887  1.9732  0.0255
   58DOPE   C33 7436   2.617   0.545   9.089 -0.3065  0.0732  0.1951
   58DOPE   H3X 7437   2.678   0.480   9.155 -1.1879 -0.9428  0.0375
   58DOPE   H3Y 7438   2.510   0.519   9.104 -0.2541 -0.4712 -0.3067
   58DOPE   C34 7439   2.639   0.692   9.145  0.1922  0.1722 -0.5713
   58DOPE   H4X 7440   2.746   0.720   9.160 -0.0303  0.7811 -0.0753
   58DOPE   H4Y 7441   2.594   0.760   9.070  1.4161  0.8284 -0.7362
   58DOPE   C35 7442   2.563   0.706   9.281  0.4386  0.8624  0.1667
   58DOPE   H5X 7443   2.608   0.634   9.352  0.3156  1.1421  0.5391
   58DOPE   H5Y 7444   2.457   0.684   9.256  0.7801  2.1807 -2.8991
   58DOPE   C36 7445   2.575   0.848   9.341  0.6211 -0.2246 -0.6580
   58DOPE   H6X 7446   2.493   0.867   9.413  2.0776  1.4566  0.6402
   58DOPE   H6Y 7447   2.557   0.920   9.259  0.6339  0.6019  0.0484
   58DOPE   C37 7448   2.709   0.884   9.406  0.5109 -0.3918 -0.0515
   58DOPE   H7X 7449   2.795   0.864   9.338  0.8686  0.0074  0.2755
   58DOPE   H7Y 7450   2.698   0.995   9.406  2.0106 -0.2164  0.5336
   58DOPE   C38 7451   2.734   0.833   9.542  0.0240 -0.0589 -0.1389
   58DOPE   H8X 7452   2.752   0.724   9.551 -1.0392 -0.3160 -1.0158
   58DOPE   H8Y 7453   2.641   0.842   9.602 -1.9603 -3.4428 -2.4237
   58DOPE   C39 7454   2.850   0.907   9.606  0.4101 -0.4984 -0.5795
   58DOPE   H9X 7455   2.905   0.982   9.547 -0.6026  0.1862 -0.6630
   58DOPE  C310 7456   2.877   0.907   9.735 -0.3456 -0.5120 -0.0233
   58DOPE  H10X 7457   2.953   0.975   9.776  0.5918 -1.3072 -0.4259
   58DOPE  C311 7458   2.815   0.828   9.844  0.9320 -0.3335  0.5617
   58DOPE  H11X 7459   2.705   0.832   9.830  0.9249 -1.2094  0.2667
   58DOPE  H11Y 7460   2.838   0.719   9.835  1.6105 -0.0401 -2.2364
   58DOPE  C312 7461   2.835   0.877   9.988  0.3201  0.3573 -0.0832
   58DOPE  H12X 7462   2.785   0.813  10.064 -0.0608  0.3246 -0.3573
   58DOPE  H12Y 7463   2.803   0.983   9.997  0.5187  0.7030 -2.6249
   58DOPE  C313 7464   2.977   0.877  10.027 -0.6138  0.1958  0.1085
   58DOPE  H13X 7465   3.037   0.790   9.994  0.2714  0.7814  0.1604
   58DOPE  H13Y 7466   3.022   0.968   9.983 -0.5620 -0.3058 -0.9141
   58DOPE  C314 7467   2.994   0.882  10.180 -0.6362 -0.2589  0.2877
   58DOPE  H14X 7468   3.102   0.898  10.201 -0.4133 -0.8407 -0.3620
   58DOPE  H14Y 7469   2.951   0.786  10.215 -0.5982 -0.6563 -0.7052
   58DOPE  C315 7470   2.922   0.997  10.256 -0.5356 -0.0918 -0.5611
   58DOPE  H15X 7471   2.813   0.982  10.271 -0.3033 -0.9627  0.3209
   58DOPE  H15Y 7472   2.933   1.088  10.193 -0.1146 -0.0052 -0.3629
   58DOPE  C316 7473   2.980   1.024  10.401  0.5734  0.0823  0.3214
   58DOPE  H16X 7474   2.932   1.115  10.442  1.1409  1.6842 -2.3290
   58DOPE  H16Y 7475   3.090   1.026  10.391  0.8252 -0.4613  2.4882
   58DOPE  C317 7476   2.956   0.913  10.502  0.9319 -0.1675  0.5488
   58DOPE  H17X 7477   2.845   0.901  10.503  1.0796 -1.7114  0.5867
   58DOPE  H17Y 7478   3.005   0.819  10.470  1.2559 -0.4376  1.7642
   58DOPE  C318 7479   3.008   0.958  10.643 -0.6421  0.0530 -0.1579
   58DOPE  H18X 7480   3.118   0.965  10.631 -0.2574 -1.2947  1.9870
   58DOPE  H18Y 7481   2.974   1.058  10.677 -2.2583  0.2061 -2.0392
   58DOPE  H18Z 7482   2.973   0.877  10.711  1.2200 -2.3799 -1.9157
   59DOPE     N 7483   3.645   3.388   9.551 -0.4760  0.0155  0.3795
   59DOPE   HN1 7484   3.681   3.484   9.534 -0.3954  0.1594  1.3163
   59DOPE   HN2 7485   3.689   3.366   9.642 -0.0268  2.8647  0.9252
   59DOPE   HN3 7486   3.682   3.330   9.473 -2.1270 -0.9419  0.2567
   59DOPE   C12 7487   3.503   3.401   9.567  0.2010  0.2637  0.1468
   59DOPE  H12A 7488   3.475   3.376   9.672  0.9549  0.7651  0.4666
   59DOPE  H12B 7489   3.467   3.322   9.497  0.7791  0.6080 -0.5416
   59DOPE   C11 7490   3.448   3.532   9.515  0.2697 -0.0637  0.4532
   59DOPE  H11A 7491   3.507   3.618   9.554  0.2907  0.5338 -0.8230
   59DOPE  H11B 7492   3.351   3.549   9.567 -0.7178  0.4090 -1.4380
   59DOPE     P 7493   3.339   3.637   9.296 -0.8485 -0.3468  0.0356
   59DOPE   O13 7494   3.366   3.639   9.149  0.1894  0.6304 -0.3684
   59DOPE   O14 7495   3.341   3.764   9.369 -0.0575 -0.2323  0.2243
   59DOPE   O11 7496   3.199   3.571   9.334 -0.3700  0.3527 -0.0337
   59DOPE   O12 7497   3.444   3.539   9.374  0.6616 -0.3142 -0.0268
   59DOPE    C1 7498   3.179   3.434   9.301  0.4348 -0.0215 -0.0381
   59DOPE    HA 7499   3.241   3.368   9.365  2.1196 -0.3562 -1.9227
   59DOPE    HB 7500   3.213   3.421   9.196 -0.5926  1.1444 -0.5289
   59DOPE    C2 7501   3.027   3.406   9.316  0.3023 -0.1049  0.8111
   59DOPE    HS 7502   2.975   3.491   9.268  0.2878  0.6306  2.1082
   59DOPE   O21 7503   2.990   3.401   9.456 -0.4408 -0.0301  0.1691
   59DOPE   C21 7504   2.861   3.432   9.482 -0.0354 -0.6393 -0.3527
   59DOPE   O22 7505   2.776   3.470   9.404 -0.1358 -0.1688  0.8501
   59DOPE   C22 7506   2.832   3.431   9.632  0.2849  0.6913  0.6005
   59DOPE   H2R 7507   2.815   3.539   9.654 -2.1133  0.3027  0.8948
   59DOPE   H2S 7508   2.927   3.407   9.684  1.7172 -0.2187 -2.2101
   59DOPE    C3 7509   2.980   3.274   9.244 -0.1000  0.3650 -0.7420
   59DOPE    HX 7510   2.977   3.287   9.133 -1.1603 -1.7699 -1.0222
   59DOPE    HY 7511   2.873   3.257   9.268  0.1006 -0.0187 -0.0903
   59DOPE   O31 7512   3.061   3.160   9.267 -0.4759 -0.3001  0.5235
   59DOPE   C31 7513   3.035   3.068   9.355 -0.0079 -0.0135  0.1505
   59DOPE   O32 7514   2.930   3.055   9.412  0.8902  0.0020  0.4505
   59DOPE   C32 7515   3.164   2.981   9.358 -0.0055  0.1995 -0.0525
   59DOPE   H2X 7516   3.158   2.882   9.308  0.3270 -0.3961  1.0372
   59DOPE   H2Y 7517   3.244   3.051   9.326  1.2174 -1.4584 -0.7393
   59DOPE   C23 7518   2.711   3.346   9.680  0.3830 -0.5650  0.1535
   59DOPE   H3R 7519   2.624   3.371   9.616  0.8837 -3.0273 -1.6266
   59DOPE   H3S 7520   2.693   3.379   9.784  2.2180 -2.8372  1.2646
   59DOPE   C24 7521   2.738   3.198   9.668 -0.1339 -0.4576 -0.3039
   59DOPE   H4R 7522   2.795   3.178   9.761  0.3966  1.3654 -0.1956
   59DOPE   H4S 7523   2.794   3.168   9.577  1.0171 -1.8714  0.8381
   59DOPE   C25 7524   2.606   3.121   9.660  0.0694  0.2038  0.2070
   59DOPE   H5R 7525   2.577   3.116   9.553  2.1901  0.1601 -0.4017
   59DOPE   H5S 7526   2.534   3.174   9.726  0.5799 -1.0206  1.8237
   59DOPE   C26 7527   2.622   2.976   9.721 -0.2468 -0.2164  0.1730
   59DOPE   H6R 7528   2.667   2.983   9.822  2.6680  1.5158 -1.1343
   59DOPE   H6S 7529   2.691   2.922   9.653  0.6674  1.8339 -0.6249
   59DOPE   C27 7530   2.485   2.910   9.736  0.4020  0.4267 -0.0637
   59DOPE   H7R 7531   2.458   2.884   9.631  2.0908  1.2308 -0.7330
   59DOPE   H7S 7532   2.409   2.980   9.776  0.5946 -0.0179  1.1093
   59DOPE   C28 7533   2.486   2.780   9.812  0.0877  0.4651 -0.2509
   59DOPE   H8R 7534   2.526   2.806   9.913  1.1104 -0.4712 -0.3857
   59DOPE   H8S 7535   2.565   2.716   9.766  1.1373  1.2307  0.4348
   59DOPE   C29 7536   2.358   2.697   9.826  0.6006  0.0568  0.1641
   59DOPE   H9R 7537   2.315   2.650   9.736 -0.1714 -0.0725  0.5934
   59DOPE  C210 7538   2.279   2.697   9.931 -0.3104  0.5086 -0.2300
   59DOPE  H10R 7539   2.180   2.650   9.915  0.1428 -0.6248  0.1987
   59DOPE  C211 7540   2.293   2.763  10.065  0.2734 -0.2091 -0.0402
   59DOPE  H11R 7541   2.202   2.823  10.086 -1.6652 -3.3478  1.3097
   59DOPE  H11S 7542   2.383   2.828  10.068  0.4860 -0.4824 -0.3690
   59DOPE  C212 7543   2.306   2.664  10.181  0.3238 -0.5508 -0.7885
   59DOPE  H12R 7544   2.321   2.717  10.277 -0.6354 -0.0416 -0.9073
   59DOPE  H12S 7545   2.398   2.602  10.179  0.5570 -0.1967 -1.1231
   59DOPE  C213 7546   2.201   2.549  10.192 -0.0130  0.6503  0.6350
   59DOPE  H13R 7547   2.205   2.487  10.100  0.1161 -3.2648  3.0305
   59DOPE  H13S 7548   2.098   2.590  10.200 -0.4713 -0.1440 -0.8341
   59DOPE  C214 7549   2.229   2.453  10.310  0.2761 -0.0071  0.0822
   59DOPE  H14R 7550   2.336   2.421  10.314  0.0439 -0.7396  0.7063
   59DOPE  H14S 7551   2.171   2.359  10.296  0.2286 -0.1546  1.2093
   59DOPE  C215 7552   2.204   2.506  10.450 -0.2971 -0.0335 -0.3906
   59DOPE  H15R 7553   2.106   2.557  10.453 -1.3654 -1.9405 -1.0120
   59DOPE  H15S 7554   2.287   2.573  10.479 -1.2300  0.8184  0.3421
   59DOPE  C216 7555   2.185   2.385  10.546  0.4158  0.7772 -0.1472
   59DOPE  H16R 7556   2.288   2.343  10.553  0.1811  0.4641  2.1732
   59DOPE  H16S 7557   2.113   2.306  10.515  2.2228 -1.2154  0.4282
   59DOPE  C217 7558   2.148   2.434  10.693 -0.7114  0.8726  0.6161
   59DOPE  H17R 7559   2.041   2.464  10.703 -1.0249 -0.2227  0.6757
   59DOPE  H17S 7560   2.209   2.524  10.715  0.6073  1.1123 -3.2630
   59DOPE  C218 7561   2.181   2.324  10.798  0.3141  0.0092  0.7260
   59DOPE  H18R 7562   2.150   2.363  10.898  0.3109  2.1053 -0.0299
   59DOPE  H18S 7563   2.289   2.297  10.789 -0.4685 -3.1331 -0.5303
   59DOPE  H18T 7564   2.122   2.238  10.761 -0.9342  1.1518  0.0017
   59DOPE   C33 7565   3.193   2.956   9.507  0.1606 -0.3612  0.6070
   59DOPE   H3X 7566   3.269   2.876   9.516 -0.5672 -1.1306  0.0957
   59DOPE   H3Y 7567   3.102   2.931   9.565 -0.8052 -1.0802 -1.1512
   59DOPE   C34 7568   3.255   3.088   9.568  0.3134  0.4726  0.8879
   59DOPE   H4X 7569   3.346   3.111   9.509  0.2443  1.2588  1.0789
   59DOPE   H4Y 7570   3.185   3.173   9.552  1.1923  1.7766  3.5661
   59DOPE   C35 7571   3.279   3.080   9.719  0.0194 -0.1809  0.1009
   59DOPE   H5X 7572   3.341   3.169   9.744  0.6582 -0.4671 -0.4325
   59DOPE   H5Y 7573   3.347   2.996   9.746  0.9322  0.6668  0.5323
   59DOPE   C36 7574   3.153   3.088   9.810  0.3804  0.3157  0.2189
   59DOPE   H6X 7575   3.095   2.994   9.801  0.4253  0.2985  0.1089
   59DOPE   H6Y 7576   3.087   3.167   9.769  2.1556  1.9239  0.3070
   59DOPE   C37 7577   3.188   3.138   9.950 -0.2282 -0.4400 -1.1363
   59DOPE   H7X 7578   3.265   3.217   9.951 -1.1127  0.4524 -0.0886
   59DOPE   H7Y 7579   3.097   3.184   9.993  0.5783  0.0063  0.1607
   59DOPE   C38 7580   3.234   3.016  10.031  0.2361  0.3197 -0.7755
   59DOPE   H8X 7581   3.339   2.993  10.006  0.3169 -0.3041  0.0912
   59DOPE   H8Y 7582   3.178   2.923  10.009 -0.2585 -0.3979  2.7867
   59DOPE   C39 7583   3.242   3.043  10.179 -0.2497  0.8195  0.1518
   59DOPE   H9X 7584   3.299   3.135  10.199 -1.0264  1.6170 -1.2231
   59DOPE  C310 7585   3.200   2.960  10.275  0.2335 -0.3891  0.1783
   59DOPE  H10X 7586   3.215   2.997  10.378 -1.4521 -0.2574  0.4056
   59DOPE  C311 7587   3.115   2.831  10.279 -0.7076  0.3370  0.2240
   59DOPE  H11X 7588   3.015   2.860  10.316 -0.0505  0.9421  1.5973
   59DOPE  H11Y 7589   3.106   2.791  10.176  1.6247 -0.2786  0.2036
   59DOPE  C312 7590   3.173   2.717  10.357 -0.2684  0.1546 -0.0063
   59DOPE  H12X 7591   3.276   2.696  10.323 -1.4613 -1.9185 -2.6076
   59DOPE  H12Y 7592   3.112   2.625  10.345  0.1070 -0.4872  2.4413
   59DOPE  C313 7593   3.158   2.737  10.512  0.2168 -0.3556 -0.6372
   59DOPE  H13X 7594   3.229   2.678  10.573 -1.1192 -0.6806  0.6769
   59DOPE  H13Y 7595   3.183   2.844  10.530 -0.6440 -0.2747  0.2511
   59DOPE  C314 7596   3.022   2.722  10.585 -0.8848  0.5946  0.3131
   59DOPE  H14X 7597   2.996   2.616  10.562  1.1958  0.2738 -0.7845
   59DOPE  H14Y 7598   2.957   2.796  10.534  0.0494  1.0830 -0.1887
   59DOPE  C315 7599   3.031   2.747  10.732  0.7669 -0.3540  0.5111
   59DOPE  H15X 7600   2.926   2.735  10.767  0.0513  1.3974 -0.9181
   59DOPE  H15Y 7601   3.068   2.850  10.752 -0.0115  0.2635 -1.1446
   59DOPE  C316 7602   3.115   2.639  10.813  0.2456 -0.0935 -0.3797
   59DOPE  H16X 7603   3.222   2.652  10.787  0.1628 -0.1903 -0.7665
   59DOPE  H16Y 7604   3.081   2.538  10.781 -0.2593 -0.0950  0.1515
   59DOPE  C317 7605   3.110   2.656  10.967 -0.7407  1.0405 -0.4646
   59DOPE  H17X 7606   3.156   2.750  11.005  0.7378 -0.5889  2.0271
   59DOPE  H17Y 7607   3.005   2.648  11.003 -0.4085 -3.8585  0.0551
   59DOPE  C318 7608   3.179   2.536  11.034  0.4492  0.6696  0.7694
   59DOPE  H18X 7609   3.145   2.531  11.140 -0.7884 -0.0195  0.3513
   59DOPE  H18Y 7610   3.150   2.437  10.992 -3.1733  0.9505  2.2125
   59DOPE  H18Z 7611   3.288   2.557  11.036  0.5468  0.1693  0.7827
   60DOPE     N 7612   2.867   1.507   8.780  0.2475 -0.1331  0.6105
   60DOPE   HN1 7613   2.830   1.588   8.726  0.0926 -0.9495 -0.5455
   60DOPE   HN2 7614   2.967   1.483   8.764  0.3822  1.6483 -1.8989
   60DOPE   HN3 7615   2.821   1.424   8.739  0.3045  0.1248 -0.0031
   60DOPE   C12 7616   2.840   1.522   8.930  0.0935 -0.3551  0.2961
   60DOPE  H12A 7617   2.929   1.573   8.973 -1.4362  0.1279  3.1618
   60DOPE  H12B 7618   2.834   1.421   8.975  2.8144  0.4506  2.7733
   60DOPE   C11 7619   2.730   1.624   8.957 -0.5094 -0.1195  0.2250
   60DOPE  H11A 7620   2.712   1.634   9.066 -2.2511 -1.5919  0.1043
   60DOPE  H11B 7621   2.637   1.591   8.907 -2.0050  1.9859  1.4399
   60DOPE     P 7622   2.682   1.876   8.884  0.4398 -0.1542  0.0871
   60DOPE   O13 7623   2.557   1.831   8.820 -0.0461 -0.4189 -0.7970
   60DOPE   O14 7624   2.760   1.984   8.809 -0.1287  0.0420  0.1789
   60DOPE   O11 7625   2.660   1.920   9.037  0.0621 -0.0375  0.2778
   60DOPE   O12 7626   2.776   1.748   8.901 -0.1491 -0.3521  0.3710
   60DOPE    C1 7627   2.764   1.969   9.119  0.1139  0.1077 -0.3266
   60DOPE    HA 7628   2.729   2.051   9.185  0.9837 -2.7832  4.2349
   60DOPE    HB 7629   2.849   2.007   9.059  0.9914 -1.3132 -0.0494
   60DOPE    C2 7630   2.818   1.858   9.213  0.5717  0.1890 -0.8790
   60DOPE    HS 7631   2.844   1.762   9.163  0.6947 -1.6110  2.3317
   60DOPE   O21 7632   2.724   1.840   9.329  0.2171  1.2960 -0.0690
   60DOPE   C21 7633   2.705   1.715   9.365  0.1218 -0.0504  0.2427
   60DOPE   O22 7634   2.748   1.613   9.318 -0.4069  0.7579  0.1804
   60DOPE   C22 7635   2.605   1.716   9.479  0.0890 -0.3353  0.7431
   60DOPE   H2R 7636   2.530   1.639   9.454 -0.6057  1.0795 -1.9120
   60DOPE   H2S 7637   2.560   1.818   9.485 -2.3568 -1.2797 -0.5101
   60DOPE    C3 7638   2.944   1.907   9.271 -0.3146 -0.1518 -0.1279
   60DOPE    HX 7639   2.929   2.002   9.326 -0.0380  0.4520 -1.0813
   60DOPE    HY 7640   3.012   1.925   9.185 -0.5694 -0.6121 -0.4280
   60DOPE   O31 7641   2.998   1.815   9.373 -0.0081  0.2145  0.2441
   60DOPE   C31 7642   3.064   1.711   9.340  0.6575 -0.2224  0.5913
   60DOPE   O32 7643   3.075   1.666   9.221 -0.1905 -0.3403 -0.0750
   60DOPE   C32 7644   3.128   1.647   9.467  0.0960  0.3692 -0.0004
   60DOPE   H2X 7645   3.048   1.604   9.532  0.2490  0.0816  0.0020
   60DOPE   H2Y 7646   3.192   1.573   9.415  0.7820  2.1622 -1.8211
   60DOPE   C23 7647   2.671   1.702   9.619 -0.4078 -0.2263 -0.1618
   60DOPE   H3R 7648   2.741   1.617   9.634  1.0539  0.7475 -1.2407
   60DOPE   H3S 7649   2.596   1.697   9.701 -0.8647  1.0777 -0.4682
   60DOPE   C24 7650   2.748   1.834   9.657 -0.0727  0.0902  0.2616
   60DOPE   H4R 7651   2.663   1.900   9.682 -0.4430 -0.8731  1.6957
   60DOPE   H4S 7652   2.805   1.869   9.569 -1.3731  2.4538  0.2666
   60DOPE   C25 7653   2.832   1.815   9.781  0.7325  0.5108  0.0208
   60DOPE   H5R 7654   2.874   1.915   9.807  0.5165  0.3501  1.0628
   60DOPE   H5S 7655   2.925   1.755   9.772  0.4543  0.0158  0.4051
   60DOPE   C26 7656   2.744   1.771   9.906 -0.3793 -0.0862  0.0593
   60DOPE   H6R 7657   2.689   1.677   9.886  0.1572 -0.5404  0.6814
   60DOPE   H6S 7658   2.672   1.855   9.921 -0.7053  0.1224 -2.2215
   60DOPE   C27 7659   2.834   1.739  10.022  0.1584 -0.1219  1.0122
   60DOPE   H7R 7660   2.902   1.827  10.023 -0.2996  0.2741 -0.2886
   60DOPE   H7S 7661   2.898   1.656   9.987  0.0834  0.7167 -1.2631
   60DOPE   C28 7662   2.762   1.711  10.156  0.0477 -0.3901  0.0197
   60DOPE   H8R 7663   2.709   1.616  10.132  0.7172 -0.6613 -0.4150
   60DOPE   H8S 7664   2.692   1.789  10.193  0.5242 -0.0099  0.1320
   60DOPE   C29 7665   2.861   1.686  10.273 -0.1084 -0.7792 -0.6349
   60DOPE   H9R 7666   2.965   1.669  10.240  0.2325  1.9532 -1.1615
   60DOPE  C210 7667   2.846   1.710  10.403  0.2197  0.3018  0.2647
   60DOPE  H10R 7668   2.940   1.698  10.459 -0.3114 -1.0092  0.9004
   60DOPE  C211 7669   2.726   1.776  10.469 -0.9428 -0.5473 -0.2327
   60DOPE  H11R 7670   2.666   1.828  10.391  0.2291  1.8401  0.3920
   60DOPE  H11S 7671   2.772   1.851  10.536  2.2537 -2.5288  0.0131
   60DOPE  C212 7672   2.640   1.671  10.541 -0.2161 -0.4257 -0.3399
   60DOPE  H12R 7673   2.638   1.570  10.497 -0.9480  0.1434 -1.6685
   60DOPE  H12S 7674   2.536   1.709  10.551 -0.9273 -2.5234  0.9002
   60DOPE  C213 7675   2.687   1.649  10.689 -0.3451 -0.3564  0.0827
   60DOPE  H13R 7676   2.652   1.744  10.735 -1.5070 -0.8225  0.1846
   60DOPE  H13S 7677   2.798   1.642  10.692 -0.4337 -2.1481  2.9979
   60DOPE  C214 7678   2.622   1.544  10.769  0.5361  0.3979 -0.8802
   60DOPE  H14R 7679   2.632   1.458  10.700  1.9827  0.9138 -1.3583
   60DOPE  H14S 7680   2.514   1.566  10.784  0.5261 -0.9663  1.5333
   60DOPE  C215 7681   2.686   1.521  10.904  0.1636  0.1598 -1.1372
   60DOPE  H15R 7682   2.668   1.604  10.975  0.4669  0.7298 -1.7148
   60DOPE  H15S 7683   2.794   1.522  10.879  0.6512  0.3141  0.8431
   60DOPE  C216 7684   2.665   1.379  10.961 -0.1035 -0.2878  0.1137
   60DOPE  H16R 7685   2.751   1.350  11.024 -1.4995  0.4641  2.4737
   60DOPE  H16S 7686   2.652   1.315  10.871  1.9654 -0.4221 -0.1436
   60DOPE  C217 7687   2.540   1.380  11.049  0.5541 -0.2303  0.7184
   60DOPE  H17R 7688   2.455   1.399  10.979  0.8730  0.6608  0.5633
   60DOPE  H17S 7689   2.550   1.468  11.115  1.3968  1.6127 -1.7188
   60DOPE  C218 7690   2.523   1.248  11.117 -0.3522  0.3368 -1.2000
   60DOPE  H18R 7691   2.433   1.246  11.183 -0.2371  1.5485 -0.9861
   60DOPE  H18S 7692   2.615   1.235  11.177 -0.0903  0.3352 -1.6033
   60DOPE  H18T 7693   2.527   1.164  11.044  0.8625 -1.3686  0.7135
   60DOPE   C33 7694   3.217   1.741   9.554  0.3070  0.5956 -0.1325
   60DOPE   H3X 7695   3.158   1.822   9.603 -0.0111  0.7119 -0.6973
   60DOPE   H3Y 7696   3.287   1.789   9.483 -0.1103  0.0515 -0.9299
   60DOPE   C34 7697   3.300   1.677   9.674  0.0585 -0.7429  0.0549
   60DOPE   H4X 7698   3.331   1.577   9.638 -1.9477 -1.4243  0.1004
   60DOPE   H4Y 7699   3.380   1.754   9.683  0.5901 -1.1952 -0.7362
   60DOPE   C35 7700   3.225   1.654   9.808  0.1529 -0.2271 -0.9094
   60DOPE   H5X 7701   3.153   1.571   9.789 -1.5964  0.4638  1.9942
   60DOPE   H5Y 7702   3.155   1.739   9.818 -0.6343 -0.4425 -3.8595
   60DOPE   C36 7703   3.308   1.664   9.932 -0.3178  0.5742  0.5138
   60DOPE   H6X 7704   3.372   1.755   9.928  1.5421 -0.7280 -0.6074
   60DOPE   H6Y 7705   3.375   1.576   9.930 -0.2844  0.5743  1.4029
   60DOPE   C37 7706   3.227   1.670  10.061 -0.0359  0.4600  0.2734
   60DOPE   H7X 7707   3.172   1.767  10.058 -1.7843 -0.5203 -2.3214
   60DOPE   H7Y 7708   3.155   1.588  10.042  0.9583 -0.4004  0.2009
   60DOPE   C38 7709   3.331   1.650  10.174 -0.8724  0.8048 -0.0737
   60DOPE   H8X 7710   3.425   1.700  10.142  0.4152 -0.5722  1.4171
   60DOPE   H8Y 7711   3.351   1.541  10.180 -2.1182  0.5227 -0.6892
   60DOPE   C39 7712   3.288   1.704  10.311 -0.4169 -0.5686  0.2675
   60DOPE   H9X 7713   3.283   1.814  10.313  4.0116 -0.1998 -0.7890
   60DOPE  C310 7714   3.260   1.642  10.423 -0.5926  1.2699 -0.0265
   60DOPE  H10X 7715   3.245   1.705  10.512 -1.0138  2.9634 -1.2412
   60DOPE  C311 7716   3.280   1.490  10.434  0.1867  0.5677  0.0791
   60DOPE  H11X 7717   3.315   1.441  10.341 -1.1445 -1.7140  0.7170
   60DOPE  H11Y 7718   3.361   1.469  10.507 -1.3111 -1.4976  1.2458
   60DOPE  C312 7719   3.154   1.420  10.485 -0.0002 -0.4605  0.5888
   60DOPE  H12X 7720   3.125   1.362  10.394  1.4642  0.7569 -0.6983
   60DOPE  H12Y 7721   3.072   1.485  10.522  2.0423  1.3340  2.1677
   60DOPE  C313 7722   3.178   1.315  10.595 -0.3182 -0.1946 -0.8023
   60DOPE  H13X 7723   3.101   1.235  10.601 -0.9782  0.5157  0.5743
   60DOPE  H13Y 7724   3.283   1.280  10.582 -0.2712 -0.1442 -0.5598
   60DOPE  C314 7725   3.194   1.385  10.733  0.1935 -0.1354  0.7633
   60DOPE  H14X 7726   3.097   1.440  10.738  0.3652  0.4337 -1.2545
   60DOPE  H14Y 7727   3.268   1.468  10.733 -1.3964  1.3744 -0.2973
   60DOPE  C315 7728   3.215   1.292  10.851 -0.1221  0.3518 -0.2247
   60DOPE  H15X 7729   3.304   1.311  10.916 -0.4623 -0.4502  0.4929
   60DOPE  H15Y 7730   3.228   1.188  10.815 -2.5441 -0.9968  2.3242
   60DOPE  C316 7731   3.089   1.290  10.941  0.2798 -0.3019  0.2810
   60DOPE  H16X 7732   2.996   1.289  10.879  1.2368  1.9499 -1.3361
   60DOPE  H16Y 7733   3.094   1.388  10.993 -1.5377  1.2692 -2.2532
   60DOPE  C317 7734   3.094   1.178  11.049 -0.4112 -0.1450  0.7128
   60DOPE  H17X 7735   3.203   1.156  11.058 -0.0318  0.1673 -2.0960
   60DOPE  H17Y 7736   3.047   1.212  11.144  1.0179 -1.4523  1.9549
   60DOPE  C318 7737   3.022   1.049  11.016  0.2709  0.7159  0.1580
   60DOPE  H18X 7738   2.914   1.064  10.993  0.7676  1.1596 -2.0649
   60DOPE  H18Y 7739   3.062   1.010  10.920  0.3493  1.8672 -0.2891
   60DOPE  H18Z 7740   3.032   0.976  11.100  1.0840  0.1008 -0.4530
   6123SM     N 7741   5.624   4.976  14.581  0.2436 -0.1414  0.0625
   6123SM   C15 7742   5.694   5.097  14.615  0.3184  0.5984 -0.2550
   6123SM  H15A 7743   5.670   5.184  14.554 -0.5022  1.5790  1.3727
   6123SM  H15B 7744   5.802   5.098  14.610  0.3580  1.8246  0.3831
   6123SM  H15C 7745   5.675   5.130  14.716  0.0596 -2.2468  0.7171
   6123SM   C14 7746   5.674   4.868  14.673  0.0784 -0.4450 -0.1089
   6123SM  H14A 7747   5.782   4.862  14.673  0.0542 -1.0761 -0.8135
   6123SM  H14B 7748   5.622   4.776  14.650 -0.9475 -0.2131  1.1842
   6123SM  H14C 7749   5.652   4.876  14.778 -0.7405  0.0795 -0.3123
   6123SM   C13 7750   5.481   4.999  14.620  0.2594 -0.4666  0.1140
   6123SM  H13A 7751   5.438   5.071  14.552  0.0349 -0.7298 -0.0268
   6123SM  H13B 7752   5.462   5.013  14.725  0.0061  0.6129 -0.0673
   6123SM  H13C 7753   5.425   4.907  14.607 -1.9162  0.4115  2.3588
   6123SM   C12 7754   5.624   4.932  14.438  0.0573 -0.2444 -0.1839
   6123SM  H12A 7755   5.587   5.011  14.374  2.6784  0.8909 -0.4450
   6123SM  H12B 7756   5.565   4.843  14.423  1.2739 -1.0529 -0.3746
   6123SM   C11 7757   5.764   4.911  14.367 -0.0444 -0.3886 -0.7178
   6123SM  H11A 7758   5.759   4.872  14.264 -0.4855  1.5618 -1.4865
   6123SM  H11B 7759   5.808   4.834  14.434 -0.8215  1.2770  1.8796
   6123SM     P 7760   5.808   5.162  14.293  0.0191 -0.3858 -0.1734
   6123SM   O13 7761   5.673   5.155  14.245  0.9011 -0.2344  0.7045
   6123SM   O14 7762   5.852   5.279  14.377 -0.1748  0.0820  0.3793
   6123SM   O11 7763   5.893   5.169  14.164  0.4841  0.1747 -0.0029
   6123SM   O12 7764   5.842   5.030  14.372  0.9064 -0.1678 -0.5599
   6123SM   C1S 7765   5.939   5.045  14.103 -0.2162  0.1215  0.7875
   6123SM   H1S 7766   5.857   4.971  14.090  0.4513 -0.5301  0.2067
   6123SM   H1T 7767   6.013   4.981  14.157  0.0969  0.0529  0.2832
   6123SM    NF 7768   6.019   4.963  13.883 -0.4204  1.0943 -0.1550
   6123SM   HNF 7769   6.107   4.919  13.895 -1.7478 -1.6572  0.3850
   6123SM   C2S 7770   5.994   5.078  13.964  0.2468  0.8572  0.1605
   6123SM   H2S 7771   5.919   5.130  13.901 -0.7955 -1.1846 -0.3477
   6123SM   C3S 7772   6.121   5.168  13.974 -0.3490  0.9375 -0.9149
   6123SM   H3S 7773   6.194   5.116  14.039 -1.9865 -0.0664  0.1797
   6123SM    O3 7774   6.093   5.283  14.045 -0.3370 -0.1344 -0.2543
   6123SM   HO3 7775   6.012   5.257  14.090  0.1796 -1.9240 -0.2782
   6123SM   C4S 7776   6.169   5.211  13.836 -0.3250  0.2459 -0.6937
   6123SM   H4S 7777   6.105   5.278  13.777  0.4761  0.3023 -1.5175
   6123SM   C5S 7778   6.269   5.157  13.765  0.2952  0.2243 -0.1812
   6123SM   H5S 7779   6.312   5.061  13.799  1.3711  0.4699 -0.8133
   6123SM   C6S 7780   6.314   5.202  13.629 -0.1426  0.4997 -0.5200
   6123SM   H6S 7781   6.422   5.229  13.634 -0.3737  1.5376 -0.8615
   6123SM   H6T 7782   6.252   5.289  13.600  0.3192  1.0663  0.1528
   6123SM   C7S 7783   6.308   5.088  13.525  0.9353 -1.0023 -0.0476
   6123SM   H7S 7784   6.203   5.050  13.521  0.3252  0.5543  0.3985
   6123SM   H7T 7785   6.369   5.007  13.571 -0.8960 -1.8961  0.9448
   6123SM   C8S 7786   6.348   5.134  13.384  0.5138  0.2082 -0.0103
   6123SM   H8S 7787   6.459   5.134  13.385  0.5307 -0.3109 -0.7236
   6123SM   H8T 7788   6.306   5.235  13.366  0.6589  0.0033 -1.7278
   6123SM   C9S 7789   6.304   5.029  13.281 -0.4669 -0.1564 -0.6317
   6123SM   H9S 7790   6.194   5.015  13.288 -0.5240  0.3095 -0.5588
   6123SM   H9T 7791   6.339   4.928  13.313 -2.0696  0.0745  2.1078
   6123SM  C10S 7792   6.353   5.066  13.142 -0.6007 -0.5047 -0.1890
   6123SM  H10S 7793   6.464   5.079  13.136 -0.3297 -1.4380  1.9390
   6123SM  H10T 7794   6.304   5.162  13.114  1.5595  0.3872 -1.1274
   6123SM  C11S 7795   6.319   4.965  13.036  0.2851 -0.0367 -0.5905
   6123SM  H11S 7796   6.223   4.917  13.062  0.6280 -1.0802 -1.2009
   6123SM  H11T 7797   6.394   4.884  13.051  0.5891  0.3162 -0.1920
   6123SM  C12S 7798   6.321   5.023  12.897 -0.0850 -0.0662 -0.7524
   6123SM  H12S 7799   6.314   5.134  12.892 -1.4388  0.0572  2.0733
   6123SM  H12T 7800   6.233   4.977  12.848 -0.5484  0.9615 -0.9239
   6123SM  C13S 7801   6.458   4.992  12.819  0.0359 -0.5208  0.1278
   6123SM  H13S 7802   6.486   4.885  12.831  0.3840 -0.2958  1.5154
   6123SM  H13T 7803   6.535   5.057  12.866 -1.2763  1.6773 -0.5993
   6123SM  C14S 7804   6.445   5.032  12.673 -0.0885  0.1247 -0.2540
   6123SM  H14S 7805   6.423   5.141  12.671  0.7572  0.2941 -2.3304
   6123SM  H14T 7806   6.352   4.984  12.635  0.4358 -0.1529 -1.2168
   6123SM  C15S 7807   6.578   5.019  12.606  0.8951  0.3250  0.8981
   6123SM  H15S 7808   6.626   4.919  12.610  0.5147  0.1600  1.3335
   6123SM  H15T 7809   6.651   5.089  12.652  2.6810 -1.0355  0.2326
   6123SM  C16S 7810   6.579   5.063  12.459  0.4589  0.0652  0.3330
   6123SM  H16S 7811   6.688   5.072  12.440  0.1810  4.4348 -0.2114
   6123SM  H16T 7812   6.533   5.164  12.456  0.4346  0.0307 -1.4378
   6123SM  C17S 7813   6.499   4.971  12.368  0.1175 -0.1063 -0.0463
   6123SM  H17S 7814   6.400   4.951  12.415  0.6069  0.1115  1.1170
   6123SM  H17T 7815   6.539   4.868  12.358 -0.4612 -0.2700 -0.7630
   6123SM  C18S 7816   6.465   5.027  12.222 -0.1498  0.0261 -0.4177
   6123SM  H18S 7817   6.554   5.073  12.175 -0.0024  0.5649  0.3733
   6123SM  H18T 7818   6.386   5.104  12.229 -1.1267 -0.6505 -3.0158
   6123SM  H18U 7819   6.420   4.947  12.159  0.1759 -0.5053  0.0111
   6123SM   C1F 7820   5.923   4.885  13.836 -0.2759  0.0887  0.3010
   6123SM    OF 7821   5.812   4.925  13.808 -0.2413 -0.3825 -0.7370
   6123SM   C2F 7822   5.947   4.736  13.819 -0.0363 -0.2770 -0.1146
   6123SM   H2F 7823   5.892   4.681  13.899 -1.2633 -0.8253 -1.2986
   6123SM   H2G 7824   6.055   4.711  13.818 -0.2696 -1.2885 -1.4877
   6123SM   C3F 7825   5.892   4.669  13.690 -0.2238  0.2152  0.5057
   6123SM   H3F 7826   5.782   4.677  13.701 -0.4496 -1.2514 -0.4432
   6123SM   H3G 7827   5.922   4.563  13.697 -2.7524 -0.6874 -1.1351
   6123SM   C4F 7828   5.955   4.735  13.564  0.6003  0.2960  0.0502
   6123SM   H4F 7829   6.065   4.727  13.576  0.5984  1.8582  1.5171
   6123SM   H4G 7830   5.919   4.839  13.549 -3.4367 -0.9047  0.1464
   6123SM   C5F 7831   5.925   4.666  13.432 -0.2817 -0.0550 -0.2263
   6123SM   H5F 7832   5.815   4.664  13.418  0.0078  2.5063 -4.9328
   6123SM   H5G 7833   5.960   4.561  13.440  1.1243  0.3527 -0.7346
   6123SM   C6F 7834   5.970   4.733  13.305 -1.3346 -0.3608 -0.6839
   6123SM   H6F 7835   6.081   4.744  13.300 -1.2928 -0.5400 -0.1799
   6123SM   H6G 7836   5.938   4.839  13.315  0.6762  0.0866  2.4465
   6123SM   C7F 7837   5.925   4.672  13.174 -0.0342 -0.0404 -0.1636
   6123SM   H7F 7838   5.816   4.687  13.155  0.0027  2.6880  1.2266
   6123SM   H7G 7839   5.962   4.569  13.191  0.5294  0.5290  2.4459
   6123SM   C8F 7840   6.016   4.737  13.068 -0.1922 -0.5708  0.1605
   6123SM   H8F 7841   6.124   4.728  13.095  0.2343  0.6027 -1.0872
   6123SM   H8G 7842   5.997   4.846  13.064 -0.5933 -0.6198  0.6176
   6123SM   C9F 7843   5.992   4.677  12.934 -0.0396  0.0265  0.2755
   6123SM   H9F 7844   5.884   4.687  12.909 -0.8406 -1.6536  2.6936
   6123SM   H9G 7845   6.011   4.568  12.933  1.4444  0.2209  2.2744
   6123SM  C10F 7846   6.063   4.744  12.822 -0.8949 -0.0999 -0.5440
   6123SM  H10F 7847   6.170   4.725  12.843 -0.5704  1.2732 -0.8367
   6123SM  H10G 7848   6.046   4.854  12.819 -1.1745 -0.1543 -2.4547
   6123SM  C11F 7849   6.024   4.688  12.686 -0.7576  0.6910  0.6137
   6123SM  H11F 7850   5.915   4.666  12.684 -0.6339  0.0371  0.8994
   6123SM  H11G 7851   6.077   4.592  12.669 -2.2531 -0.0681  0.0697
   6123SM  C12F 7852   6.066   4.781  12.571  0.7440  0.1881  0.1670
   6123SM  H12F 7853   6.176   4.793  12.566  0.7871 -0.3490 -0.3419
   6123SM  H12G 7854   6.022   4.879  12.600 -0.4156 -0.9741  2.6629
   6123SM  C13F 7855   6.024   4.725  12.434 -0.2283 -0.1177  0.5202
   6123SM  H13F 7856   5.916   4.705  12.419 -0.1030  0.4898 -1.5259
   6123SM  H13G 7857   6.084   4.632  12.426 -1.6537 -1.0892  0.8248
   6123SM  C14F 7858   6.078   4.816  12.321  0.4261  1.0224  0.0796
   6123SM  H14F 7859   6.180   4.855  12.343  0.2513  0.3991  2.2471
   6123SM  H14G 7860   6.022   4.911  12.310 -0.3146  0.6675  0.6963
   6123SM  C15F 7861   6.084   4.738  12.188 -0.1631  0.7053 -0.3268
   6123SM  H15F 7862   5.989   4.682  12.179 -0.5144  0.4300  3.5531
   6123SM  H15G 7863   6.168   4.666  12.199 -0.4249  0.3870 -0.4054
   6123SM  C16F 7864   6.127   4.821  12.067  0.7791 -0.5724 -0.2867
   6123SM  H16F 7865   6.230   4.862  12.082  0.3969  0.9215 -1.4881
   6123SM  H16G 7866   6.054   4.905  12.060  1.0071 -0.3911 -0.4951
   6123SM  C17F 7867   6.131   4.736  11.940  0.2601 -0.4267 -0.5573
   6123SM  H17F 7868   6.041   4.672  11.926  0.7587 -1.5761  1.1849
   6123SM  H17G 7869   6.215   4.666  11.959 -0.6403 -1.9337 -1.8167
   6123SM  C18F 7870   6.152   4.819  11.811 -0.2274 -0.3448  0.3608
   6123SM  H18F 7871   6.056   4.839  11.759  0.2602  0.2976 -0.3130
   6123SM  H18G 7872   6.206   4.750  11.743  2.3380 -0.3032  2.1890
   6123SM  C19F 7873   6.236   4.948  11.817  0.6639  0.1983  0.1612
   6123SM  H19F 7874   6.332   4.927  11.868  1.8325 -0.2589 -2.0991
   6123SM  H19G 7875   6.171   5.021  11.870 -2.7676 -1.3372 -1.6321
   6123SM  C20F 7876   6.275   5.000  11.680 -0.8608 -0.1825  0.2734
   6123SM  H20F 7877   6.184   5.025  11.622 -0.6920  0.6636  0.3553
   6123SM  H20G 7878   6.332   4.927  11.618  1.6760  0.5600  1.5906
   6123SM  C21F 7879   6.354   5.136  11.682 -0.4936  0.0129  0.1826
   6123SM  H21F 7880   6.335   5.195  11.774 -0.6245  1.4971 -0.7598
   6123SM  H21G 7881   6.314   5.183  11.589  2.5204  1.2441 -0.6199
   6123SM  C22F 7882   6.498   5.117  11.665  0.3938 -0.0053  0.8167
   6123SM  H22F 7883   6.517   5.027  11.603 -1.0726  1.0911 -1.3594
   6123SM  H22G 7884   6.548   5.110  11.764  0.5487 -0.5282  0.7051
   6123SM  C23F 7885   6.575   5.239  11.592  0.0102 -0.4357  0.1895
   6123SM  H23F 7886   6.552   5.237  11.483  1.1956 -3.4359 -0.1135
   6123SM  H23G 7887   6.686   5.234  11.602 -0.0551 -2.0769  0.3949
   6123SM  H23H 7888   6.527   5.334  11.623 -0.7818 -0.1042 -1.8450
   6223SM     N 7889   6.499   5.098  14.452 -0.2607 -0.1155 -0.8113
   6223SM   C15 7890   6.574   5.044  14.339  0.2634  1.0881  0.9973
   6223SM  H15A 7891   6.521   4.953  14.313  1.2391  0.5192  0.9760
   6223SM  H15B 7892   6.670   5.010  14.373 -0.6470 -0.7771  1.8656
   6223SM  H15C 7893   6.589   5.118  14.262 -1.5297  0.8017  0.3006
   6223SM   C14 7894   6.496   4.992  14.561  0.4178  0.2503  0.7483
   6223SM  H14A 7895   6.459   4.904  14.511  1.7790  1.5187 -2.7820
   6223SM  H14B 7896   6.426   5.013  14.641 -0.2713  1.8829 -0.2352
   6223SM  H14C 7897   6.593   4.963  14.596  0.7334  1.3150  0.7963
   6223SM   C13 7898   6.562   5.215  14.510  0.1734 -0.3774  0.6688
   6223SM  H13A 7899   6.665   5.189  14.531  0.1247 -0.3538  0.9418
   6223SM  H13B 7900   6.534   5.249  14.608 -2.1446  0.0399 -0.0833
   6223SM  H13C 7901   6.567   5.298  14.441  1.5606 -0.2753  0.8703
   6223SM   C12 7902   6.356   5.141  14.412  0.5350  0.1900 -0.0484
   6223SM  H12A 7903   6.357   5.237  14.361  0.7213 -0.4278 -1.2335
   6223SM  H12B 7904   6.290   5.158  14.495 -1.1187  0.5819 -1.3961
   6223SM   C11 7905   6.284   5.045  14.322 -0.1730  0.0072  0.9158
   6223SM  H11A 7906   6.339   5.052  14.226  0.1947 -1.6898  0.9567
   6223SM  H11B 7907   6.183   5.088  14.306 -0.5115 -0.7934  0.8601
   6223SM     P 7908   6.271   4.783  14.283  0.2113  0.1184  0.1258
   6223SM   O13 7909   6.311   4.667  14.365  0.4547 -0.0246  0.1633
   6223SM   O14 7910   6.143   4.770  14.214 -0.4650 -0.2234 -0.0569
   6223SM   O11 7911   6.378   4.811  14.171  0.3310 -0.2081 -0.0728
   6223SM   O12 7912   6.276   4.912  14.371  0.3333  0.0276  0.0067
   6223SM   C1S 7913   6.481   4.720  14.131 -0.2367 -0.1160 -0.1100
   6223SM   H1S 7914   6.510   4.648  14.211  0.3721 -1.1136 -1.2023
   6223SM   H1T 7915   6.574   4.774  14.104  0.7832 -2.3299 -1.2424
   6223SM    NF 7916   6.533   4.540  13.964  0.8109 -0.1227  0.4433
   6223SM   HNF 7917   6.600   4.577  13.900 -0.4862  1.5816 -0.0199
   6223SM   C2S 7918   6.436   4.643  14.001 -0.0500 -0.2273 -0.6498
   6223SM   H2S 7919   6.340   4.598  14.033 -0.4134  2.1014  1.9112
   6223SM   C3S 7920   6.394   4.746  13.891 -0.2157  0.3800 -0.2932
   6223SM   H3S 7921   6.488   4.802  13.875  2.3739 -2.8822  1.9986
   6223SM    O3 7922   6.289   4.832  13.931  0.3370  0.2999  0.4104
   6223SM   HO3 7923   6.265   4.812  14.022  3.9225  0.9036  1.6705
   6223SM   C4S 7924   6.356   4.678  13.767 -0.2619 -0.9916 -0.6038
   6223SM   H4S 7925   6.418   4.724  13.689  1.4731  0.7243  1.6647
   6223SM   C5S 7926   6.273   4.578  13.742  0.6017 -0.2927 -0.2155
   6223SM   H5S 7927   6.208   4.528  13.815 -1.7732 -0.3246 -2.1996
   6223SM   C6S 7928   6.253   4.516  13.606 -0.6715  0.9790  0.4104
   6223SM   H6S 7929   6.146   4.487  13.603 -1.0564  1.5542  3.9081
   6223SM   H6T 7930   6.313   4.422  13.608  0.6194  1.7135 -1.3410
   6223SM   C7S 7931   6.309   4.588  13.487  0.2880 -0.2071 -0.2968
   6223SM   H7S 7932   6.417   4.602  13.510  0.3705 -0.4184 -0.5520
   6223SM   H7T 7933   6.269   4.691  13.474  0.1468 -0.2327 -0.0768
   6223SM   C8S 7934   6.295   4.494  13.361  0.3269 -0.9729  0.3603
   6223SM   H8S 7935   6.189   4.464  13.349 -0.2974  1.8336 -2.7664
   6223SM   H8T 7936   6.358   4.403  13.366 -2.9876 -3.5736 -1.4290
   6223SM   C9S 7937   6.348   4.576  13.235 -0.5257  0.1049  0.4907
   6223SM   H9S 7938   6.451   4.614  13.248  0.8581 -1.4394 -4.1265
   6223SM   H9T 7939   6.289   4.670  13.228 -1.1865 -0.0812  2.6150
   6223SM  C10S 7940   6.346   4.501  13.099  0.1315  0.5596  0.0988
   6223SM  H10S 7941   6.249   4.457  13.067  1.2410 -1.5815 -0.4980
   6223SM  H10T 7942   6.409   4.410  13.108 -0.5524  0.1628  1.0487
   6223SM  C11S 7943   6.410   4.585  12.981  0.0241  0.3761 -0.2126
   6223SM  H11S 7944   6.504   4.625  13.022  0.8458 -0.2120 -1.4398
   6223SM  H11T 7945   6.343   4.674  12.972  0.6024  0.7441 -1.0281
   6223SM  C12S 7946   6.431   4.518  12.845  0.5535 -0.4519 -0.2246
   6223SM  H12S 7947   6.353   4.443  12.823  0.2090  0.2534 -1.5650
   6223SM  H12T 7948   6.532   4.471  12.844  0.5116 -0.6616  1.7213
   6223SM  C13S 7949   6.424   4.616  12.724 -0.8226 -0.0725  0.2685
   6223SM  H13S 7950   6.496   4.699  12.741 -0.8903  0.1517 -0.4988
   6223SM  H13T 7951   6.326   4.668  12.720  0.2840  2.2140  1.0926
   6223SM  C14S 7952   6.453   4.541  12.589  0.7024 -0.2220 -0.3560
   6223SM  H14S 7953   6.374   4.464  12.578 -0.8296  1.5163 -2.0124
   6223SM  H14T 7954   6.551   4.489  12.603 -0.0229 -1.1093  1.9361
   6223SM  C15S 7955   6.461   4.632  12.469  0.4819  0.2680  0.6276
   6223SM  H15S 7956   6.551   4.696  12.478 -0.1192  1.2749 -0.2831
   6223SM  H15T 7957   6.369   4.693  12.454 -0.6138 -2.1197 -4.7568
   6223SM  C16S 7958   6.471   4.550  12.340  0.3735 -0.4918  0.1948
   6223SM  H16S 7959   6.369   4.512  12.320 -0.1613 -0.0577  1.9658
   6223SM  H16T 7960   6.537   4.461  12.353 -0.9052 -1.2018  2.2444
   6223SM  C17S 7961   6.512   4.636  12.214  0.5344  0.2525 -0.2798
   6223SM  H17S 7962   6.617   4.669  12.227  0.4925  0.7205 -1.0708
   6223SM  H17T 7963   6.447   4.722  12.239  1.2361  0.5291  0.6668
   6223SM  C18S 7964   6.484   4.569  12.086 -0.5437 -0.8953  0.4956
   6223SM  H18S 7965   6.558   4.488  12.066 -2.1627 -1.8469 -2.0265
   6223SM  H18T 7966   6.487   4.636  11.998  2.0704 -0.6602  0.6748
   6223SM  H18U 7967   6.383   4.525  12.078 -0.5036 -0.8975 -0.0378
   6223SM   C1F 7968   6.541   4.417  14.014 -0.2806  0.1781 -0.3737
   6223SM    OF 7969   6.465   4.382  14.102 -0.3995 -0.5499  0.1702
   6223SM   C2F 7970   6.651   4.339  13.966 -0.0809  0.3358  0.2431
   6223SM   H2F 7971   6.713   4.323  14.056  0.3924  2.0992  0.2740
   6223SM   H2G 7972   6.708   4.386  13.882 -0.8609 -2.4356 -1.9925
   6223SM   C3F 7973   6.601   4.205  13.911 -1.0091 -0.6169 -0.5323
   6223SM   H3F 7974   6.547   4.218  13.815  0.4294 -2.8934 -1.7315
   6223SM   H3G 7975   6.527   4.158  13.979 -0.3831 -0.0885  0.5406
   6223SM   C4F 7976   6.714   4.106  13.881 -0.5249 -0.0654 -0.0636
   6223SM   H4F 7977   6.679   4.001  13.871 -0.3932 -0.1355  0.1994
   6223SM   H4G 7978   6.783   4.124  13.966 -0.7149 -1.3006  0.3825
   6223SM   C5F 7979   6.801   4.141  13.758  0.1157  0.2343  0.3053
   6223SM   H5F 7980   6.895   4.081  13.765 -0.8056 -1.1174  1.6433
   6223SM   H5G 7981   6.829   4.248  13.762  1.3578  0.1392 -2.9038
   6223SM   C6F 7982   6.721   4.128  13.626 -0.6385 -0.1303  0.4494
   6223SM   H6F 7983   6.622   4.177  13.629 -0.0376  1.3402 -1.6297
   6223SM   H6G 7984   6.698   4.019  13.619  1.5931 -0.5547 -2.0232
   6223SM   C7F 7985   6.779   4.163  13.490  0.8161 -0.1636 -0.3646
   6223SM   H7F 7986   6.873   4.116  13.453 -1.0113 -1.9103 -3.1796
   6223SM   H7G 7987   6.792   4.273  13.479 -2.3473  0.3906  0.5905
   6223SM   C8F 7988   6.686   4.108  13.376  0.3826  0.3827 -0.2611
   6223SM   H8F 7989   6.584   4.133  13.411  0.7617  1.1882  0.2862
   6223SM   H8G 7990   6.694   3.997  13.375 -1.4209  0.1956  0.8365
   6223SM   C9F 7991   6.715   4.174  13.237 -0.2330 -0.3795 -0.1904
   6223SM   H9F 7992   6.739   4.281  13.249 -1.8903  0.1517 -1.3012
   6223SM   H9G 7993   6.624   4.181  13.174 -0.4524 -0.2721  0.1411
   6223SM  C10F 7994   6.810   4.091  13.147  0.3438  0.1033 -0.3679
   6223SM  H10F 7995   6.764   3.992  13.130 -1.2043  0.5941  0.7613
   6223SM  H10G 7996   6.907   4.096  13.201 -1.7946  1.9409  3.6894
   6223SM  C11F 7997   6.825   4.153  13.004 -0.4536  0.2410 -0.1001
   6223SM  H11F 7998   6.899   4.089  12.951 -1.0536  0.1645 -0.8552
   6223SM  H11G 7999   6.869   4.255  13.009  0.4599 -0.1340 -0.1090
   6223SM  C12F 8000   6.702   4.155  12.914  0.7938 -0.0357 -0.0819
   6223SM  H12F 8001   6.621   4.219  12.955  2.3342  0.5141  2.2837
   6223SM  H12G 8002   6.663   4.051  12.909  0.1547  0.2212 -0.5459
   6223SM  C13F 8003   6.736   4.201  12.774  0.5509 -0.3203 -0.3335
   6223SM  H13F 8004   6.828   4.148  12.739  0.5884 -1.4645  1.3744
   6223SM  H13G 8005   6.752   4.311  12.775  0.1387 -0.2592  0.7364
   6223SM  C14F 8006   6.626   4.167  12.671  0.3316  0.2261 -0.4306
   6223SM  H14F 8007   6.543   4.239  12.689  0.0915 -0.2911  0.5713
   6223SM  H14G 8008   6.579   4.067  12.678  0.4093  0.1246 -1.2752
   6223SM  C15F 8009   6.694   4.180  12.537 -0.3308 -0.0535  0.4427
   6223SM  H15F 8010   6.782   4.113  12.543 -0.4145 -0.2874 -0.6690
   6223SM  H15G 8011   6.739   4.281  12.524  1.0988 -0.7477 -0.2454
   6223SM  C16F 8012   6.613   4.140  12.409  0.5855  0.3256 -0.8814
   6223SM  H16F 8013   6.522   4.203  12.401 -0.0939 -0.6200 -0.7906
   6223SM  H16G 8014   6.572   4.037  12.416 -0.6379  0.8900  1.8340
   6223SM  C17F 8015   6.691   4.157  12.280  0.6129 -0.5217 -0.1091
   6223SM  H17F 8016   6.764   4.073  12.280  0.9628 -0.3273 -2.9610
   6223SM  H17G 8017   6.744   4.255  12.270 -1.2670  0.7931  1.8205
   6223SM  C18F 8018   6.609   4.129  12.152 -0.1426  0.3101  0.1855
   6223SM  H18F 8019   6.524   4.199  12.138 -1.0245 -0.6789  0.4439
   6223SM  H18G 8020   6.562   4.030  12.174 -0.5672 -0.2376 -2.8119
   6223SM  C19F 8021   6.695   4.116  12.029 -0.6355 -0.3535 -0.0518
   6223SM  H19F 8022   6.780   4.048  12.047  0.1719 -0.0027 -2.1986
   6223SM  H19G 8023   6.752   4.211  12.013  0.3065 -1.1665 -1.7849
   6223SM  C20F 8024   6.616   4.074  11.904  0.4325  0.0719 -0.3597
   6223SM  H20F 8025   6.530   4.145  11.892  0.8516  0.8357  0.9545
   6223SM  H20G 8026   6.566   3.975  11.914 -2.0457  1.2632 -0.0927
   6223SM  C21F 8027   6.695   4.069  11.773  0.6295 -0.6482  0.3273
   6223SM  H21F 8028   6.751   3.973  11.769 -2.6666 -2.6523 -1.3099
   6223SM  H21G 8029   6.776   4.146  11.778  2.4103 -2.4289  0.2418
   6223SM  C22F 8030   6.603   4.090  11.655 -0.2652 -0.0984 -0.0471
   6223SM  H22F 8031   6.667   4.091  11.564  1.3325 -0.6593  1.0375
   6223SM  H22G 8032   6.559   4.192  11.661  0.0220  0.2717 -2.8850
   6223SM  C23F 8033   6.489   3.993  11.636  0.0357  0.6224 -0.1139
   6223SM  H23F 8034   6.427   3.987  11.728 -0.1293 -0.3870 -0.2739
   6223SM  H23G 8035   6.521   3.892  11.604  0.5953  0.4727  0.8694
   6223SM  H23H 8036   6.420   4.026  11.556  1.0060  1.0683 -0.7753
   6323SM     N 8037   5.782   5.741  14.244  0.0259  0.4402  0.1182
   6323SM   C15 8038   5.666   5.759  14.345  0.0938 -0.3105 -0.6847
   6323SM  H15A 8039   5.576   5.796  14.298  0.5017  0.0499 -1.1930
   6323SM  H15B 8040   5.699   5.822  14.426 -0.2668  0.4220 -1.0909
   6323SM  H15C 8041   5.655   5.663  14.392 -0.0459  0.3271  0.6109
   6323SM   C14 8042   5.904   5.712  14.318  0.2576 -0.0519 -0.2024
   6323SM  H14A 8043   5.990   5.712  14.253  0.5343 -1.4292  0.1329
   6323SM  H14B 8044   5.905   5.619  14.373 -1.9100  0.7183  1.2870
   6323SM  H14C 8045   5.923   5.789  14.391  1.1091 -0.6760  0.2532
   6323SM   C13 8046   5.741   5.624  14.163  0.4341  0.1685 -0.6574
   6323SM  H13A 8047   5.642   5.640  14.125 -0.1510  0.6759  0.9848
   6323SM  H13B 8048   5.744   5.534  14.223 -6.4503  0.9769  1.7106
   6323SM  H13C 8049   5.806   5.610  14.078 -1.3736 -2.8468 -1.6844
   6323SM   C12 8050   5.787   5.871  14.159  0.0289  0.2267 -0.0223
   6323SM  H12A 8051   5.813   5.955  14.221  3.5078 -0.0952 -0.8465
   6323SM  H12B 8052   5.685   5.892  14.128 -0.3042  0.6372  1.2850
   6323SM   C11 8053   5.892   5.880  14.044  0.2506 -0.3540  0.3537
   6323SM  H11A 8054   5.868   5.973  13.989  0.2162  0.6445  1.9931
   6323SM  H11B 8055   5.884   5.796  13.971  1.2153  0.0242 -0.2111
   6323SM     P 8056   6.092   6.015  14.139  0.2557 -0.1853  0.2601
   6323SM   O13 8057   5.994   6.101  14.207  0.0282 -0.0110 -0.0295
   6323SM   O14 8058   6.212   5.976  14.213 -0.3052  0.4509  0.3740
   6323SM   O11 8059   6.112   6.082  14.000  0.0756 -0.9299 -0.4582
   6323SM   O12 8060   6.021   5.881  14.099  0.3099  0.0731 -0.1730
   6323SM   C1S 8061   6.220   6.054  13.919  0.0657  0.4155  0.2183
   6323SM   H1S 8062   6.313   6.035  13.978  0.1358  0.3454  0.0858
   6323SM   H1T 8063   6.243   6.147  13.863 -0.1653 -0.2173 -0.9609
   6323SM    NF 8064   6.327   5.928  13.743 -0.5445  0.1647 -0.1345
   6323SM   HNF 8065   6.341   5.971  13.655  1.6086  1.9756  1.0054
   6323SM   C2S 8066   6.198   5.949  13.803 -0.6086  0.1422  0.0152
   6323SM   H2S 8067   6.161   5.856  13.851  2.7832 -1.3364  0.0336
   6323SM   C3S 8068   6.093   6.001  13.711 -0.7573 -0.5684 -0.0229
   6323SM   H3S 8069   6.145   6.086  13.662  1.5091 -2.4937 -1.1908
   6323SM    O3 8070   5.988   6.060  13.775 -0.4839 -0.1181 -0.2277
   6323SM   HO3 8071   6.013   6.044  13.866  1.1775 -1.1687 -0.8201
   6323SM   C4S 8072   6.061   5.902  13.606  0.2288  0.0584  0.2858
   6323SM   H4S 8073   6.138   5.907  13.528  0.0816 -2.6644 -0.1151
   6323SM   C5S 8074   5.970   5.807  13.596  0.1497  0.2766  0.1931
   6323SM   H5S 8075   5.894   5.793  13.674  0.3347 -0.3978  0.2593
   6323SM   C6S 8076   5.955   5.729  13.471  0.0345  0.1191 -0.0871
   6323SM   H6S 8077   5.852   5.689  13.463 -0.3912  1.3408 -1.1775
   6323SM   H6T 8078   6.022   5.641  13.475 -0.8204 -0.8277 -3.5259
   6323SM   C7S 8079   5.969   5.795  13.331  0.4537  0.3457 -0.2073
   6323SM   H7S 8080   6.071   5.838  13.324  0.9430 -0.4685  1.5086
   6323SM   H7T 8081   5.903   5.885  13.328 -0.0139  0.0398  0.6439
   6323SM   C8S 8082   5.948   5.697  13.213 -0.1066  0.9367 -0.5006
   6323SM   H8S 8083   5.861   5.628  13.222  1.7704 -1.9513 -2.7275
   6323SM   H8T 8084   6.031   5.624  13.225 -2.2145 -1.4104  0.8974
   6323SM   C9S 8085   5.947   5.761  13.071 -0.0255  0.2403 -0.3758
   6323SM   H9S 8086   6.051   5.796  13.050  0.1002  0.3740  0.4416
   6323SM   H9T 8087   5.882   5.851  13.069  1.0890  1.0680 -1.0408
   6323SM  C10S 8088   5.916   5.674  12.949  0.4054  0.1563 -0.2374
   6323SM  H10S 8089   5.814   5.632  12.952  0.0642  0.8911 -1.1302
   6323SM  H10T 8090   5.994   5.596  12.938  1.6080  1.4986 -1.8416
   6323SM  C11S 8091   5.942   5.750  12.817  0.2639 -0.2128  0.0639
   6323SM  H11S 8092   6.053   5.759  12.809  0.3222 -0.9453 -0.0441
   6323SM  H11T 8093   5.891   5.849  12.824  0.4522 -0.1832  1.3142
   6323SM  C12S 8094   5.898   5.672  12.695  0.1219  0.0590  0.2755
   6323SM  H12S 8095   5.792   5.654  12.726  0.7891  1.2531  3.7050
   6323SM  H12T 8096   5.942   5.571  12.685 -1.1572 -0.3984 -1.2336
   6323SM  C13S 8097   5.902   5.737  12.560 -0.5656 -0.3064  0.2369
   6323SM  H13S 8098   5.997   5.724  12.504  0.9870  1.0534  2.3986
   6323SM  H13T 8099   5.887   5.845  12.582  3.4482 -0.2009  3.9587
   6323SM  C14S 8100   5.790   5.678  12.472 -0.1729  1.0923  0.2830
   6323SM  H14S 8101   5.697   5.709  12.526 -1.5144 -2.4116  0.2736
   6323SM  H14T 8102   5.780   5.568  12.485 -1.5452  1.2324  0.5765
   6323SM  C15S 8103   5.811   5.716  12.329  0.1140 -0.1343  0.2003
   6323SM  H15S 8104   5.847   5.821  12.326 -0.8528  0.1982 -0.1909
   6323SM  H15T 8105   5.715   5.712  12.273  1.4895 -0.1822 -2.2950
   6323SM  C16S 8106   5.911   5.626  12.253  0.1546 -0.5822 -0.2045
   6323SM  H16S 8107   5.868   5.527  12.229  0.4466 -1.3033  2.0219
   6323SM  H16T 8108   6.000   5.599  12.314 -1.1749 -1.0687  1.5867
   6323SM  C17S 8109   5.962   5.696  12.125 -0.0049 -0.4719 -0.2418
   6323SM  H17S 8110   5.987   5.800  12.156 -1.2719 -0.3995  0.6196
   6323SM  H17T 8111   5.877   5.706  12.054 -0.6119 -2.9309  0.0431
   6323SM  C18S 8112   6.073   5.618  12.063  0.1897 -0.2116  0.0738
   6323SM  H18S 8113   6.033   5.549  11.986  0.0897 -0.3231  0.2244
   6323SM  H18T 8114   6.134   5.554  12.131  3.1103  2.0835 -0.1870
   6323SM  H18U 8115   6.142   5.683  12.005  1.0512 -0.7981  0.4109
   6323SM   C1F 8116   6.420   5.855  13.804 -0.4367 -0.0249  0.1205
   6323SM    OF 8117   6.400   5.806  13.917  0.0165 -0.2606 -0.2095
   6323SM   C2F 8118   6.563   5.845  13.744  0.7667 -0.8000  0.2286
   6323SM   H2F 8119   6.640   5.841  13.824  0.0377  0.1837  1.0048
   6323SM   H2G 8120   6.579   5.934  13.680  0.3189 -0.9337 -0.0807
   6323SM   C3F 8121   6.576   5.722  13.655 -0.0156  0.2510  0.4230
   6323SM   H3F 8122   6.565   5.634  13.721 -0.1958 -0.7376 -0.8967
   6323SM   H3G 8123   6.673   5.717  13.600 -1.5007 -1.1189 -2.2589
   6323SM   C4F 8124   6.466   5.714  13.547  0.4524  0.2205  0.2069
   6323SM   H4F 8125   6.456   5.805  13.484 -0.1446 -1.2127 -1.8758
   6323SM   H4G 8126   6.370   5.704  13.601  1.1494 -0.5066  1.3475
   6323SM   C5F 8127   6.472   5.584  13.473  0.3089 -0.6118  0.4913
   6323SM   H5F 8128   6.440   5.512  13.552 -0.3905 -0.8307  0.0207
   6323SM   H5G 8129   6.576   5.562  13.439  1.6486  0.2940  3.5713
   6323SM   C6F 8130   6.380   5.591  13.357 -0.6893  0.3013 -0.0749
   6323SM   H6F 8131   6.379   5.696  13.320 -1.2597 -0.1074 -1.2616
   6323SM   H6G 8132   6.276   5.571  13.389 -0.2532 -0.4262  0.9220
   6323SM   C7F 8133   6.424   5.502  13.234  0.5602  0.6432  0.2924
   6323SM   H7F 8134   6.418   5.394  13.260  1.5668  0.1103 -1.5044
   6323SM   H7G 8135   6.528   5.524  13.199 -0.4873  3.0343 -1.6306
   6323SM   C8F 8136   6.335   5.529  13.106  0.2335 -0.4087 -0.8001
   6323SM   H8F 8137   6.326   5.637  13.083  2.7787  0.0453  0.0155
   6323SM   H8G 8138   6.231   5.495  13.128  0.8375 -1.9900 -0.2586
   6323SM   C9F 8139   6.390   5.477  12.975 -0.0721 -0.9567  0.0049
   6323SM   H9F 8140   6.419   5.371  12.989 -0.0279 -0.7938  1.2949
   6323SM   H9G 8141   6.490   5.523  12.962 -0.6668  0.3166 -0.2586
   6323SM  C10F 8142   6.304   5.511  12.853  0.3000  0.2013 -0.6751
   6323SM  H10F 8143   6.268   5.616  12.847 -0.7175 -0.1156 -0.3256
   6323SM  H10G 8144   6.207   5.463  12.880  0.2314  1.1210  0.7881
   6323SM  C11F 8145   6.361   5.468  12.722  0.7475 -0.3077 -0.4945
   6323SM  H11F 8146   6.383   5.359  12.714 -0.6286 -0.6689  0.2858
   6323SM  H11G 8147   6.456   5.519  12.697  0.1957  0.1590 -1.7364
   6323SM  C12F 8148   6.273   5.507  12.615  0.1215 -0.0217 -0.3499
   6323SM  H12F 8149   6.214   5.599  12.632 -0.2863 -0.5991  1.6186
   6323SM  H12G 8150   6.194   5.430  12.599  0.0305  0.1660 -0.8349
   6323SM  C13F 8151   6.346   5.525  12.480  0.8782  0.2543 -1.0631
   6323SM  H13F 8152   6.414   5.612  12.490  1.1709 -0.1661  1.0640
   6323SM  H13G 8153   6.267   5.542  12.404  1.8744 -0.1907 -2.2315
   6323SM  C14F 8154   6.438   5.402  12.442  0.2351 -0.1434 -0.5222
   6323SM  H14F 8155   6.377   5.310  12.452  1.0838 -0.7435 -0.7347
   6323SM  H14G 8156   6.519   5.392  12.518 -0.6237  0.4569  0.5031
   6323SM  C15F 8157   6.483   5.398  12.296  0.2843  0.1107 -0.4144
   6323SM  H15F 8158   6.529   5.297  12.289 -2.9633 -1.7415  1.8268
   6323SM  H15G 8159   6.542   5.490  12.275  0.3412  0.2325  0.2593
   6323SM  C16F 8160   6.363   5.399  12.199  0.2561  0.3579 -0.3803
   6323SM  H16F 8161   6.317   5.500  12.206 -0.5021  0.0125 -0.2802
   6323SM  H16G 8162   6.289   5.325  12.237  2.9595 -1.8630  0.9380
   6323SM  C17F 8163   6.384   5.371  12.050  0.2619 -0.1111 -0.0848
   6323SM  H17F 8164   6.298   5.404  11.989  0.0996 -1.5311 -0.6567
   6323SM  H17G 8165   6.391   5.262  12.028  1.2939 -0.4247  1.6014
   6323SM  C18F 8166   6.501   5.457  11.998  0.0393  0.3471  0.1330
   6323SM  H18F 8167   6.601   5.419  12.029  1.4074  3.5311  0.0017
   6323SM  H18G 8168   6.503   5.553  12.053 -1.1123  0.6812 -0.3688
   6323SM  C19F 8169   6.497   5.469  11.850  0.4240  0.0053 -0.0762
   6323SM  H19F 8170   6.442   5.383  11.808 -0.3926  0.4910 -0.0263
   6323SM  H19G 8171   6.598   5.466  11.804 -0.1741 -2.8785 -1.3886
   6323SM  C20F 8172   6.411   5.595  11.804  0.0755  0.2224  0.1854
   6323SM  H20F 8173   6.463   5.684  11.847 -0.6542  0.2522  1.0316
   6323SM  H20G 8174   6.304   5.584  11.830  0.1601 -2.3609 -0.3057
   6323SM  C21F 8175   6.413   5.620  11.650 -0.6558  0.8957 -0.0203
   6323SM  H21F 8176   6.346   5.541  11.610 -0.9738  0.8079  0.6667
   6323SM  H21G 8177   6.518   5.596  11.621 -0.5695 -1.4286  1.9213
   6323SM  C22F 8178   6.373   5.755  11.595 -0.0943  0.9211 -0.6087
   6323SM  H22F 8179   6.437   5.823  11.654 -1.2618  0.9976  0.6159
   6323SM  H22G 8180   6.269   5.786  11.618 -0.8512 -0.1869 -2.2806
   6323SM  C23F 8181   6.408   5.774  11.447 -0.2829  0.9514  0.5432
   6323SM  H23F 8182   6.334   5.733  11.375 -1.0171  0.3624  1.6121
   6323SM  H23G 8183   6.495   5.710  11.424 -2.2560 -1.5537 -0.3931
   6323SM  H23H 8184   6.441   5.877  11.420 -1.9995  1.2682 -0.5196
   6423SM     N 8185   3.156   5.032  14.212 -0.9118  0.2227 -0.1535
   6423SM   C15 8186   3.121   5.088  14.076  0.4537 -0.5455 -0.7756
   6423SM  H15A 8187   3.016   5.107  14.089  0.7592  1.4271 -0.9357
   6423SM  H15B 8188   3.142   5.015  13.998  0.5614 -1.1198 -0.2155
   6423SM  H15C 8189   3.180   5.176  14.054 -1.7100  1.1378 -0.1265
   6423SM   C14 8190   3.299   4.974  14.220 -0.0805  0.5756  0.3746
   6423SM  H14A 8191   3.330   4.946  14.320 -1.5662 -0.1171  0.6626
   6423SM  H14B 8192   3.377   5.044  14.194  1.8675 -1.5216  0.2644
   6423SM  H14C 8193   3.316   4.889  14.155 -2.0811  1.5382 -1.5139
   6423SM   C13 8194   3.154   5.136  14.322 -1.1489  0.1876  0.5068
   6423SM  H13A 8195   3.058   5.184  14.331 -0.2064  2.3050 -0.0223
   6423SM  H13B 8196   3.236   5.206  14.307  1.1119 -2.3211  0.3521
   6423SM  H13C 8197   3.182   5.095  14.418  1.5746 -0.0770 -0.3070
   6423SM   C12 8198   3.056   4.924  14.250  0.6524  0.0455  0.0731
   6423SM  H12A 8199   3.097   4.872  14.335  1.1063  0.3683  0.0531
   6423SM  H12B 8200   3.053   4.859  14.164  1.2795 -0.5290  0.4830
   6423SM   C11 8201   2.907   4.963  14.285  0.3652 -0.7069  0.3104
   6423SM  H11A 8202   2.902   5.034  14.370 -0.1301  0.9857 -1.0862
   6423SM  H11B 8203   2.845   4.875  14.313 -2.0834  0.6954 -0.4660
   6423SM     P 8204   2.695   4.994  14.128 -0.3927  0.1301 -0.0890
   6423SM   O13 8205   2.615   4.957  14.251  0.6114 -0.0185  1.1330
   6423SM   O14 8206   2.644   5.096  14.035  0.2215  0.3547 -0.4603
   6423SM   O11 8207   2.723   4.862  14.038  0.0051  0.2295  0.4149
   6423SM   O12 8208   2.842   5.031  14.173  0.7621 -0.6224 -0.1577
   6423SM   C1S 8209   2.784   4.869  13.908  0.2573 -0.5199 -0.4949
   6423SM   H1S 8210   2.894   4.859  13.919  0.7163  2.9861 -0.8431
   6423SM   H1T 8211   2.776   4.969  13.862 -0.3927 -0.8573 -1.1297
   6423SM    NF 8212   2.778   4.808  13.672 -0.1499 -0.7263 -0.1405
   6423SM   HNF 8213   2.714   4.847  13.605 -0.0096 -0.6188 -0.2112
   6423SM   C2S 8214   2.724   4.778  13.804 -0.1689  0.3346 -0.7621
   6423SM   H2S 8215   2.756   4.673  13.824  0.6496  1.2318  3.5867
   6423SM   C3S 8216   2.569   4.779  13.812  0.2520  0.2512 -0.4661
   6423SM   H3S 8217   2.538   4.885  13.802 -1.1291 -0.0191  0.6395
   6423SM    O3 8218   2.519   4.726  13.940  0.5585 -0.3442  0.3466
   6423SM   HO3 8219   2.602   4.711  13.987  0.5230  0.0628  0.5433
   6423SM   C4S 8220   2.500   4.709  13.696 -0.0544  0.0488  0.0644
   6423SM   H4S 8221   2.520   4.603  13.673 -0.3102  0.1885 -0.8343
   6423SM   C5S 8222   2.401   4.767  13.629  0.8989  0.1693 -0.4989
   6423SM   H5S 8223   2.367   4.867  13.659 -1.6454 -0.3281 -1.4710
   6423SM   C6S 8224   2.324   4.696  13.517  0.4663  0.3939 -0.8185
   6423SM   H6S 8225   2.337   4.747  13.419 -1.4118  0.5159 -1.0508
   6423SM   H6T 8226   2.216   4.711  13.539  0.8280  0.7260  0.9192
   6423SM   C7S 8227   2.344   4.547  13.502  0.4323  0.1045  0.0766
   6423SM   H7S 8228   2.299   4.499  13.591 -0.1984  0.1367 -0.2153
   6423SM   H7T 8229   2.449   4.520  13.475  0.2009  0.6214 -1.4336
   6423SM   C8S 8230   2.249   4.481  13.397 -0.1181 -1.1552 -0.7587
   6423SM   H8S 8231   2.145   4.506  13.429 -0.0297 -2.3365  0.5576
   6423SM   H8T 8232   2.242   4.370  13.400 -1.5221 -1.1061 -1.3299
   6423SM   C9S 8233   2.282   4.525  13.253  0.1431 -0.1540  0.4024
   6423SM   H9S 8234   2.387   4.533  13.219  0.0007  0.8213  0.1586
   6423SM   H9T 8235   2.231   4.622  13.234  0.2896 -0.0581  0.5017
   6423SM  C10S 8236   2.225   4.421  13.151 -0.1239 -0.3752 -0.8196
   6423SM  H10S 8237   2.123   4.397  13.188  0.8200 -2.8774  0.3688
   6423SM  H10T 8238   2.283   4.327  13.147  1.8917  0.7658  0.0475
   6423SM  C11S 8239   2.209   4.490  13.016  0.2872  0.3715  0.6442
   6423SM  H11S 8240   2.303   4.519  12.965  0.3849  0.8876  1.1158
   6423SM  H11T 8241   2.142   4.575  13.039  0.2741  0.5017  0.1365
   6423SM  C12S 8242   2.136   4.394  12.913  0.7656 -0.8334 -0.4426
   6423SM  H12S 8243   2.040   4.372  12.965  0.7606  1.0488  0.4549
   6423SM  H12T 8244   2.198   4.302  12.915 -0.7568 -1.8914  1.7018
   6423SM  C13S 8245   2.114   4.455  12.771 -0.9073  0.2359  0.3018
   6423SM  H13S 8246   2.207   4.496  12.726 -1.2887  0.6400 -0.1310
   6423SM  H13T 8247   2.040   4.538  12.775 -0.2874  0.8513 -0.5547
   6423SM  C14S 8248   2.066   4.349  12.673 -0.1949 -0.3272 -0.1860
   6423SM  H14S 8249   1.956   4.364  12.669  0.2123  3.5553 -1.2457
   6423SM  H14T 8250   2.098   4.248  12.705 -0.9621 -0.8046 -0.9018
   6423SM  C15S 8251   2.121   4.363  12.529  0.2802  0.0227  0.1703
   6423SM  H15S 8252   2.109   4.263  12.481  0.6853 -1.2483  2.5689
   6423SM  H15T 8253   2.232   4.372  12.530  0.1500  3.7014 -1.4680
   6423SM  C16S 8254   2.064   4.487  12.457 -0.0578  0.5443 -0.4759
   6423SM  H16S 8255   2.129   4.575  12.472 -1.2322  1.2600  0.6245
   6423SM  H16T 8256   1.960   4.501  12.494  0.4328  0.0909  1.1148
   6423SM  C17S 8257   2.068   4.469  12.302  0.1927 -0.2284 -0.9034
   6423SM  H17S 8258   2.174   4.451  12.273  1.8232  1.2376  3.3567
   6423SM  H17T 8259   2.047   4.567  12.254 -1.1972  0.3512  0.7740
   6423SM  C18S 8260   1.972   4.374  12.245 -0.0152  0.3106  0.2606
   6423SM  H18S 8261   1.986   4.270  12.281  0.7829  0.7228  1.1830
   6423SM  H18T 8262   1.967   4.371  12.134 -2.5356 -1.7109  0.3279
   6423SM  H18U 8263   1.870   4.408  12.274  0.0054  1.7934 -1.2141
   6423SM   C1F 8264   2.905   4.799  13.636  0.0188  0.0641 -0.2168
   6423SM    OF 8265   2.990   4.733  13.701  0.1796 -0.2210 -0.0760
   6423SM   C2F 8266   2.954   4.874  13.518  0.2492 -0.6134  0.2911
   6423SM   H2F 8267   2.978   4.979  13.546 -1.0957 -1.1031  3.7630
   6423SM   H2G 8268   2.876   4.866  13.439  1.4176  0.7570 -1.0759
   6423SM   C3F 8269   3.082   4.804  13.463 -0.4358  0.1520  0.0969
   6423SM   H3F 8270   3.071   4.694  13.454 -1.6650  0.3182 -0.7384
   6423SM   H3G 8271   3.175   4.827  13.518 -0.2194 -0.2864 -0.0802
   6423SM   C4F 8272   3.118   4.852  13.317  0.5234 -0.1792 -0.6670
   6423SM   H4F 8273   3.227   4.835  13.305  0.7935  0.0848  1.1537
   6423SM   H4G 8274   3.095   4.961  13.323 -0.4901 -0.4389  0.6497
   6423SM   C5F 8275   3.029   4.795  13.218 -0.1759 -0.1658 -0.2365
   6423SM   H5F 8276   2.928   4.823  13.253  0.6778  0.9163  1.5113
   6423SM   H5G 8277   3.042   4.686  13.205 -0.0076 -0.0624 -0.9846
   6423SM   C6F 8278   3.053   4.855  13.076 -0.0985  0.4563 -0.9840
   6423SM   H6F 8279   3.158   4.847  13.040 -0.4551 -2.9234 -1.6953
   6423SM   H6G 8280   3.022   4.961  13.085 -1.1882 -0.0100  2.3352
   6423SM   C7F 8281   2.958   4.784  12.974 -1.0615 -0.3920 -0.7216
   6423SM   H7F 8282   2.854   4.815  13.001 -0.9056 -0.2816 -0.2429
   6423SM   H7G 8283   2.971   4.675  12.987 -2.0062 -0.3040  1.3876
   6423SM   C8F 8284   2.986   4.838  12.836 -0.3585 -0.1877  0.4382
   6423SM   H8F 8285   3.093   4.818  12.815 -0.9118 -0.8943 -1.9538
   6423SM   H8G 8286   2.985   4.949  12.845  3.2858  0.0315 -0.3828
   6423SM   C9F 8287   2.901   4.768  12.730 -0.1475  0.1324 -0.4052
   6423SM   H9F 8288   2.799   4.744  12.768  0.3380 -1.9443 -0.2797
   6423SM   H9G 8289   2.950   4.670  12.708 -0.9685 -0.7091  1.3435
   6423SM  C10F 8290   2.867   4.845  12.605 -0.3582 -0.5305 -0.0256
   6423SM  H10F 8291   2.830   4.942  12.646 -1.1877 -0.2282 -1.4454
   6423SM  H10G 8292   2.775   4.815  12.552 -1.2792  2.4559 -0.2884
   6423SM  C11F 8293   2.992   4.853  12.516 -0.2988 -0.1239  0.3416
   6423SM  H11F 8294   3.043   4.756  12.505 -0.2730  0.1292 -3.1179
   6423SM  H11G 8295   3.067   4.926  12.553  0.1814  1.3451 -3.1310
   6423SM  C12F 8296   2.954   4.892  12.367  0.5338  0.1618  0.4667
   6423SM  H12F 8297   2.898   4.987  12.383 -2.6970 -1.8577  2.2445
   6423SM  H12G 8298   2.876   4.824  12.327  1.7184  0.2371 -2.1710
   6423SM  C13F 8299   3.076   4.895  12.283  0.2784  0.4623  0.1746
   6423SM  H13F 8300   3.135   4.801  12.290  0.1593  0.4130  0.5318
   6423SM  H13G 8301   3.147   4.979  12.304 -0.0586  0.4937  1.2464
   6423SM  C14F 8302   3.042   4.907  12.135 -0.5014  0.0325  1.0986
   6423SM  H14F 8303   2.981   5.000  12.126 -2.1976 -1.1949 -1.0431
   6423SM  H14G 8304   2.974   4.827  12.098 -0.2304  0.3479 -0.1303
   6423SM  C15F 8305   3.155   4.922  12.033 -0.6443 -0.1869 -0.3593
   6423SM  H15F 8306   3.227   4.838  12.041  0.9539  1.1570 -0.1741
   6423SM  H15G 8307   3.218   5.010  12.058 -0.3944 -0.2635 -0.7135
   6423SM  C16F 8308   3.103   4.915  11.892 -0.3410  0.0782 -0.1675
   6423SM  H16F 8309   3.020   4.988  11.882 -1.2710 -0.7811  1.0559
   6423SM  H16G 8310   3.057   4.815  11.876 -2.1053  0.4342  2.1486
   6423SM  C17F 8311   3.201   4.956  11.786 -0.6738  0.7545  0.5000
   6423SM  H17F 8312   3.301   4.918  11.818 -0.9408 -0.0530  0.3990
   6423SM  H17G 8313   3.212   5.065  11.773 -0.5926  0.6081 -0.7927
   6423SM  C18F 8314   3.166   4.896  11.649 -0.4611  0.4109  0.5739
   6423SM  H18F 8315   3.115   4.797  11.651 -0.9574  0.5849 -1.5482
   6423SM  H18G 8316   3.259   4.886  11.588 -0.2297  0.0810  0.9666
   6423SM  C19F 8317   3.083   4.998  11.566  0.7352  0.4199 -0.4072
   6423SM  H19F 8318   3.140   5.093  11.558 -1.2029  1.5497 -1.7139
   6423SM  H19G 8319   2.988   5.019  11.621  0.8416 -3.0731  1.3969
   6423SM  C20F 8320   3.036   4.946  11.428  0.6939  0.2166 -0.1460
   6423SM  H20F 8321   2.984   4.850  11.446 -0.2540  0.9115  1.0093
   6423SM  H20G 8322   3.131   4.926  11.375 -0.0613 -0.7773 -1.1868
   6423SM  C21F 8323   2.961   5.042  11.333  0.1262  0.5301  0.4211
   6423SM  H21F 8324   3.004   5.143  11.348 -0.1616  1.2115 -2.6629
   6423SM  H21G 8325   2.853   5.047  11.360  0.2650  0.8931  0.9317
   6423SM  C22F 8326   2.971   5.002  11.181 -0.3571 -0.3241 -0.2344
   6423SM  H22F 8327   3.075   5.003  11.142  0.6704  0.0783  2.3173
   6423SM  H22G 8328   2.913   5.081  11.128 -1.6984  0.4039  2.1862
   6423SM  C23F 8329   2.906   4.868  11.142  0.3226 -0.0708  0.4031
   6423SM  H23F 8330   2.798   4.887  11.121  0.2495  0.9939  1.5985
   6423SM  H23G 8331   2.916   4.794  11.224  0.7846  0.9431  1.2863
   6423SM  H23H 8332   2.951   4.834  11.047  0.7121 -2.2254  1.2979
   6523SM     N 8333   1.416   6.660  13.350  0.6371  0.2090  0.5497
   6523SM   C15 8334   1.372   6.583  13.470 -1.0096  0.0147  0.5817
   6523SM  H15A 8335   1.384   6.479  13.446  0.3149  0.0080  1.1710
   6523SM  H15B 8336   1.272   6.605  13.505 -2.2119  0.8178 -2.9196
   6523SM  H15C 8337   1.449   6.598  13.545  0.3715 -0.4363 -0.6930
   6523SM   C14 8338   1.306   6.644  13.252 -0.1129 -0.0318  0.4416
   6523SM  H14A 8339   1.208   6.655  13.295 -1.1959 -0.6074 -1.7238
   6523SM  H14B 8340   1.308   6.544  13.211  0.9040  0.1304  0.0677
   6523SM  H14C 8341   1.311   6.717  13.172  1.9774  2.9802  3.0873
   6523SM   C13 8342   1.420   6.804  13.389 -0.1822 -0.2416  0.3593
   6523SM  H13A 8343   1.319   6.842  13.397  0.5370  1.7106  0.6556
   6523SM  H13B 8344   1.472   6.868  13.319 -1.2431  1.1339  0.7753
   6523SM  H13C 8345   1.468   6.829  13.483 -1.3251 -1.5504  1.3320
   6523SM   C12 8346   1.553   6.614  13.298  0.1503 -0.0448 -0.4079
   6523SM  H12A 8347   1.630   6.620  13.373 -0.0004 -3.7319  0.2175
   6523SM  H12B 8348   1.583   6.675  13.215 -1.1287 -0.9265 -1.5565
   6523SM   C11 8349   1.566   6.474  13.241 -0.1465  0.7120  0.0255
   6523SM  H11A 8350   1.666   6.446  13.201 -0.6071 -1.6675  0.4068
   6523SM  H11B 8351   1.485   6.453  13.168 -0.4602 -0.4331  0.6793
   6523SM     P 8352   1.651   6.348  13.457  0.0025  0.2764  0.6581
   6523SM   O13 8353   1.765   6.437  13.458 -0.0382  0.3328 -0.2047
   6523SM   O14 8354   1.586   6.352  13.589 -0.5227 -0.6699  0.7381
   6523SM   O11 8355   1.698   6.199  13.420 -0.5856 -0.6149 -0.5353
   6523SM   O12 8356   1.542   6.387  13.348 -0.2203  0.2837  0.4471
   6523SM   C1S 8357   1.617   6.081  13.397  0.0500 -0.2520  0.4777
   6523SM   H1S 8358   1.524   6.080  13.456  0.4987  1.0321  1.2433
   6523SM   H1T 8359   1.673   5.987  13.416  0.3219 -0.3532 -0.6896
   6523SM    NF 8360   1.476   5.946  13.222 -0.1299  0.4071 -0.3017
   6523SM   HNF 8361   1.515   5.859  13.192  0.3975 -0.2696  2.1215
   6523SM   C2S 8362   1.565   6.060  13.241 -0.5549  0.4145  0.6579
   6523SM   H2S 8363   1.504   6.152  13.224  1.4101  1.6765  0.0794
   6523SM   C3S 8364   1.685   6.063  13.139 -0.4995  0.4308 -0.3501
   6523SM   H3S 8365   1.730   5.963  13.124  2.2471  1.6824 -1.0417
   6523SM    O3 8366   1.802   6.131  13.174  0.2283 -0.4857  0.0927
   6523SM   HO3 8367   1.788   6.167  13.262  2.4603 -0.8169  0.6419
   6523SM   C4S 8368   1.638   6.099  13.004  0.2833 -0.2568  0.1123
   6523SM   H4S 8369   1.607   6.017  12.938  0.0114 -2.0704  2.3788
   6523SM   C5S 8370   1.635   6.226  12.960  0.5171  0.6627  0.6527
   6523SM   H5S 8371   1.683   6.306  13.019 -0.2777  0.1967  1.9663
   6523SM   C6S 8372   1.581   6.261  12.829 -0.4153  0.9786  0.5168
   6523SM   H6S 8373   1.558   6.369  12.817 -1.6697  0.6170 -0.5286
   6523SM   H6T 8374   1.485   6.210  12.810 -0.1572  0.7141 -0.0754
   6523SM   C7S 8375   1.666   6.206  12.711  0.0221 -0.1534  0.1441
   6523SM   H7S 8376   1.673   6.095  12.713 -3.1766 -0.5057 -1.7218
   6523SM   H7T 8377   1.770   6.245  12.717  0.3742 -0.2618 -3.3452
   6523SM   C8S 8378   1.613   6.252  12.573 -0.3697 -0.0562 -0.4538
   6523SM   H8S 8379   1.622   6.363  12.572 -0.2434 -0.0521 -2.4604
   6523SM   H8T 8380   1.507   6.220  12.574 -0.3465 -0.3049  2.4723
   6523SM   C9S 8381   1.687   6.189  12.453 -0.1067 -0.0680  0.0511
   6523SM   H9S 8382   1.678   6.078  12.462 -0.1625  0.0127  1.1187
   6523SM   H9T 8383   1.795   6.210  12.464 -0.2484  1.5223 -1.1821
   6523SM  C10S 8384   1.624   6.234  12.320 -0.3066 -0.1821 -0.1525
   6523SM  H10S 8385   1.637   6.343  12.340  1.6411 -0.6866  1.6305
   6523SM  H10T 8386   1.516   6.212  12.321 -0.7948  2.0268  0.0080
   6523SM  C11S 8387   1.692   6.207  12.180 -0.3601  0.3567  0.0463
   6523SM  H11S 8388   1.621   6.256  12.110  0.6176  0.7608 -0.6774
   6523SM  H11T 8389   1.696   6.097  12.166 -0.4726 -0.0727  2.8153
   6523SM  C12S 8390   1.823   6.268  12.161 -0.4514 -0.3142  0.7057
   6523SM  H12S 8391   1.887   6.238  12.247  0.7831 -0.9376 -0.3996
   6523SM  H12T 8392   1.821   6.378  12.174 -0.8355 -0.2398  0.0849
   6523SM  C13S 8393   1.890   6.257  12.020  0.6165 -0.7169 -0.6992
   6523SM  H13S 8394   1.845   6.344  11.968  0.4354 -0.4866 -0.1599
   6523SM  H13T 8395   1.852   6.167  11.967 -0.0862 -0.6560 -0.3119
   6523SM  C14S 8396   2.040   6.279  12.032 -0.2125 -0.5452  0.3666
   6523SM  H14S 8397   2.056   6.368  12.097 -0.4426 -0.1984 -0.0486
   6523SM  H14T 8398   2.065   6.304  11.927 -2.1419 -0.2399 -0.0524
   6523SM  C15S 8399   2.108   6.160  12.084  0.3109  0.1422 -0.4046
   6523SM  H15S 8400   2.100   6.082  12.006 -2.8911 -1.1808  1.0354
   6523SM  H15T 8401   2.064   6.108  12.172  2.4083  0.6533  1.0163
   6523SM  C16S 8402   2.251   6.189  12.105 -0.3740 -0.0544  0.2598
   6523SM  H16S 8403   2.250   6.271  12.180 -0.1082  0.3456 -0.1680
   6523SM  H16T 8404   2.304   6.236  12.019 -0.3093  1.7527  1.2394
   6523SM  C17S 8405   2.330   6.060  12.128  0.0214  0.3269 -0.9936
   6523SM  H17S 8406   2.440   6.067  12.117  0.2256  0.6488  1.0376
   6523SM  H17T 8407   2.298   5.988  12.048 -0.5128  0.0585 -0.5465
   6523SM  C18S 8408   2.308   5.997  12.266  0.0357 -0.4777  0.8611
   6523SM  H18S 8409   2.363   5.902  12.281 -0.4053 -1.2646 -1.9581
   6523SM  H18T 8410   2.202   5.963  12.265 -0.0180 -0.3050  0.4562
   6523SM  H18U 8411   2.324   6.072  12.347  0.8050  1.8532 -1.3191
   6523SM   C1F 8412   1.353   5.942  13.281  0.1324  0.2952  1.1615
   6523SM    OF 8413   1.325   6.015  13.374 -0.2453  0.2107  0.0996
   6523SM   C2F 8414   1.256   5.836  13.222 -0.3944  0.0003  0.1612
   6523SM   H2F 8415   1.170   5.827  13.291 -0.8751 -2.1605 -0.6231
   6523SM   H2G 8416   1.302   5.736  13.203  2.1552  1.2648 -0.7635
   6523SM   C3F 8417   1.188   5.881  13.097  0.1186  0.0371 -0.4546
   6523SM   H3F 8418   1.131   5.975  13.110 -1.6014 -1.3415  2.9485
   6523SM   H3G 8419   1.114   5.801  13.077  0.4457 -0.4665  0.3183
   6523SM   C4F 8420   1.283   5.901  12.985  0.8402  0.6980 -0.7351
   6523SM   H4F 8421   1.373   5.836  12.997 -0.4596 -0.9337  0.8336
   6523SM   H4G 8422   1.317   6.006  12.998 -0.6889  1.1251  0.0922
   6523SM   C5F 8423   1.222   5.874  12.845 -0.6338  0.4204  0.0636
   6523SM   H5F 8424   1.130   5.936  12.831  0.0701  1.8242  1.3896
   6523SM   H5G 8425   1.177   5.772  12.843 -1.6716  0.6210  4.1101
   6523SM   C6F 8426   1.319   5.898  12.721 -0.0238 -0.2008 -0.1986
   6523SM   H6F 8427   1.416   5.846  12.730  1.2284  1.7185 -1.7464
   6523SM   H6G 8428   1.343   6.006  12.727  1.3832 -0.4360 -1.2063
   6523SM   C7F 8429   1.254   5.862  12.588  0.0389 -0.7148 -0.0687
   6523SM   H7F 8430   1.152   5.907  12.594  0.1886 -0.5712  2.9331
   6523SM   H7G 8431   1.245   5.751  12.577  0.2461 -0.5175 -2.8688
   6523SM   C8F 8432   1.339   5.910  12.471  0.3176  0.3135  0.5252
   6523SM   H8F 8433   1.446   5.883  12.480  0.4433  0.0956 -1.2240
   6523SM   H8G 8434   1.328   6.020  12.456 -0.3255  0.0573 -1.1765
   6523SM   C9F 8435   1.278   5.854  12.339 -0.5336 -0.6066 -0.3716
   6523SM   H9F 8436   1.172   5.884  12.332  0.3550  3.4770  0.8699
   6523SM   H9G 8437   1.287   5.743  12.329  1.7672 -0.4234 -1.1642
   6523SM  C10F 8438   1.347   5.919  12.214  0.7061 -0.2162  1.1842
   6523SM  H10F 8439   1.457   5.926  12.228  0.6542 -1.1458  2.2222
   6523SM  H10G 8440   1.307   6.022  12.204 -1.5696 -1.1840 -0.2735
   6523SM  C11F 8441   1.308   5.852  12.079 -0.3708 -0.2883 -0.2078
   6523SM  H11F 8442   1.197   5.848  12.075 -0.4103  1.2931 -2.6517
   6523SM  H11G 8443   1.361   5.754  12.073 -1.4654 -0.8318 -1.7258
   6523SM  C12F 8444   1.342   5.946  11.957 -0.4480 -0.6152 -0.1719
   6523SM  H12F 8445   1.450   5.971  11.951 -0.7746  0.8004 -0.7531
   6523SM  H12G 8446   1.294   6.045  11.972  0.7871 -0.3438  2.6082
   6523SM  C13F 8447   1.304   5.900  11.820 -0.2423  0.4514 -0.7569
   6523SM  H13F 8448   1.297   5.973  11.736  2.9510 -1.0463 -2.5306
   6523SM  H13G 8449   1.199   5.867  11.836 -0.0007 -1.1625 -2.1522
   6523SM  C14F 8450   1.389   5.775  11.785 -0.1834  0.0938  0.4257
   6523SM  H14F 8451   1.359   5.691  11.851 -0.9751 -0.3263 -0.4340
   6523SM  H14G 8452   1.497   5.800  11.782  0.0148 -0.7846 -1.2733
   6523SM  C15F 8453   1.362   5.731  11.638  0.1979  0.1364  0.0843
   6523SM  H15F 8454   1.256   5.750  11.609 -0.4828 -0.7706  1.8138
   6523SM  H15G 8455   1.382   5.622  11.628  2.8570  0.5897 -0.2946
   6523SM  C16F 8456   1.451   5.810  11.539 -0.0431 -0.2048 -0.0094
   6523SM  H16F 8457   1.551   5.785  11.579  0.2019 -2.1139 -1.6866
   6523SM  H16G 8458   1.434   5.919  11.550 -2.0751 -0.3265 -1.3087
   6523SM  C17F 8459   1.450   5.762  11.393 -0.9605  0.2546  0.2654
   6523SM  H17F 8460   1.508   5.668  11.379  1.3294  1.5426  0.6199
   6523SM  H17G 8461   1.505   5.837  11.332 -0.2854 -0.6978 -0.3242
   6523SM  C18F 8462   1.310   5.746  11.339 -0.5779 -0.0930  0.4651
   6523SM  H18F 8463   1.258   5.841  11.364  0.5828  0.6537  0.1137
   6523SM  H18G 8464   1.253   5.667  11.393 -2.5893  1.5350  0.8438
   6523SM  C19F 8465   1.323   5.726  11.187  0.5563 -0.0898  0.2331
   6523SM  H19F 8466   1.396   5.644  11.166  0.4054 -0.7862  2.1882
   6523SM  H19G 8467   1.366   5.821  11.151  0.6164 -0.6923 -1.3592
   6523SM  C20F 8468   1.184   5.698  11.131 -0.3263  0.1487 -0.0904
   6523SM  H20F 8469   1.191   5.704  11.020 -0.8869  0.7107 -0.1026
   6523SM  H20G 8470   1.105   5.771  11.157  0.0302  0.3569  0.4145
   6523SM  C21F 8471   1.143   5.548  11.146 -0.3128 -0.1901 -0.1823
   6523SM  H21F 8472   1.116   5.533  11.253  2.5650 -1.0013  0.5248
   6523SM  H21G 8473   1.233   5.490  11.118 -0.0506  0.4372 -0.6684
   6523SM  C22F 8474   1.024   5.505  11.055 -0.0341 -0.1976  0.2577
   6523SM  H22F 8475   1.061   5.504  10.950  2.0101 -2.3087  0.9143
   6523SM  H22G 8476   0.934   5.569  11.063 -1.0312 -1.3385 -1.2963
   6523SM  C23F 8477   0.977   5.359  11.097 -0.2389 -0.0815  0.1197
   6523SM  H23F 8478   0.930   5.374  11.196 -0.8486  1.2062 -0.3314
   6523SM  H23G 8479   1.071   5.300  11.107 -0.3588  0.2078  4.7619
   6523SM  H23H 8480   0.907   5.306  11.029  0.6755 -1.6721  0.3781
   6623SM     N 8481   5.464   2.691  14.189 -0.7805  0.8425  0.0310
   6623SM   C15 8482   5.414   2.773  14.297 -0.0025 -0.3019 -0.1003
   6623SM  H15A 8483   5.375   2.706  14.373 -2.2189  0.0838 -0.8187
   6623SM  H15B 8484   5.322   2.822  14.270 -0.6714 -1.7952 -0.6536
   6623SM  H15C 8485   5.478   2.844  14.346 -1.1305  1.3796 -0.9773
   6623SM   C14 8486   5.603   2.653  14.223 -0.7839  0.6096  0.6245
   6623SM  H14A 8487   5.643   2.595  14.141 -0.7005  1.4345  0.0772
   6623SM  H14B 8488   5.601   2.581  14.304 -1.0225  1.8191  1.7140
   6623SM  H14C 8489   5.666   2.737  14.247  0.4825  0.1382 -0.8751
   6623SM   C13 8490   5.396   2.560  14.167  1.0064 -0.2522  0.5498
   6623SM  H13A 8491   5.442   2.508  14.085 -2.8611 -1.4055 -1.0994
   6623SM  H13B 8492   5.294   2.574  14.133  1.5988  3.1304 -0.1656
   6623SM  H13C 8493   5.396   2.507  14.261 -0.1203  0.2598  0.8562
   6623SM   C12 8494   5.460   2.766  14.051 -0.5742 -0.1593 -0.0155
   6623SM  H12A 8495   5.523   2.854  14.051  0.3900 -0.8313 -0.6974
   6623SM  H12B 8496   5.358   2.801  14.039 -0.4715 -0.2570 -1.2944
   6623SM   C11 8497   5.493   2.682  13.924 -1.1176  0.5432  0.4747
   6623SM  H11A 8498   5.522   2.757  13.847  0.8986 -1.1170 -0.4985
   6623SM  H11B 8499   5.398   2.644  13.880 -0.5428 -0.5677  0.1388
   6623SM     P 8500   5.592   2.460  13.834  0.2728 -0.3520  0.0460
   6623SM   O13 8501   5.736   2.414  13.823 -0.7353 -0.2821 -0.0693
   6623SM   O14 8502   5.488   2.363  13.877 -0.4095  0.5900 -0.0509
   6623SM   O11 8503   5.535   2.525  13.697 -0.5294 -0.4201 -0.3472
   6623SM   O12 8504   5.599   2.583  13.931  0.7738 -0.0316 -0.2489
   6623SM   C1S 8505   5.618   2.594  13.613 -0.6570  0.4828 -0.0116
   6623SM   H1S 8506   5.717   2.543  13.607  0.8471  3.1108  0.9284
   6623SM   H1T 8507   5.643   2.689  13.665 -0.1167  0.9927 -1.1750
   6623SM    NF 8508   5.628   2.663  13.367 -0.4867  0.2080  0.4981
   6623SM   HNF 8509   5.603   2.750  13.324 -2.4052 -0.0977  0.8892
   6623SM   C2S 8510   5.546   2.621  13.474 -0.0144  0.2242 -0.7064
   6623SM   H2S 8511   5.500   2.524  13.446  1.9893 -1.3199  0.9888
   6623SM   C3S 8512   5.418   2.715  13.501 -0.2139 -0.1306  0.4498
   6623SM   H3S 8513   5.452   2.817  13.529 -0.2254 -0.7012  2.8015
   6623SM    O3 8514   5.333   2.677  13.610 -0.2960 -0.1259  0.0294
   6623SM   HO3 8515   5.399   2.630  13.662 -0.4412  0.0026  0.3322
   6623SM   C4S 8516   5.355   2.737  13.366  0.1376 -0.3993 -0.8338
   6623SM   H4S 8517   5.414   2.804  13.302 -0.0554  0.0458 -0.5487
   6623SM   C5S 8518   5.247   2.671  13.316 -0.3077  0.1757  0.3780
   6623SM   H5S 8519   5.204   2.600  13.388 -2.6177  1.1285  0.0229
   6623SM   C6S 8520   5.191   2.666  13.173 -0.4692 -0.2919 -0.1345
   6623SM   H6S 8521   5.096   2.725  13.171  1.1405  2.4451 -1.1259
   6623SM   H6T 8522   5.179   2.559  13.145 -0.7664 -0.3002  0.0174
   6623SM   C7S 8523   5.281   2.741  13.071 -0.6379 -0.5454 -0.4673
   6623SM   H7S 8524   5.376   2.685  13.062 -0.9626 -1.3428  0.7299
   6623SM   H7T 8525   5.303   2.846  13.101 -0.0148 -0.8218  0.0820
   6623SM   C8S 8526   5.211   2.736  12.935  1.1341  0.0566 -0.7887
   6623SM   H8S 8527   5.118   2.796  12.944  2.0672  1.2462  1.7559
   6623SM   H8T 8528   5.179   2.633  12.908 -1.3283  0.3321  0.7628
   6623SM   C9S 8529   5.287   2.779  12.811  1.0999  0.7934 -0.4790
   6623SM   H9S 8530   5.377   2.720  12.783  0.2132  0.0958 -1.9829
   6623SM   H9T 8531   5.304   2.888  12.819 -2.5419  1.3484  1.8350
   6623SM  C10S 8532   5.198   2.752  12.687  0.3159 -0.1209  0.2755
   6623SM  H10S 8533   5.118   2.828  12.695  1.6005  1.5348 -1.5695
   6623SM  H10T 8534   5.155   2.650  12.675 -0.7955  0.5580 -2.1066
   6623SM  C11S 8535   5.267   2.783  12.552  0.0154  0.4942 -0.2264
   6623SM  H11S 8536   5.213   2.724  12.475 -0.7017  0.4631  0.2884
   6623SM  H11T 8537   5.372   2.747  12.549  0.1191  0.6246  1.2113
   6623SM  C12S 8538   5.264   2.933  12.521 -0.1338  0.4145 -0.1740
   6623SM  H12S 8539   5.309   2.974  12.614  0.4112 -2.1205  0.7774
   6623SM  H12T 8540   5.160   2.975  12.520 -0.2141  0.2143 -0.9956
   6623SM  C13S 8541   5.322   2.986  12.391 -0.3194 -0.0771 -0.4509
   6623SM  H13S 8542   5.306   3.096  12.382  0.9873  0.1832  0.1037
   6623SM  H13T 8543   5.276   2.934  12.304 -0.5749  0.8735 -0.8963
   6623SM  C14S 8544   5.471   2.985  12.381 -0.0258 -0.6368  0.6707
   6623SM  H14S 8545   5.507   2.886  12.344  2.8630  0.1730  1.0487
   6623SM  H14T 8546   5.508   2.991  12.486  0.3239  1.6489  0.4532
   6623SM  C15S 8547   5.534   3.094  12.288 -0.1379 -0.1282 -0.7187
   6623SM  H15S 8548   5.519   3.188  12.344  1.2458 -0.0620 -0.4174
   6623SM  H15T 8549   5.469   3.100  12.198  0.3137 -1.4538 -1.1541
   6623SM  C16S 8550   5.681   3.062  12.248 -0.1187  0.0821 -0.3297
   6623SM  H16S 8551   5.670   2.977  12.177  3.7525 -0.8861  0.0359
   6623SM  H16T 8552   5.742   3.038  12.338  0.9487 -1.2887 -1.3706
   6623SM  C17S 8553   5.755   3.176  12.184  0.2904 -0.5805  0.3857
   6623SM  H17S 8554   5.685   3.227  12.115 -0.0387  0.6621  1.5997
   6623SM  H17T 8555   5.843   3.147  12.122  1.1039  2.5232 -0.0719
   6623SM  C18S 8556   5.817   3.270  12.289 -0.1709  0.7822 -0.1859
   6623SM  H18S 8557   5.876   3.346  12.234  0.7765 -0.1146 -0.4404
   6623SM  H18T 8558   5.881   3.202  12.350 -4.5722 -3.4168  0.3318
   6623SM  H18U 8559   5.743   3.321  12.353 -0.1653 -0.1413  0.5853
   6623SM   C1F 8560   5.731   2.592  13.313 -0.0696 -0.4938  0.1993
   6623SM    OF 8561   5.786   2.499  13.372  0.0037 -0.6766  0.2129
   6623SM   C2F 8562   5.768   2.629  13.167 -0.2708 -0.2538 -0.0207
   6623SM   H2F 8563   5.803   2.734  13.175 -3.4341  0.8433  0.8808
   6623SM   H2G 8564   5.672   2.632  13.111 -0.5080 -1.0916  0.3062
   6623SM   C3F 8565   5.870   2.526  13.112  0.1686  0.1580  0.0542
   6623SM   H3F 8566   5.816   2.428  13.115  0.6700 -0.1436 -0.5974
   6623SM   H3G 8567   5.969   2.522  13.160  0.2232 -0.6880 -0.1182
   6623SM   C4F 8568   5.877   2.550  12.958  0.2604 -0.3332 -0.3262
   6623SM   H4F 8569   5.919   2.647  12.922  0.5655  0.8884  3.0170
   6623SM   H4G 8570   5.773   2.556  12.918 -0.0071  0.0770  0.4153
   6623SM   C5F 8571   5.959   2.443  12.897  0.1626 -0.0807  0.1655
   6623SM   H5F 8572   6.059   2.449  12.945  0.9431  0.6905 -1.4759
   6623SM   H5G 8573   5.970   2.470  12.790  0.6862  2.3956  0.7787
   6623SM   C6F 8574   5.919   2.291  12.909  0.2480  0.0381 -0.1294
   6623SM   H6F 8575   5.825   2.267  12.855  0.2982  0.6383 -0.4856
   6623SM   H6G 8576   5.901   2.264  13.016 -1.7683  0.1961 -0.3912
   6623SM   C7F 8577   6.026   2.203  12.847  0.6312  0.4574 -0.6744
   6623SM   H7F 8578   5.984   2.103  12.870  1.4145  0.3081  0.1377
   6623SM   H7G 8579   6.123   2.223  12.898 -0.3145 -0.5944  1.6297
   6623SM   C8F 8580   6.050   2.221  12.697 -1.1066 -0.4011 -0.6081
   6623SM   H8F 8581   6.140   2.161  12.671  1.4683  1.6999  2.6526
   6623SM   H8G 8582   6.087   2.325  12.684 -0.2645 -0.5845  0.1817
   6623SM   C9F 8583   5.948   2.182  12.593 -0.1191  0.1612 -0.6972
   6623SM   H9F 8584   5.850   2.228  12.618 -0.0510  2.2482 -3.6803
   6623SM   H9G 8585   5.937   2.071  12.590  1.2326 -0.0159  0.0979
   6623SM  C10F 8586   5.995   2.232  12.457 -0.2311  0.5054  0.6384
   6623SM  H10F 8587   6.099   2.202  12.429 -1.0373 -1.2904 -0.5684
   6623SM  H10G 8588   5.992   2.343  12.456 -0.2362  0.4988  0.1110
   6623SM  C11F 8589   5.912   2.186  12.341  0.2777  0.0220 -0.4036
   6623SM  H11F 8590   5.807   2.187  12.376  1.1432  0.0758  2.5030
   6623SM  H11G 8591   5.944   2.081  12.320  1.4848 -0.0132  1.3824
   6623SM  C12F 8592   5.924   2.255  12.208  0.5593 -0.1814  0.1102
   6623SM  H12F 8593   6.022   2.239  12.159  0.8891  0.2426  0.6368
   6623SM  H12G 8594   5.907   2.363  12.222  1.1951 -0.0441 -0.1576
   6623SM  C13F 8595   5.817   2.217  12.114  0.3400 -0.0277  0.1554
   6623SM  H13F 8596   5.729   2.195  12.178  1.1886 -2.0274  0.7109
   6623SM  H13G 8597   5.839   2.115  12.075  1.1069 -0.4335  1.5649
   6623SM  C14F 8598   5.777   2.322  12.004  0.3022  0.2079  0.5638
   6623SM  H14F 8599   5.750   2.418  12.052  0.7727 -0.5307  2.4173
   6623SM  H14G 8600   5.691   2.283  11.946 -0.8397  2.9029  0.3476
   6623SM  C15F 8601   5.897   2.361  11.912 -0.3510  0.0517 -0.2454
   6623SM  H15F 8602   5.939   2.265  11.876 -1.4004 -0.6963  0.4398
   6623SM  H15G 8603   5.975   2.412  11.972 -0.6647  1.4858 -1.0146
   6623SM  C16F 8604   5.860   2.464  11.810 -0.4281 -0.1137  0.4296
   6623SM  H16F 8605   5.829   2.556  11.864  2.1867  0.5162  1.0072
   6623SM  H16G 8606   5.776   2.425  11.748 -0.2350  0.9626 -0.5561
   6623SM  C17F 8607   5.984   2.513  11.727 -0.2264  0.3612  0.0040
   6623SM  H17F 8608   6.023   2.424  11.673  0.3636  2.1380 -2.6460
   6623SM  H17G 8609   6.065   2.556  11.790 -1.3582  1.5737  0.6808
   6623SM  C18F 8610   5.942   2.614  11.630  0.3552 -0.5094  0.4242
   6623SM  H18F 8611   5.886   2.691  11.687  1.9711 -0.4524  1.9995
   6623SM  H18G 8612   5.870   2.565  11.560  2.4214 -0.8437 -1.5999
   6623SM  C19F 8613   6.052   2.685  11.557  0.2928 -0.3067 -0.5639
   6623SM  H19F 8614   6.128   2.610  11.527  1.4109  0.4640  0.2520
   6623SM  H19G 8615   6.091   2.763  11.626  2.9548 -1.1811 -0.9944
   6623SM  C20F 8616   6.003   2.762  11.430  0.5971 -0.3765  0.0024
   6623SM  H20F 8617   5.919   2.828  11.460 -0.3009 -1.6803  0.4378
   6623SM  H20G 8618   5.948   2.692  11.363 -1.2549  1.1845 -0.1795
   6623SM  C21F 8619   6.109   2.839  11.359 -0.0607  0.5904  0.1964
   6623SM  H21F 8620   6.193   2.769  11.339  1.6734  2.9245 -1.1440
   6623SM  H21G 8621   6.154   2.912  11.429  2.1916 -1.9098  1.5563
   6623SM  C22F 8622   6.068   2.917  11.239 -0.1833  0.2739  0.0684
   6623SM  H22F 8623   6.047   2.836  11.166 -0.4290  0.2908  0.1216
   6623SM  H22G 8624   6.154   2.976  11.201 -0.6893  0.6703 -0.4782
   6623SM  C23F 8625   5.954   3.014  11.255 -0.2894  0.0803  0.6662
   6623SM  H23F 8626   5.983   3.088  11.334  2.9601 -1.0692  0.7091
   6623SM  H23G 8627   5.866   2.953  11.283  0.1438  0.0716  2.0834
   6623SM  H23H 8628   5.924   3.063  11.160 -0.5862 -1.3381  0.0154
   6723SM     N 8629   6.120   0.578  13.341 -0.7336  0.2990 -0.1567
   6723SM   C15 8630   6.192   0.623  13.471 -0.5721 -0.1247 -0.6646
   6723SM  H15A 8631   6.280   0.686  13.468 -0.1036 -0.7742 -3.0354
   6723SM  H15B 8632   6.208   0.533  13.528  0.6195  0.8422  0.6134
   6723SM  H15C 8633   6.125   0.685  13.529  0.6280  0.7923 -0.2081
   6723SM   C14 8634   5.992   0.502  13.374  0.1395 -0.3577  0.1105
   6723SM  H14A 8635   5.943   0.580  13.430  2.8092  0.6465  1.1842
   6723SM  H14B 8636   6.006   0.415  13.438  0.9305 -0.0952  0.2966
   6723SM  H14C 8637   5.925   0.492  13.290  1.6802  2.0929 -1.5190
   6723SM   C13 8638   6.081   0.699  13.259 -1.8029  0.3343  0.2251
   6723SM  H13A 8639   6.030   0.775  13.316  1.8064  1.6972  1.9769
   6723SM  H13B 8640   6.030   0.668  13.169  1.6141  1.3860 -2.3088
   6723SM  H13C 8641   6.169   0.747  13.219 -3.9382  2.1539 -2.7591
   6723SM   C12 8642   6.216   0.498  13.255  0.1686  0.8965  0.6261
   6723SM  H12A 8643   6.304   0.554  13.225  1.7690 -0.8268  1.8505
   6723SM  H12B 8644   6.158   0.469  13.169 -1.4869  0.4969  1.8434
   6723SM   C11 8645   6.264   0.355  13.302 -0.0094 -0.4895 -0.7307
   6723SM  H11A 8646   6.339   0.325  13.225  1.1577  1.1316 -0.2934
   6723SM  H11B 8647   6.176   0.288  13.301 -0.4232 -0.0068  0.6476
   6723SM     P 8648   6.488   0.362  13.438 -0.1133  0.3471 -0.1223
   6723SM   O13 8649   6.546   0.400  13.306  0.2278 -0.4275  0.1418
   6723SM   O14 8650   6.522   0.456  13.548  0.2162  0.2076 -0.0419
   6723SM   O11 8651   6.534   0.215  13.475 -0.6377  0.1578  0.0251
   6723SM   O12 8652   6.327   0.354  13.432 -0.0795 -1.0697 -0.4551
   6723SM   C1S 8653   6.473   0.093  13.439  0.2292  0.4465  0.2677
   6723SM   H1S 8654   6.363   0.106  13.430  0.2942 -0.3210 -2.2660
   6723SM   H1T 8655   6.487   0.006  13.507  3.1413 -0.5383 -1.4314
   6723SM    NF 8656   6.456  -0.063  13.234  0.3466  0.1067 -0.0740
   6723SM   HNF 8657   6.491  -0.156  13.235  0.9972  0.3344  1.1849
   6723SM   C2S 8658   6.524   0.048  13.297 -0.2135 -0.0361  0.8574
   6723SM   H2S 8659   6.489   0.130  13.231 -1.5793 -0.8057  0.6065
   6723SM   C3S 8660   6.683   0.042  13.288  0.4078  0.2437  0.2290
   6723SM   H3S 8661   6.716  -0.035  13.361 -0.4719 -0.2936  0.0671
   6723SM    O3 8662   6.750   0.157  13.329 -0.0293  0.4209 -0.3616
   6723SM   HO3 8663   6.681   0.192  13.386  0.5602  1.5852 -0.3400
   6723SM   C4S 8664   6.735   0.018  13.155  0.2184  0.3343 -0.4504
   6723SM   H4S 8665   6.775  -0.083  13.139  0.6778  0.5760 -0.8429
   6723SM   C5S 8666   6.728   0.097  13.044 -0.1018 -0.7020  1.0631
   6723SM   H5S 8667   6.686   0.198  13.053  0.0039 -0.5405 -0.0470
   6723SM   C6S 8668   6.777   0.055  12.904  0.1877  0.6212 -0.3654
   6723SM   H6S 8669   6.796  -0.054  12.912 -0.1752  0.6676  1.8166
   6723SM   H6T 8670   6.880   0.090  12.882  0.4363 -0.1680 -0.4700
   6723SM   C7S 8671   6.683   0.077  12.784  0.4671 -0.2125 -0.1938
   6723SM   H7S 8672   6.677   0.187  12.766 -0.9588 -0.4238 -1.1631
   6723SM   H7T 8673   6.575   0.056  12.800  0.5139 -0.2593  0.0552
   6723SM   C8S 8674   6.723  -0.004  12.654  1.3686 -0.1557 -0.5935
   6723SM   H8S 8675   6.712  -0.113  12.671  1.2044 -0.4177 -2.2039
   6723SM   H8T 8676   6.828   0.009  12.621  1.1406  4.2526 -0.2528
   6723SM   C9S 8677   6.624   0.031  12.537  0.3818  0.2658  0.6137
   6723SM   H9S 8678   6.589   0.136  12.548 -1.5766 -0.4221  1.4217
   6723SM   H9T 8679   6.538  -0.036  12.557 -1.1286  2.4842  2.0055
   6723SM  C10S 8680   6.683  -0.007  12.399  0.2327  0.6591  0.4897
   6723SM  H10S 8681   6.726  -0.109  12.401 -0.7271  0.2484  1.0170
   6723SM  H10T 8682   6.764   0.062  12.368  1.0724 -1.5456 -2.6997
   6723SM  C11S 8683   6.580  -0.003  12.289 -0.0186  1.1587  0.2290
   6723SM  H11S 8684   6.535   0.099  12.282  0.0625  1.1164 -1.2663
   6723SM  H11T 8685   6.495  -0.073  12.304 -0.7203  1.4211 -2.0082
   6723SM  C12S 8686   6.647  -0.015  12.143 -0.0655 -0.0997 -0.5864
   6723SM  H12S 8687   6.714  -0.104  12.139 -0.1060 -0.2472  1.1409
   6723SM  H12T 8688   6.704   0.080  12.133 -1.0298  0.9743  2.6896
   6723SM  C13S 8689   6.553  -0.021  12.019 -0.0170  0.8051  0.0089
   6723SM  H13S 8690   6.483   0.064  12.005  0.5426  0.9074 -2.6361
   6723SM  H13T 8691   6.496  -0.116  12.032 -0.9197  1.4030  0.5372
   6723SM  C14S 8692   6.627  -0.046  11.882 -0.1439 -0.3881  0.2123
   6723SM  H14S 8693   6.676  -0.146  11.879 -0.2313 -0.4435  0.6053
   6723SM  H14T 8694   6.710   0.027  11.872  0.0079 -0.2936  1.8626
   6723SM  C15S 8695   6.527  -0.036  11.763  0.4465  0.5355  0.0590
   6723SM  H15S 8696   6.585  -0.010  11.672 -0.5967 -1.1586 -1.1703
   6723SM  H15T 8697   6.459   0.051  11.770 -0.9068 -0.3513 -1.3430
   6723SM  C16S 8698   6.459  -0.163  11.726  0.2724 -0.0030  0.4236
   6723SM  H16S 8699   6.371  -0.179  11.793 -2.3971  0.5623 -2.6725
   6723SM  H16T 8700   6.528  -0.249  11.736 -1.2421 -1.1693  1.3507
   6723SM  C17S 8701   6.387  -0.172  11.588 -0.1243 -0.2864 -0.8083
   6723SM  H17S 8702   6.310  -0.092  11.598  1.3966  1.2031 -0.5517
   6723SM  H17T 8703   6.332  -0.268  11.588 -0.1383 -0.2772 -0.5294
   6723SM  C18S 8704   6.485  -0.163  11.474 -0.7829  0.1577 -0.1697
   6723SM  H18S 8705   6.430  -0.169  11.377 -0.2492  2.8052 -0.7160
   6723SM  H18T 8706   6.564  -0.240  11.488 -2.1184 -1.4477 -1.0328
   6723SM  H18U 8707   6.544  -0.069  11.472 -3.1184  1.6982 -0.8116
   6723SM   C1F 8708   6.326  -0.051  13.206  0.4836  0.4459 -0.2115
   6723SM    OF 8709   6.273   0.058  13.189 -0.1208 -0.5631  0.5776
   6723SM   C2F 8710   6.246  -0.179  13.216  0.0739 -0.3156  0.5970
   6723SM   H2F 8711   6.163  -0.156  13.286 -0.7963 -0.1677 -0.4531
   6723SM   H2G 8712   6.310  -0.267  13.238  1.9504  0.7670 -0.2992
   6723SM   C3F 8713   6.184  -0.221  13.073 -0.1653 -0.1540 -0.2892
   6723SM   H3F 8714   6.116  -0.136  13.048  2.2603  2.7420  2.0665
   6723SM   H3G 8715   6.130  -0.317  13.089 -1.5953  0.9884  2.3540
   6723SM   C4F 8716   6.283  -0.219  12.956  0.3666  0.1486 -0.1127
   6723SM   H4F 8717   6.356  -0.303  12.966  1.3070  0.7031 -1.8275
   6723SM   H4G 8718   6.347  -0.129  12.944  1.2414  0.1421  3.5291
   6723SM   C5F 8719   6.196  -0.233  12.833 -0.0527  0.0849 -0.1204
   6723SM   H5F 8720   6.109  -0.163  12.834  0.5847  0.9017 -0.1057
   6723SM   H5G 8721   6.153  -0.335  12.840 -0.2227  0.0464 -1.4496
   6723SM   C6F 8722   6.268  -0.223  12.698 -0.0882 -0.0576  0.2891
   6723SM   H6F 8723   6.359  -0.283  12.717  0.7377  1.3645  1.0114
   6723SM   H6G 8724   6.303  -0.119  12.682  2.1338 -0.9884 -1.3944
   6723SM   C7F 8725   6.188  -0.274  12.573 -0.8634 -0.3004 -0.9951
   6723SM   H7F 8726   6.100  -0.210  12.553 -0.9868 -0.9264 -2.5436
   6723SM   H7G 8727   6.146  -0.374  12.598 -2.4851  0.3102 -1.1832
   6723SM   C8F 8728   6.267  -0.292  12.440 -0.0662  0.2668  0.2767
   6723SM   H8F 8729   6.349  -0.364  12.459 -0.0436 -0.4598 -2.2300
   6723SM   H8G 8730   6.329  -0.204  12.411 -0.7479  0.4439 -0.7183
   6723SM   C9F 8731   6.188  -0.342  12.322  0.0930  0.4066  0.2766
   6723SM   H9F 8732   6.091  -0.288  12.321  0.2223  0.6293 -0.9854
   6723SM   H9G 8733   6.163  -0.450  12.334  1.1508  0.2890  1.7926
   6723SM  C10F 8734   6.256  -0.315  12.189 -0.5965  0.7679 -0.5517
   6723SM  H10F 8735   6.349  -0.375  12.189 -1.5223 -0.7128  0.0619
   6723SM  H10G 8736   6.291  -0.210  12.199  0.1381  0.4828 -0.0058
   6723SM  C11F 8737   6.166  -0.339  12.073 -0.5252 -0.0570  0.0413
   6723SM  H11F 8738   6.131  -0.443  12.086 -0.9067 -0.1482 -1.5081
   6723SM  H11G 8739   6.233  -0.336  11.985  2.2400 -0.2988  2.0178
   6723SM  C12F 8740   6.047  -0.248  12.048 -0.3213  0.4004 -0.0535
   6723SM  H12F 8741   6.082  -0.144  12.065 -0.7143  0.2811  1.5970
   6723SM  H12G 8742   5.968  -0.283  12.117 -0.1581 -3.1602 -1.4764
   6723SM  C13F 8743   5.992  -0.235  11.903 -0.1216 -0.1263  0.7823
   6723SM  H13F 8744   5.978  -0.341  11.872  2.0103 -0.3844  0.5139
   6723SM  H13G 8745   6.081  -0.205  11.843  0.5274  0.3784  1.9642
   6723SM  C14F 8746   5.870  -0.146  11.877  0.2138  0.3702  0.1854
   6723SM  H14F 8747   5.896  -0.041  11.900 -1.2063  0.7123  0.2857
   6723SM  H14G 8748   5.780  -0.185  11.929  1.5779  0.0143  2.4221
   6723SM  C15F 8749   5.846  -0.147  11.724  0.3671 -0.2845  0.2651
   6723SM  H15F 8750   5.831  -0.250  11.687 -3.2723 -0.2729  1.2750
   6723SM  H15G 8751   5.932  -0.098  11.673  2.4090 -1.2537  2.6117
   6723SM  C16F 8752   5.716  -0.064  11.703  0.2763  0.2841  0.4672
   6723SM  H16F 8753   5.724   0.035  11.753  1.1208  0.2480  0.4262
   6723SM  H16G 8754   5.637  -0.127  11.749  0.4003 -1.1160 -1.1488
   6723SM  C17F 8755   5.684  -0.041  11.553 -0.2053 -0.0318  0.0920
   6723SM  H17F 8756   5.654  -0.141  11.516  1.2381 -0.6247  0.4443
   6723SM  H17G 8757   5.770   0.003  11.497  0.1860  0.5041  1.0800
   6723SM  C18F 8758   5.568   0.064  11.533  0.0522  0.3387  0.0180
   6723SM  H18F 8759   5.569   0.098  11.428  1.6330 -1.1454 -0.4999
   6723SM  H18G 8760   5.582   0.149  11.603 -1.8708  1.8298 -1.3213
   6723SM  C19F 8761   5.425   0.007  11.563 -0.3300  0.3246 -0.6482
   6723SM  H19F 8762   5.365   0.100  11.554 -0.2267  0.3786 -0.7688
   6723SM  H19G 8763   5.428  -0.022  11.671  0.7187  1.9321 -0.1966
   6723SM  C20F 8764   5.372  -0.116  11.489  0.8196 -0.1646  0.2617
   6723SM  H20F 8765   5.262  -0.126  11.506  0.5081  0.6004 -1.0838
   6723SM  H20G 8766   5.413  -0.209  11.533 -0.6414 -1.8606 -1.7409
   6723SM  C21F 8767   5.401  -0.102  11.335 -0.7313  0.6348  0.1567
   6723SM  H21F 8768   5.510  -0.098  11.313 -0.9588 -1.3719 -1.6491
   6723SM  H21G 8769   5.352  -0.008  11.302 -2.7382 -0.3283  0.2202
   6723SM  C22F 8770   5.329  -0.211  11.254 -0.4543  0.0074 -1.1005
   6723SM  H22F 8771   5.355  -0.310  11.298  0.1818  1.2504  1.5010
   6723SM  H22G 8772   5.380  -0.198  11.156  1.3514  0.1562 -0.1835
   6723SM  C23F 8773   5.175  -0.193  11.249 -0.3481 -0.2772  0.8260
   6723SM  H23F 8774   5.120  -0.180  11.345 -0.2358  3.6021  0.5545
   6723SM  H23G 8775   5.125  -0.269  11.186 -1.2360 -0.0547  1.2347
   6723SM  H23H 8776   5.164  -0.091  11.206  1.2747  0.3475  1.8020
   6823SM     N 8777   5.868   1.636  13.440 -0.5017 -0.4325  0.5620
   6823SM   C15 8778   5.809   1.610  13.582 -0.2034  1.1269  0.9599
   6823SM  H15A 8779   5.728   1.679  13.597  1.4460  3.3931 -0.0308
   6823SM  H15B 8780   5.880   1.609  13.663  1.2989 -0.3790 -0.2944
   6823SM  H15C 8781   5.767   1.510  13.581  0.0995  0.9948 -0.3390
   6823SM   C14 8782   5.767   1.618  13.334  0.6486  0.2629 -0.5785
   6823SM  H14A 8783   5.677   1.671  13.363  0.2242  0.0583 -1.4798
   6823SM  H14B 8784   5.731   1.516  13.336  0.4204  0.3518  0.2072
   6823SM  H14C 8785   5.797   1.638  13.233  1.7206 -1.0056 -0.5308
   6823SM   C13 8786   5.936   1.778  13.427  0.0081  0.2212  0.4878
   6823SM  H13A 8787   5.869   1.860  13.447 -1.3156 -0.4146 -1.1199
   6823SM  H13B 8788   5.962   1.777  13.323  0.4943  0.5084  0.6018
   6823SM  H13C 8789   6.021   1.788  13.493 -1.1694  0.8650  1.9748
   6823SM   C12 8790   5.976   1.534  13.414 -0.0464 -0.4030 -0.1092
   6823SM  H12A 8791   5.933   1.437  13.429 -0.5368 -0.3377 -0.9858
   6823SM  H12B 8792   6.046   1.545  13.495 -2.1266 -1.4093  1.9129
   6823SM   C11 8793   6.054   1.541  13.290  0.8639 -0.1416  0.2820
   6823SM  H11A 8794   6.148   1.595  13.316  0.3819  0.5780  0.5557
   6823SM  H11B 8795   6.004   1.589  13.203  0.1809 -2.0005 -0.3880
   6823SM     P 8796   6.010   1.308  13.167 -0.2543 -0.1572 -0.1993
   6823SM   O13 8797   6.069   1.176  13.149  0.4586  0.2896 -0.1633
   6823SM   O14 8798   5.870   1.322  13.209 -0.2962  0.3504 -0.1321
   6823SM   O11 8799   6.036   1.391  13.033 -0.4436 -0.0990  0.0358
   6823SM   O12 8800   6.096   1.408  13.258  0.2554  0.0401  0.0954
   6823SM   C1S 8801   6.167   1.407  12.979 -0.2243 -0.3886 -0.5918
   6823SM   H1S 8802   6.221   1.311  12.972 -1.0405 -1.2086  2.6928
   6823SM   H1T 8803   6.220   1.463  13.060 -0.5184  1.7652 -1.8143
   6823SM    NF 8804   6.296   1.466  12.775  0.7297  0.5541 -0.4478
   6823SM   HNF 8805   6.365   1.535  12.794  0.2229  0.7133  1.0010
   6823SM   C2S 8806   6.164   1.477  12.840 -0.3670  0.3270 -0.1800
   6823SM   H2S 8807   6.093   1.419  12.777 -1.3840  0.0493  1.1696
   6823SM   C3S 8808   6.116   1.626  12.857  0.3562 -1.0375  0.7229
   6823SM   H3S 8809   6.200   1.673  12.912  1.2322  0.2344 -1.5470
   6823SM    O3 8810   6.002   1.630  12.940  0.1979  0.0828  0.6795
   6823SM   HO3 8811   5.993   1.546  12.985 -0.4470  0.7153  1.7950
   6823SM   C4S 8812   6.084   1.687  12.723 -0.0748  0.4207 -0.4656
   6823SM   H4S 8813   5.992   1.639  12.688  0.0336 -0.2341  0.1008
   6823SM   C5S 8814   6.149   1.787  12.657  0.7218 -0.0081  0.1906
   6823SM   H5S 8815   6.237   1.828  12.709  2.6424 -1.7914 -1.4423
   6823SM   C6S 8816   6.098   1.849  12.534 -0.0462  0.7999 -0.3225
   6823SM   H6S 8817   6.123   1.958  12.528 -0.8727  0.9326 -2.4039
   6823SM   H6T 8818   5.988   1.838  12.527 -0.2132  0.0723  2.3457
   6823SM   C7S 8819   6.165   1.773  12.417  0.6098 -0.3347 -0.0025
   6823SM   H7S 8820   6.125   1.671  12.399 -0.6716  0.5927 -2.9947
   6823SM   H7T 8821   6.274   1.759  12.428  1.0797  2.4749 -0.3110
   6823SM   C8S 8822   6.141   1.858  12.293 -0.2515 -0.6046  0.0394
   6823SM   H8S 8823   6.181   1.960  12.312  0.2353 -1.0609  1.6137
   6823SM   H8T 8824   6.031   1.866  12.279 -0.0399  0.2959 -1.4077
   6823SM   C9S 8825   6.198   1.792  12.165  0.3562  0.2687  0.4520
   6823SM   H9S 8826   6.169   1.685  12.173 -0.8356  0.2999 -2.3436
   6823SM   H9T 8827   6.309   1.804  12.162  0.2176  1.4264 -1.3806
   6823SM  C10S 8828   6.122   1.843  12.047  0.4330  0.3363 -0.1322
   6823SM  H10S 8829   6.015   1.820  12.064  0.8444 -1.4585  0.2193
   6823SM  H10T 8830   6.162   1.780  11.965  2.0699 -0.0063  0.8833
   6823SM  C11S 8831   6.151   1.985  12.008 -0.0309  0.0675  0.4246
   6823SM  H11S 8832   6.259   2.003  11.988 -0.3340  1.2953 -0.2412
   6823SM  H11T 8833   6.131   2.055  12.093 -2.3097 -0.2881  0.2312
   6823SM  C12S 8834   6.071   2.026  11.887 -0.2669 -0.4628  1.0050
   6823SM  H12S 8835   6.079   2.132  11.854 -1.4119 -0.6439  0.0834
   6823SM  H12T 8836   5.964   2.014  11.914 -0.7057 -1.0644 -0.8794
   6823SM  C13S 8837   6.098   1.933  11.770  0.2435  0.2294 -0.3348
   6823SM  H13S 8838   6.056   1.832  11.794  0.6676  0.2254  0.4263
   6823SM  H13T 8839   6.207   1.921  11.752  0.0119 -1.9949 -0.5325
   6823SM  C14S 8840   6.038   1.986  11.633 -0.8768 -0.1047 -0.0026
   6823SM  H14S 8841   5.931   2.013  11.643 -0.1783  2.7892  0.4438
   6823SM  H14T 8842   6.039   1.899  11.563 -2.1120 -0.5164  0.4627
   6823SM  C15S 8843   6.131   2.092  11.576 -0.3848 -0.3918 -0.1015
   6823SM  H15S 8844   6.230   2.043  11.578  0.0978  0.5522 -0.2317
   6823SM  H15T 8845   6.127   2.178  11.647 -0.2963 -0.8029  0.3997
   6823SM  C16S 8846   6.081   2.142  11.434 -0.0136 -0.7876 -0.2906
   6823SM  H16S 8847   6.160   2.214  11.405 -2.1151  1.3315 -1.1560
   6823SM  H16T 8848   5.987   2.202  11.435  0.7013  0.3682 -0.5348
   6823SM  C17S 8849   6.058   2.024  11.337  0.0327 -0.1230 -0.4059
   6823SM  H17S 8850   6.023   2.071  11.242  0.1382 -0.2098 -0.4889
   6823SM  H17T 8851   5.977   1.953  11.364  0.4959 -0.2976  0.5433
   6823SM  C18S 8852   6.180   1.941  11.314  0.4935 -0.3666 -0.3132
   6823SM  H18S 8853   6.156   1.880  11.224  2.0699 -1.0107 -0.3392
   6823SM  H18T 8854   6.194   1.884  11.408 -1.0346  0.4828  0.4608
   6823SM  H18U 8855   6.272   2.001  11.295 -0.8188  1.7285 -0.2850
   6823SM   C1F 8856   6.337   1.354  12.718  0.3692 -0.2025  0.0991
   6823SM    OF 8857   6.257   1.256  12.718 -0.5970  0.3708  0.3932
   6823SM   C2F 8858   6.480   1.354  12.664  0.1790  0.1170  0.1286
   6823SM   H2F 8859   6.542   1.337  12.755 -1.9341  0.0578  1.6150
   6823SM   H2G 8860   6.495   1.452  12.614 -2.0169  0.2158 -0.4400
   6823SM   C3F 8861   6.494   1.244  12.559 -0.2765  0.4355 -0.0515
   6823SM   H3F 8862   6.475   1.149  12.613  1.3499 -1.3879 -2.4418
   6823SM   H3G 8863   6.603   1.243  12.535 -0.1696 -0.2940  0.4180
   6823SM   C4F 8864   6.413   1.253  12.439  0.1619  0.2254  0.9539
   6823SM   H4F 8865   6.315   1.298  12.468 -0.5832 -0.1922 -0.7928
   6823SM   H4G 8866   6.382   1.150  12.411  3.7419 -0.7094 -0.0702
   6823SM   C5F 8867   6.464   1.330  12.312 -0.4399  0.4080  0.0390
   6823SM   H5F 8868   6.558   1.278  12.284 -0.0994 -0.1228  2.0177
   6823SM   H5G 8869   6.475   1.433  12.352 -1.2307  1.4774 -2.3062
   6823SM   C6F 8870   6.371   1.346  12.192  0.1993  0.2663 -0.0489
   6823SM   H6F 8871   6.273   1.380  12.230  0.4720  1.4453 -0.3408
   6823SM   H6G 8872   6.351   1.250  12.139 -0.5014  0.5255 -0.2598
   6823SM   C7F 8873   6.419   1.451  12.091 -0.1930 -0.0611 -0.5893
   6823SM   H7F 8874   6.530   1.454  12.091 -0.1747  0.4661  1.1301
   6823SM   H7G 8875   6.380   1.546  12.133 -1.8269 -1.5459  1.4581
   6823SM   C8F 8876   6.358   1.423  11.951 -0.1318  0.5976 -0.3705
   6823SM   H8F 8877   6.247   1.416  11.954 -0.2534  0.5779 -2.7293
   6823SM   H8G 8878   6.403   1.325  11.924  0.3258  1.6267 -3.8127
   6823SM   C9F 8879   6.406   1.526  11.843 -0.1063  0.0304 -1.0788
   6823SM   H9F 8880   6.516   1.542  11.837 -0.0499  3.4558  3.6694
   6823SM   H9G 8881   6.377   1.624  11.885 -0.4583 -0.6199  0.2599
   6823SM  C10F 8882   6.343   1.520  11.705 -0.2378  0.0590  0.0719
   6823SM  H10F 8883   6.351   1.416  11.667 -2.5066 -0.6815  1.3582
   6823SM  H10G 8884   6.403   1.587  11.641 -1.6875  1.6069  0.2598
   6823SM  C11F 8885   6.197   1.567  11.704 -0.3762 -0.1792  0.4695
   6823SM  H11F 8886   6.183   1.674  11.731  0.9094 -0.0484  0.6513
   6823SM  H11G 8887   6.137   1.505  11.775  1.0367 -1.4140  0.6289
   6823SM  C12F 8888   6.132   1.541  11.562  0.0986 -0.4663 -0.0361
   6823SM  H12F 8889   6.154   1.436  11.534 -0.1825  0.1292 -2.7310
   6823SM  H12G 8890   6.203   1.590  11.492 -0.0289 -1.0356 -0.5693
   6823SM  C13F 8891   5.984   1.584  11.540 -0.3523  0.2090 -0.8199
   6823SM  H13F 8892   5.984   1.694  11.558  0.1395  0.4497 -2.1883
   6823SM  H13G 8893   5.920   1.529  11.612  0.7639  0.1413  0.1474
   6823SM  C14F 8894   5.942   1.559  11.393 -0.0899  0.1704  0.1459
   6823SM  H14F 8895   5.946   1.450  11.374  1.4559  0.1316  0.6022
   6823SM  H14G 8896   6.007   1.613  11.320 -1.2436  0.5857 -0.6111
   6823SM  C15F 8897   5.798   1.602  11.352  0.9844 -0.0152 -0.2958
   6823SM  H15F 8898   5.787   1.711  11.372  1.6623  0.5111 -2.5891
   6823SM  H15G 8899   5.723   1.552  11.417  0.6086 -0.2353 -0.8904
   6823SM  C16F 8900   5.764   1.582  11.203  0.6967 -0.4078  0.1494
   6823SM  H16F 8901   5.806   1.481  11.181 -0.7052 -0.7603 -1.1138
   6823SM  H16G 8902   5.816   1.657  11.139 -1.7956  0.8777 -0.5206
   6823SM  C17F 8903   5.610   1.587  11.182  0.3697 -0.2669 -0.4603
   6823SM  H17F 8904   5.583   1.681  11.236  0.9516  0.7683 -1.8991
   6823SM  H17G 8905   5.567   1.509  11.248  1.7061  1.3862  2.5699
   6823SM  C18F 8906   5.564   1.586  11.040 -0.1829 -0.1871  0.2410
   6823SM  H18F 8907   5.611   1.499  10.989  1.3750  0.0346  1.2090
   6823SM  H18G 8908   5.596   1.675  10.981 -2.1326 -1.3640 -2.8361
   6823SM  C19F 8909   5.409   1.575  11.042  0.5778  0.1457  0.1637
   6823SM  H19F 8910   5.363   1.662  11.094  2.6002  0.8850  0.7993
   6823SM  H19G 8911   5.370   1.481  11.086 -2.4429  0.4212 -1.6337
   6823SM  C20F 8912   5.351   1.594  10.904 -0.2378  0.0544  0.3036
   6823SM  H20F 8913   5.376   1.693  10.859  0.0900  0.1410  0.6713
   6823SM  H20G 8914   5.240   1.582  10.910 -0.3572  0.3729 -0.9693
   6823SM  C21F 8915   5.385   1.481  10.802  0.2029 -1.4066  0.6014
   6823SM  H21F 8916   5.494   1.464  10.788  0.4887  0.4481  0.2954
   6823SM  H21G 8917   5.339   1.509  10.705  0.3581  1.1186  1.1818
   6823SM  C22F 8918   5.321   1.348  10.842  0.3110 -0.2224 -0.4788
   6823SM  H22F 8919   5.212   1.338  10.858  0.5384 -0.9772  0.6850
   6823SM  H22G 8920   5.369   1.307  10.933 -0.5226 -1.6474 -0.6487
   6823SM  C23F 8921   5.360   1.236  10.750 -0.0062  0.7178  0.2868
   6823SM  H23F 8922   5.328   1.141  10.799 -0.2684  1.1025  0.8771
   6823SM  H23G 8923   5.470   1.221  10.741 -0.1145 -0.4788  0.7752
   6823SM  H23H 8924   5.303   1.240  10.655 -0.1441  0.8453  0.3736
   6923SM     N 8925   1.033   3.698  14.720 -0.0523  0.3278 -0.0760
   6923SM   C15 8926   0.906   3.687  14.793 -0.8530  0.3157  0.1868
   6923SM  H15A 8927   0.926   3.626  14.880 -0.7427 -0.3551 -0.3034
   6923SM  H15B 8928   0.822   3.648  14.738 -1.7943  1.3438  0.8358
   6923SM  H15C 8929   0.876   3.783  14.834 -1.4424  0.0526  0.3787
   6923SM   C14 8930   1.021   3.806  14.620 -0.0097 -0.0968 -0.8683
   6923SM  H14A 8931   1.110   3.825  14.563 -0.2582  1.5923 -0.7468
   6923SM  H14B 8932   0.986   3.897  14.667  2.2037  0.2834  0.1439
   6923SM  H14C 8933   0.943   3.786  14.548 -0.9547 -0.3545  0.1752
   6923SM   C13 8934   1.147   3.725  14.819  0.4073 -0.3848 -0.3065
   6923SM  H13A 8935   1.139   3.825  14.859  0.8317 -0.6543  0.4822
   6923SM  H13B 8936   1.247   3.722  14.778  1.7251  3.2215  2.1366
   6923SM  H13C 8937   1.130   3.659  14.903 -3.1555  0.5121 -0.1458
   6923SM   C12 8938   1.068   3.570  14.654  0.3068  0.0688  0.8234
   6923SM  H12A 8939   1.078   3.492  14.728  0.5945 -0.1938  0.5127
   6923SM  H12B 8940   1.164   3.577  14.606  0.3095 -1.4647  0.5470
   6923SM   C11 8941   0.974   3.509  14.543  0.4581 -0.2707  0.1714
   6923SM  H11A 8942   1.033   3.433  14.486  0.4326 -1.1471  1.2727
   6923SM  H11B 8943   0.943   3.585  14.469  0.0349  0.0855  0.7120
   6923SM     P 8944   0.715   3.450  14.545 -0.1653 -0.0041 -0.5070
   6923SM   O13 8945   0.654   3.319  14.569  0.0390 -0.2620  0.0538
   6923SM   O14 8946   0.650   3.555  14.623  0.7361 -0.1401 -0.5292
   6923SM   O11 8947   0.718   3.477  14.389 -0.4160  0.4812  0.3947
   6923SM   O12 8948   0.863   3.450  14.599 -0.2485  0.2247  0.3367
   6923SM   C1S 8949   0.732   3.377  14.282  0.1262 -0.3033  0.1998
   6923SM   H1S 8950   0.641   3.313  14.284  0.2803 -0.6267 -1.5575
   6923SM   H1T 8951   0.822   3.315  14.299  0.5526  0.2851  0.1173
   6923SM    NF 8952   0.745   3.318  14.047 -0.0589 -0.2181  0.2925
   6923SM   HNF 8953   0.829   3.269  14.024 -0.2379 -0.3606 -0.0538
   6923SM   C2S 8954   0.747   3.436  14.139  0.2812 -0.1505  0.3002
   6923SM   H2S 8955   0.651   3.489  14.122 -0.5338 -2.0990 -1.5161
   6923SM   C3S 8956   0.863   3.533  14.114 -0.7558 -0.1829  0.6302
   6923SM   H3S 8957   0.957   3.475  14.110 -1.6025 -1.5409 -0.4894
   6923SM    O3 8958   0.892   3.634  14.213  0.2842  0.2552  0.0152
   6923SM   HO3 8959   0.848   3.597  14.290  0.8733  0.3755  0.4099
   6923SM   C4S 8960   0.853   3.578  13.967  0.8603  0.6452 -1.3602
   6923SM   H4S 8961   0.889   3.509  13.889 -1.0940  0.2927 -1.9996
   6923SM   C5S 8962   0.791   3.690  13.927 -0.4586  0.2823  0.0973
   6923SM   H5S 8963   0.744   3.754  14.004 -1.4491  0.5083 -0.6871
   6923SM   C6S 8964   0.790   3.746  13.788  0.4585  0.6480 -0.1712
   6923SM   H6S 8965   0.861   3.830  13.784  0.9459  0.1869 -2.0135
   6923SM   H6T 8966   0.687   3.788  13.778 -0.5010 -1.0008  1.8874
   6923SM   C7S 8967   0.820   3.642  13.680  0.3292 -0.0912  0.2391
   6923SM   H7S 8968   0.771   3.542  13.686 -2.4146  1.0936 -1.1813
   6923SM   H7T 8969   0.930   3.625  13.692  0.9536  1.2406 -2.6654
   6923SM   C8S 8970   0.792   3.722  13.546  0.5669 -0.2688 -0.1269
   6923SM   H8S 8971   0.854   3.813  13.563  0.6326 -0.5360  1.1987
   6923SM   H8T 8972   0.687   3.754  13.562  0.6490 -0.3432  0.6024
   6923SM   C9S 8973   0.814   3.663  13.409  0.1937  0.2266  0.9174
   6923SM   H9S 8974   0.764   3.564  13.407 -1.0561  0.8569 -0.4431
   6923SM   H9T 8975   0.915   3.656  13.363 -0.5602 -0.1712 -0.7346
   6923SM  C10S 8976   0.742   3.743  13.304  0.0308  0.0637 -0.0274
   6923SM  H10S 8977   0.789   3.844  13.295  0.3563  0.0328  1.1881
   6923SM  H10T 8978   0.637   3.757  13.338 -0.6271  0.7608 -2.1588
   6923SM  C11S 8979   0.738   3.672  13.170 -0.0527  0.4301  0.2953
   6923SM  H11S 8980   0.690   3.572  13.163  0.8561 -0.1871  2.1266
   6923SM  H11T 8981   0.841   3.651  13.134 -0.5486  0.3735 -1.1383
   6923SM  C12S 8982   0.692   3.765  13.054  0.6136  0.3056  0.2741
   6923SM  H12S 8983   0.764   3.849  13.052  0.2969  0.6202  1.2690
   6923SM  H12T 8984   0.600   3.816  13.090 -0.1155 -0.1177 -0.9374
   6923SM  C13S 8985   0.682   3.694  12.924  0.4401 -0.3966  0.6782
   6923SM  H13S 8986   0.600   3.619  12.931 -1.7232  1.2897 -3.4548
   6923SM  H13T 8987   0.769   3.629  12.899 -0.0299 -0.2522 -1.5364
   6923SM  C14S 8988   0.667   3.799  12.806  0.2997  0.4610 -0.6254
   6923SM  H14S 8989   0.728   3.890  12.824  2.2566 -1.0853  1.1532
   6923SM  H14T 8990   0.565   3.841  12.800 -0.0348 -0.3293 -0.5960
   6923SM  C15S 8991   0.704   3.739  12.669 -0.4141  0.0666  0.3204
   6923SM  H15S 8992   0.671   3.633  12.657  3.9846 -1.2298 -2.7193
   6923SM  H15T 8993   0.814   3.733  12.675 -0.5635 -2.7009  2.3666
   6923SM  C16S 8994   0.659   3.817  12.548 -0.2168  0.3921  0.3071
   6923SM  H16S 8995   0.550   3.799  12.558  0.1444 -1.8346  0.7005
   6923SM  H16T 8996   0.700   3.762  12.461  0.8076  2.5435 -0.6385
   6923SM  C17S 8997   0.700   3.964  12.540  0.1883  0.7151 -0.6507
   6923SM  H17S 8998   0.808   3.965  12.567  0.0131  0.0083  0.0911
   6923SM  H17T 8999   0.646   4.023  12.618 -0.6700 -1.5209  0.5141
   6923SM  C18S 9000   0.683   4.030  12.406 -0.4208 -0.2922  0.0753
   6923SM  H18S 9001   0.735   3.974  12.325  1.1921 -0.2834  1.0682
   6923SM  H18T 9002   0.724   4.134  12.402  1.8346 -1.1621 -1.4202
   6923SM  H18U 9003   0.575   4.038  12.385 -0.3469  2.8566  0.4588
   6923SM   C1F 9004   0.625   3.279  14.002  0.3536  0.2971  0.5658
   6923SM    OF 9005   0.520   3.337  14.033 -0.0814  0.3346  0.0526
   6923SM   C2F 9006   0.621   3.160  13.907 -0.3818  0.3312 -0.4379
   6923SM   H2F 9007   0.615   3.073  13.976  2.2112 -0.1119 -0.6436
   6923SM   H2G 9008   0.721   3.165  13.858 -0.4153  0.7878 -0.4665
   6923SM   C3F 9009   0.504   3.162  13.806  0.0027  0.1088 -0.3859
   6923SM   H3F 9010   0.414   3.134  13.865  0.9652 -1.3835  0.4558
   6923SM   H3G 9011   0.509   3.073  13.739  1.7746  0.0886 -0.2632
   6923SM   C4F 9012   0.480   3.291  13.729 -0.3004 -0.7904  0.7674
   6923SM   H4F 9013   0.573   3.334  13.686 -0.6212 -3.0475 -2.5193
   6923SM   H4G 9014   0.425   3.372  13.782  0.9165  0.6317 -0.0608
   6923SM   C5F 9015   0.388   3.279  13.618  0.0748  0.4950 -0.2056
   6923SM   H5F 9016   0.289   3.255  13.663 -1.0232  2.1795 -1.6117
   6923SM   H5G 9017   0.416   3.199  13.546  2.2265  0.4995  0.5436
   6923SM   C6F 9018   0.368   3.408  13.534 -0.3382  0.1779  0.1554
   6923SM   H6F 9019   0.471   3.443  13.515 -0.3163 -0.5620 -1.2516
   6923SM   H6G 9020   0.322   3.492  13.591  0.9377 -0.2567  1.8875
   6923SM   C7F 9021   0.300   3.382  13.394  0.1531  0.1024  0.0068
   6923SM   H7F 9022   0.190   3.368  13.407  0.0224  0.6573 -0.4874
   6923SM   H7G 9023   0.357   3.303  13.341 -1.5555 -1.4542  0.3781
   6923SM   C8F 9024   0.316   3.506  13.307  0.7528 -0.1461  0.7805
   6923SM   H8F 9025   0.413   3.505  13.253 -0.6182 -0.6095 -1.8454
   6923SM   H8G 9026   0.312   3.599  13.367 -2.3697 -1.1059  2.2985
   6923SM   C9F 9027   0.214   3.504  13.196  0.1034  0.6742  0.9761
   6923SM   H9F 9028   0.108   3.492  13.228 -0.7232 -0.8030 -1.8933
   6923SM   H9G 9029   0.248   3.429  13.122 -1.1369  1.1941 -0.1799
   6923SM  C10F 9030   0.211   3.643  13.121  0.0489 -0.2558  0.4817
   6923SM  H10F 9031   0.314   3.679  13.098 -0.4670  0.1313 -1.3238
   6923SM  H10G 9032   0.165   3.721  13.185  0.4979  0.1835  0.2786
   6923SM  C11F 9033   0.145   3.633  12.986  0.0071  0.1211  1.0861
   6923SM  H11F 9034   0.052   3.571  12.994  0.6828 -1.2393 -0.9059
   6923SM  H11G 9035   0.213   3.561  12.937  0.2129  0.3230  1.0775
   6923SM  C12F 9036   0.139   3.764  12.904 -0.5891  0.0667  0.4292
   6923SM  H12F 9037   0.238   3.815  12.906  0.4378 -1.6589 -1.6514
   6923SM  H12G 9038   0.067   3.832  12.955  1.3721  1.6572  1.1953
   6923SM  C13F 9039   0.112   3.732  12.755 -0.1788  0.6907 -0.2465
   6923SM  H13F 9040   0.027   3.666  12.729  2.2918 -2.3579 -1.2702
   6923SM  H13G 9041   0.198   3.670  12.722 -0.2044  0.3782  0.2540
   6923SM  C14F 9042   0.132   3.856  12.665  0.2949 -0.1389 -0.0613
   6923SM  H14F 9043   0.216   3.923  12.692  1.5384 -1.2425 -1.0689
   6923SM  H14G 9044   0.036   3.911  12.679  1.0154  1.8272 -2.1914
   6923SM  C15F 9045   0.144   3.821  12.512  0.5918 -0.3694  0.2463
   6923SM  H15F 9046   0.089   3.910  12.476 -1.6395 -0.7296  2.5126
   6923SM  H15G 9047   0.090   3.727  12.491  2.6629 -1.6400  0.2693
   6923SM  C16F 9048   0.289   3.802  12.472 -0.2616 -0.4386  0.3623
   6923SM  H16F 9049   0.332   3.714  12.526 -0.4452 -0.5179  0.3814
   6923SM  H16G 9050   0.343   3.893  12.502  0.3168 -0.1131 -1.5426
   6923SM  C17F 9051   0.306   3.782  12.324  0.3313  0.6578 -0.2779
   6923SM  H17F 9052   0.233   3.706  12.290  0.2920  0.5793 -0.0213
   6923SM  H17G 9053   0.410   3.759  12.293  0.0796  0.2793 -0.8582
   6923SM  C18F 9054   0.274   3.908  12.251  0.2415  0.6719 -0.5307
   6923SM  H18F 9055   0.365   3.972  12.251  0.4093  0.4495 -1.4571
   6923SM  H18G 9056   0.196   3.961  12.309  1.1291  0.1853  1.1669
   6923SM  C19F 9057   0.226   3.895  12.102  0.4475 -0.0394  0.2766
   6923SM  H19F 9058   0.227   4.000  12.065  1.5057  1.0512  3.0960
   6923SM  H19G 9059   0.124   3.852  12.108  0.5084 -0.0825  1.2734
   6923SM  C20F 9060   0.319   3.805  12.019  0.7662 -0.1684 -0.5882
   6923SM  H20F 9061   0.311   3.698  12.050 -1.7097  0.2180  0.4133
   6923SM  H20G 9062   0.424   3.839  12.032  0.8056 -1.2506  2.9792
   6923SM  C21F 9063   0.280   3.803  11.869  0.5845  0.4137  0.8837
   6923SM  H21F 9064   0.263   3.908  11.836  0.0235  0.1826  0.4152
   6923SM  H21G 9065   0.181   3.753  11.866  0.5846  0.4123  0.9069
   6923SM  C22F 9066   0.378   3.733  11.778  0.2782 -0.5453 -0.1851
   6923SM  H22F 9067   0.400   3.632  11.819 -0.1864 -0.6315 -0.1468
   6923SM  H22G 9068   0.479   3.781  11.779 -0.4517  1.0885  1.5661
   6923SM  C23F 9069   0.325   3.714  11.633 -0.5244  0.4157 -0.0435
   6923SM  H23F 9070   0.321   3.813  11.582  1.3823 -0.6727 -2.5243
   6923SM  H23G 9071   0.224   3.668  11.631 -0.0062 -0.7283 -2.6541
   6923SM  H23H 9072   0.386   3.646  11.570 -0.4592 -0.1614  0.6273
   7023SM     N 9073   5.607   1.926  14.227  0.1924 -0.1187 -0.5357
   7023SM   C15 9074   5.519   2.034  14.292 -0.0075 -0.1686  0.2510
   7023SM  H15A 9075   5.440   1.993  14.353 -1.6196  1.3192 -0.7021
   7023SM  H15B 9076   5.467   2.081  14.209  1.9679  2.0743  0.1852
   7023SM  H15C 9077   5.580   2.109  14.340  2.0808 -1.8488  0.3129
   7023SM   C14 9078   5.677   1.852  14.338 -0.5646 -0.8964 -0.0109
   7023SM  H14A 9079   5.770   1.811  14.300  0.0673 -1.0500  1.6365
   7023SM  H14B 9080   5.615   1.779  14.388 -1.4245  2.1058  3.7333
   7023SM  H14C 9081   5.711   1.921  14.414 -0.7383 -0.1825 -0.5692
   7023SM   C13 9082   5.523   1.826  14.158 -0.0323 -0.1758  0.2878
   7023SM  H13A 9083   5.464   1.885  14.089 -0.1889 -0.4268  0.2040
   7023SM  H13B 9084   5.454   1.770  14.219 -0.6877  2.1033  1.7426
   7023SM  H13C 9085   5.590   1.764  14.100 -1.7918 -0.9913 -0.9820
   7023SM   C12 9086   5.709   1.982  14.135 -0.5927 -0.3374  1.1558
   7023SM  H12A 9087   5.771   1.901  14.100 -1.4312 -0.4668 -0.1063
   7023SM  H12B 9088   5.771   2.052  14.189  0.7859 -0.4346 -0.2448
   7023SM   C11 9089   5.665   2.058  14.012  0.1169 -0.2608 -0.1757
   7023SM  H11A 9090   5.754   2.116  13.976  1.6771 -2.1282  0.5256
   7023SM  H11B 9091   5.593   2.141  14.030  0.0841 -0.2757 -0.2359
   7023SM     P 9092   5.721   1.876  13.817  0.2157  0.1155  0.2337
   7023SM   O13 9093   5.860   1.883  13.874  0.3100  0.4914  0.3940
   7023SM   O14 9094   5.650   1.750  13.792  0.1957  0.9867 -0.0620
   7023SM   O11 9095   5.728   1.964  13.684  0.2943 -0.1899 -0.0517
   7023SM   O12 9096   5.627   1.970  13.909  0.1079  0.6343  0.3050
   7023SM   C1S 9097   5.787   2.096  13.680 -0.1543 -0.1770 -0.3432
   7023SM   H1S 9098   5.895   2.092  13.705 -0.1557  0.3135 -0.2568
   7023SM   H1T 9099   5.732   2.166  13.747  3.0868  2.2714 -0.0483
   7023SM    NF 9100   5.883   2.249  13.508 -0.9239  0.4001  0.0058
   7023SM   HNF 9101   5.854   2.343  13.491  0.2588  0.6802 -0.5994
   7023SM   C2S 9102   5.775   2.154  13.539  0.0011  0.2759  0.2154
   7023SM   H2S 9103   5.785   2.070  13.467 -0.2539  0.9103 -0.5721
   7023SM   C3S 9104   5.630   2.207  13.522 -0.0669 -0.2993 -0.2237
   7023SM   H3S 9105   5.611   2.298  13.583 -0.4369 -0.1417 -0.5693
   7023SM    O3 9106   5.531   2.110  13.565 -0.5366  0.1753  0.1896
   7023SM   HO3 9107   5.572   2.040  13.616 -0.7164  0.0282  0.1329
   7023SM   C4S 9108   5.606   2.259  13.384 -0.9285  0.1200 -0.0859
   7023SM   H4S 9109   5.577   2.365  13.378 -1.0157  0.1874  1.3003
   7023SM   C5S 9110   5.589   2.180  13.280 -0.0801  0.1240 -0.2301
   7023SM   H5S 9111   5.602   2.071  13.287  0.5679 -0.1044 -3.5821
   7023SM   C6S 9112   5.529   2.212  13.149 -0.4537  0.1481  0.3467
   7023SM   H6S 9113   5.447   2.145  13.117 -0.3869 -0.2971  1.0810
   7023SM   H6T 9114   5.610   2.194  13.076 -1.6281  1.5953 -1.4082
   7023SM   C7S 9115   5.500   2.360  13.110 -0.2684 -0.5593  0.8905
   7023SM   H7S 9116   5.593   2.421  13.118  0.1712 -0.3720 -3.3124
   7023SM   H7T 9117   5.430   2.401  13.185 -2.3732 -1.0750 -0.6880
   7023SM   C8S 9118   5.425   2.375  12.970 -0.9983 -0.3669 -0.1000
   7023SM   H8S 9119   5.367   2.469  12.956 -3.6183 -1.7068  0.9122
   7023SM   H8T 9120   5.362   2.284  12.969 -0.1228 -1.0364  1.6395
   7023SM   C9S 9121   5.518   2.370  12.848 -0.0676 -0.8321  0.0461
   7023SM   H9S 9122   5.585   2.283  12.863  1.3183  0.2260  0.2223
   7023SM   H9T 9123   5.585   2.458  12.862 -0.0230 -0.3859 -2.4473
   7023SM  C10S 9124   5.456   2.367  12.709 -0.2596 -0.1757 -0.3993
   7023SM  H10S 9125   5.384   2.451  12.699  0.3178  0.1284 -2.8026
   7023SM  H10T 9126   5.398   2.273  12.694  0.1294 -0.5483  0.4065
   7023SM  C11S 9127   5.560   2.397  12.601 -0.4184  0.3787  0.1108
   7023SM  H11S 9128   5.628   2.312  12.582 -0.6552  0.2013  0.0538
   7023SM  H11T 9129   5.608   2.496  12.613  0.8754  0.2973 -3.2778
   7023SM  C12S 9130   5.489   2.424  12.467 -0.2257 -1.1300  0.7861
   7023SM  H12S 9131   5.398   2.481  12.494  0.3659  0.5649 -0.6635
   7023SM  H12T 9132   5.447   2.329  12.426 -2.6115  0.8524 -1.6997
   7023SM  C13S 9133   5.575   2.499  12.370 -0.3681  0.1643  0.0310
   7023SM  H13S 9134   5.637   2.426  12.313  1.7637  1.3570  0.7026
   7023SM  H13T 9135   5.649   2.570  12.414  1.4268 -0.9357 -1.0527
   7023SM  C14S 9136   5.493   2.590  12.279 -0.1244 -0.6406 -0.3034
   7023SM  H14S 9137   5.434   2.665  12.337 -0.0721  0.1928 -1.3055
   7023SM  H14T 9138   5.409   2.533  12.233  0.7107 -2.3382  0.2088
   7023SM  C15S 9139   5.581   2.655  12.172 -0.0316 -0.4473  0.0448
   7023SM  H15S 9140   5.661   2.581  12.154  2.5699  1.5568  2.5151
   7023SM  H15T 9141   5.636   2.746  12.206  1.4092 -1.4934  0.5824
   7023SM  C16S 9142   5.498   2.689  12.051  0.7263 -0.7318  0.6149
   7023SM  H16S 9143   5.460   2.591  12.013  2.3090 -1.3678  0.5862
   7023SM  H16T 9144   5.572   2.738  11.985  0.6495 -1.0318  0.3050
   7023SM  C17S 9145   5.386   2.785  12.074  0.3909  0.2188  0.3634
   7023SM  H17S 9146   5.419   2.868  12.140 -0.9988  0.5643  0.6587
   7023SM  H17T 9147   5.307   2.740  12.137 -0.1401  2.4008  1.3723
   7023SM  C18S 9148   5.339   2.844  11.937 -0.7146  0.1118 -0.1823
   7023SM  H18S 9149   5.255   2.912  11.960 -1.8632 -1.6771  1.1809
   7023SM  H18T 9150   5.304   2.763  11.870  1.9920 -2.1503  0.9202
   7023SM  H18U 9151   5.427   2.900  11.898 -0.5032  0.9607  1.4226
   7023SM   C1F 9152   6.017   2.215  13.509  0.6839 -0.4425 -0.9866
   7023SM    OF 9153   6.050   2.100  13.520 -0.4878  0.6020  0.5756
   7023SM   C2F 9154   6.119   2.315  13.495 -0.7866  0.6231  0.6602
   7023SM   H2F 9155   6.209   2.274  13.548 -0.8246  0.5251  0.6491
   7023SM   H2G 9156   6.096   2.409  13.549  1.8674  2.0023 -0.4131
   7023SM   C3F 9157   6.160   2.337  13.347 -0.5798 -0.2077 -0.0769
   7023SM   H3F 9158   6.097   2.414  13.296 -1.5745 -0.1831  1.1434
   7023SM   H3G 9159   6.177   2.240  13.296  3.9548  0.8910 -1.1528
   7023SM   C4F 9160   6.303   2.409  13.344  0.7476 -0.0821  0.0696
   7023SM   H4F 9161   6.385   2.335  13.347 -0.0517 -1.0923 -1.6099
   7023SM   H4G 9162   6.308   2.479  13.431  1.0106 -0.7239  0.5774
   7023SM   C5F 9163   6.334   2.478  13.206 -0.1920  0.3338  0.0725
   7023SM   H5F 9164   6.432   2.528  13.223 -0.8382  2.3220 -1.6355
   7023SM   H5G 9165   6.267   2.561  13.173 -0.7887 -0.7608 -1.5620
   7023SM   C6F 9166   6.350   2.379  13.092  0.0588  0.4931  0.1216
   7023SM   H6F 9167   6.259   2.316  13.086  0.2665  0.2246 -0.2270
   7023SM   H6G 9168   6.434   2.307  13.105  0.9985  1.4463 -0.4990
   7023SM   C7F 9169   6.384   2.447  12.964 -0.0144  0.8202 -0.1823
   7023SM   H7F 9170   6.476   2.507  12.977 -1.0519  2.3339  0.5705
   7023SM   H7G 9171   6.302   2.518  12.940 -0.6352  0.0117 -0.5080
   7023SM   C8F 9172   6.396   2.349  12.844  0.3521 -0.1347  0.1762
   7023SM   H8F 9173   6.309   2.282  12.830 -1.0630  1.8010 -0.6918
   7023SM   H8G 9174   6.482   2.278  12.845  0.9784  0.4811 -2.7392
   7023SM   C9F 9175   6.410   2.417  12.702  0.0951  0.3685 -0.1137
   7023SM   H9F 9176   6.503   2.477  12.708 -0.3142  1.0869 -0.7208
   7023SM   H9G 9177   6.323   2.486  12.712 -1.8775 -2.0475  0.3285
   7023SM  C10F 9178   6.412   2.322  12.580 -0.2757 -0.0555 -0.5484
   7023SM  H10F 9179   6.342   2.241  12.610 -1.7985  1.4171  0.0431
   7023SM  H10G 9180   6.511   2.276  12.561 -0.6962 -0.5292 -1.6824
   7023SM  C11F 9181   6.364   2.398  12.453  0.1782 -0.0346  0.4516
   7023SM  H11F 9182   6.445   2.469  12.426  1.6696 -1.8479 -0.0620
   7023SM  H11G 9183   6.264   2.444  12.465 -0.5738 -1.6465  0.5685
   7023SM  C12F 9184   6.364   2.313  12.323 -0.2097 -0.3927 -0.9007
   7023SM  H12F 9185   6.299   2.225  12.344  1.0705 -0.8937  1.3407
   7023SM  H12G 9186   6.464   2.266  12.311 -0.1915 -0.4357 -0.5839
   7023SM  C13F 9187   6.333   2.389  12.197 -0.0321 -0.4207  0.9168
   7023SM  H13F 9188   6.390   2.484  12.198  0.3323 -0.6317  0.3453
   7023SM  H13G 9189   6.226   2.419  12.191  0.4854  1.1789 -2.4459
   7023SM  C14F 9190   6.381   2.327  12.064 -1.0626 -0.1360  1.2235
   7023SM  H14F 9191   6.314   2.240  12.049  1.7879 -2.7757  2.6276
   7023SM  H14G 9192   6.483   2.286  12.082 -1.0723 -0.8133 -0.1561
   7023SM  C15F 9193   6.374   2.426  11.939 -0.3137  0.2588  0.2031
   7023SM  H15F 9194   6.436   2.516  11.961 -0.8014  0.7395 -0.3465
   7023SM  H15G 9195   6.277   2.481  11.946 -1.0493 -0.9969  0.2380
   7023SM  C16F 9196   6.389   2.364  11.799 -0.5199  0.4919 -0.0838
   7023SM  H16F 9197   6.298   2.306  11.773  0.5720 -0.7408 -1.2976
   7023SM  H16G 9198   6.467   2.285  11.806 -0.8421  0.3004  4.2818
   7023SM  C17F 9199   6.411   2.464  11.686  0.4062  0.2342 -0.4655
   7023SM  H17F 9200   6.512   2.509  11.689  0.5026  0.1168 -1.4911
   7023SM  H17G 9201   6.339   2.548  11.690  1.7594  1.5834 -2.5203
   7023SM  C18F 9202   6.401   2.405  11.543  0.3323 -0.9614 -0.4340
   7023SM  H18F 9203   6.300   2.362  11.526  0.2360 -0.2812 -1.6448
   7023SM  H18G 9204   6.466   2.314  11.534 -0.2983 -1.2721 -2.2380
   7023SM  C19F 9205   6.417   2.509  11.436 -0.1448 -0.2850 -0.0980
   7023SM  H19F 9206   6.516   2.559  11.424 -0.4662  0.5767  0.7382
   7023SM  H19G 9207   6.345   2.591  11.458  1.1809  1.4251 -1.8253
   7023SM  C20F 9208   6.369   2.453  11.305 -0.4325  0.3583  0.1376
   7023SM  H20F 9209   6.369   2.532  11.227 -0.5316  0.0201 -0.2080
   7023SM  H20G 9210   6.267   2.411  11.310 -0.8844  1.3860 -0.2474
   7023SM  C21F 9211   6.460   2.346  11.235 -0.8359 -0.2519 -0.1220
   7023SM  H21F 9212   6.443   2.265  11.309 -4.5755  0.3415 -0.1759
   7023SM  H21G 9213   6.566   2.381  11.231  0.0969 -2.3677  2.5928
   7023SM  C22F 9214   6.396   2.297  11.101  0.0387 -0.5376  0.2909
   7023SM  H22F 9215   6.414   2.385  11.034  0.0883 -0.8877 -0.1592
   7023SM  H22G 9216   6.288   2.295  11.125  0.1423  0.2063  0.8825
   7023SM  C23F 9217   6.444   2.167  11.050 -0.4186  0.1160  0.3531
   7023SM  H23F 9218   6.438   2.083  11.123  2.9690 -1.9006 -1.4287
   7023SM  H23G 9219   6.551   2.173  11.021 -0.3665 -0.7744  0.3206
   7023SM  H23H 9220   6.391   2.136  10.957  0.5445 -0.0501 -0.1536
   7123SM     N 9221   0.721   0.449  13.145  0.4403  0.4900  0.0911
   7123SM   C15 9222   0.650   0.453  13.274  0.2546 -0.2535  0.1978
   7123SM  H15A 9223   0.566   0.386  13.264  1.0879 -1.0724 -1.9503
   7123SM  H15B 9224   0.613   0.552  13.297  0.6769  0.5195 -2.1635
   7123SM  H15C 9225   0.716   0.419  13.351  0.7783  0.7064  0.1864
   7123SM   C14 9226   0.725   0.303  13.091 -0.2537 -0.8771 -0.2262
   7123SM  H14A 9227   0.784   0.300  13.001  1.0974  0.8328  0.5518
   7123SM  H14B 9228   0.624   0.271  13.067 -0.6464  1.6267 -2.4019
   7123SM  H14C 9229   0.771   0.234  13.160 -0.5930  0.3033  1.2221
   7123SM   C13 9230   0.639   0.530  13.046 -0.4186 -0.1297  0.0666
   7123SM  H13A 9231   0.604   0.622  13.091 -0.9213  0.2281 -1.0441
   7123SM  H13B 9232   0.548   0.479  13.017 -0.8636  0.0432  1.1063
   7123SM  H13C 9233   0.698   0.540  12.957  0.7492  3.0052  1.0508
   7123SM   C12 9234   0.857   0.504  13.163 -0.3249 -0.7582  0.0704
   7123SM  H12A 9235   0.844   0.609  13.185  0.3784 -0.7332  0.4016
   7123SM  H12B 9236   0.929   0.500  13.082  2.0874 -1.1804  2.1150
   7123SM   C11 9237   0.940   0.437  13.272  0.1051 -0.1037 -0.2107
   7123SM  H11A 9238   0.942   0.331  13.239  1.1764 -0.1440 -0.0526
   7123SM  H11B 9239   0.889   0.454  13.369  0.0052  0.0276 -0.2864
   7123SM     P 9240   1.122   0.631  13.307  0.3037  0.2605  0.3088
   7123SM   O13 9241   1.006   0.709  13.364 -0.2442 -0.5506  0.4955
   7123SM   O14 9242   1.246   0.617  13.386 -0.4183 -0.3314  0.0510
   7123SM   O11 9243   1.140   0.690  13.165 -0.1905 -0.1018  0.2198
   7123SM   O12 9244   1.074   0.484  13.282  0.2741  0.0421  0.4302
   7123SM   C1S 9245   1.174   0.617  13.047  0.2528 -1.1048 -0.1787
   7123SM   H1S 9246   1.085   0.608  12.982  1.2623  0.9371 -1.9682
   7123SM   H1T 9247   1.220   0.518  13.068  2.9087 -0.2086 -1.2718
   7123SM    NF 9248   1.280   0.646  12.822  0.3530  0.0433  0.6326
   7123SM   HNF 9249   1.344   0.572  12.802 -0.2932 -0.3081 -0.1979
   7123SM   C2S 9250   1.281   0.694  12.957  0.6460 -0.0625 -0.3352
   7123SM   H2S 9251   1.245   0.798  12.946 -0.7769 -0.5640 -0.6725
   7123SM   C3S 9252   1.421   0.688  13.019  0.2125  0.3818  0.1992
   7123SM   H3S 9253   1.456   0.582  13.014  2.0517  0.9745 -0.3787
   7123SM    O3 9254   1.436   0.727  13.155  0.2738  0.1188  0.4168
   7123SM   HO3 9255   1.349   0.710  13.191  0.6214  1.3874  1.9723
   7123SM   C4S 9256   1.517   0.763  12.934 -0.8892 -0.1458  0.4075
   7123SM   H4S 9257   1.554   0.715  12.842 -0.9008  0.6154 -0.0042
   7123SM   C5S 9258   1.555   0.895  12.953  0.7130  0.4687  0.2230
   7123SM   H5S 9259   1.515   0.949  13.040  0.3540 -0.9951  1.0146
   7123SM   C6S 9260   1.659   0.972  12.873  0.5422 -1.0474  0.8446
   7123SM   H6S 9261   1.763   0.956  12.909  1.9031  1.7273 -1.4077
   7123SM   H6T 9262   1.633   1.079  12.888  0.0456 -0.3186 -3.7223
   7123SM   C7S 9263   1.645   0.964  12.722  0.2249  0.5086  0.3434
   7123SM   H7S 9264   1.665   0.861  12.684 -1.3788  0.0739  0.6096
   7123SM   H7T 9265   1.721   1.033  12.678  0.5047  0.1841  0.3158
   7123SM   C8S 9266   1.504   1.004  12.665 -0.0389 -0.1460 -0.5535
   7123SM   H8S 9267   1.502   1.114  12.652 -2.0355 -0.0869  0.0148
   7123SM   H8T 9268   1.425   0.966  12.733 -0.5953  0.3500 -0.9158
   7123SM   C9S 9269   1.477   0.931  12.530 -0.2466 -0.4020  0.2018
   7123SM   H9S 9270   1.444   0.828  12.555 -2.0679  0.5973  2.2674
   7123SM   H9T 9271   1.574   0.932  12.475 -0.6471 -1.3143 -0.5500
   7123SM  C10S 9272   1.371   1.006  12.455  0.0847 -0.3509  0.2577
   7123SM  H10S 9273   1.289   1.056  12.511  0.1474  1.1348 -0.9306
   7123SM  H10T 9274   1.314   0.934  12.392 -0.8107 -1.0279  1.7795
   7123SM  C11S 9275   1.429   1.104  12.354 -0.3476  0.1083  0.1437
   7123SM  H11S 9276   1.522   1.050  12.325 -0.4230 -1.6936  2.8360
   7123SM  H11T 9277   1.452   1.197  12.409  0.1453 -0.7030  1.3527
   7123SM  C12S 9278   1.350   1.131  12.221  0.3971  0.1584 -0.4853
   7123SM  H12S 9279   1.249   1.173  12.239  0.0315  0.0029 -2.0559
   7123SM  H12T 9280   1.343   1.030  12.177  0.4179 -0.4398  0.8467
   7123SM  C13S 9281   1.429   1.212  12.120  0.5757 -0.1188  0.3706
   7123SM  H13S 9282   1.535   1.182  12.108  1.1995  1.5887  1.2382
   7123SM  H13T 9283   1.433   1.319  12.149  1.8438  0.2350 -0.9863
   7123SM  C14S 9284   1.352   1.213  11.991 -0.0510  0.0585 -0.5982
   7123SM  H14S 9285   1.263   1.278  12.002  0.6340  1.0626 -0.7955
   7123SM  H14T 9286   1.314   1.110  11.978  1.7628 -0.6942 -0.2898
   7123SM  C15S 9287   1.441   1.234  11.862  0.9096 -0.8061 -0.3865
   7123SM  H15S 9288   1.504   1.142  11.855  0.0863 -1.5523  1.4776
   7123SM  H15T 9289   1.506   1.324  11.872 -1.1921  0.8511 -0.9889
   7123SM  C16S 9290   1.337   1.234  11.742 -0.2796  0.0042  0.1071
   7123SM  H16S 9291   1.277   1.327  11.749  1.6963  1.3640 -0.0654
   7123SM  H16T 9292   1.273   1.145  11.760 -0.9276  0.3831 -0.3205
   7123SM  C17S 9293   1.398   1.224  11.605  0.3699  0.3744  0.5437
   7123SM  H17S 9294   1.318   1.207  11.529  1.1553  1.9041 -0.7019
   7123SM  H17T 9295   1.462   1.138  11.577 -0.8980 -0.4525  0.1085
   7123SM  C18S 9296   1.466   1.355  11.569 -0.6541 -0.3551  0.0509
   7123SM  H18S 9297   1.521   1.333  11.475 -0.6843 -0.5247  0.0737
   7123SM  H18T 9298   1.550   1.374  11.640 -0.8284  0.8947 -0.0429
   7123SM  H18U 9299   1.395   1.438  11.550 -0.4587  0.2025  1.5573
   7123SM   C1F 9300   1.171   0.650  12.743 -1.5852 -0.1033  0.2472
   7123SM    OF 9301   1.072   0.712  12.772  0.1262 -0.1555 -0.1602
   7123SM   C2F 9302   1.180   0.580  12.613  0.2460  0.0778  0.1098
   7123SM   H2F 9303   1.120   0.487  12.609 -1.3769  0.9820  1.9278
   7123SM   H2G 9304   1.288   0.567  12.588  0.1523  1.0853 -0.8853
   7123SM   C3F 9305   1.129   0.665  12.492 -0.4835  0.9259 -0.6752
   7123SM   H3F 9306   1.148   0.774  12.497  1.0489  0.6247  2.3980
   7123SM   H3G 9307   1.020   0.657  12.507 -0.4290  0.0911 -0.6454
   7123SM   C4F 9308   1.170   0.605  12.356  0.2250 -0.0557 -0.9492
   7123SM   H4F 9309   1.110   0.512  12.347 -0.1526  0.2999 -2.2361
   7123SM   H4G 9310   1.277   0.575  12.349  0.0332 -0.6622 -1.3498
   7123SM   C5F 9311   1.125   0.687  12.232  0.1453  0.0250  0.0709
   7123SM   H5F 9312   1.103   0.789  12.269  2.7631  1.4330 -1.9049
   7123SM   H5G 9313   1.029   0.644  12.194  0.6908 -1.6782  0.5649
   7123SM   C6F 9314   1.233   0.714  12.129  0.1937  0.1067  0.2126
   7123SM   H6F 9315   1.295   0.629  12.095 -1.8290 -1.9484  1.3571
   7123SM   H6G 9316   1.298   0.789  12.179 -0.6707  3.1209 -2.8924
   7123SM   C7F 9317   1.187   0.782  12.001  0.7068  0.0527 -0.3319
   7123SM   H7F 9318   1.126   0.871  12.027  0.8458 -0.5244  2.1876
   7123SM   H7G 9319   1.113   0.714  11.956 -0.9178  0.7937  1.1070
   7123SM   C8F 9320   1.301   0.810  11.906  0.0874 -0.6732  0.5876
   7123SM   H8F 9321   1.392   0.830  11.966  0.5836  1.5296 -0.8024
   7123SM   H8G 9322   1.279   0.902  11.848 -0.2706 -1.5156 -0.6574
   7123SM   C9F 9323   1.318   0.695  11.804 -0.0106  0.0323 -0.3088
   7123SM   H9F 9324   1.221   0.686  11.752 -1.8533 -0.9656  3.0346
   7123SM   H9G 9325   1.312   0.599  11.860 -3.6197  1.0695  1.3641
   7123SM  C10F 9326   1.428   0.708  11.695 -0.1191  1.3064 -0.8428
   7123SM  H10F 9327   1.409   0.617  11.635  0.5374  1.5591 -1.4537
   7123SM  H10G 9328   1.532   0.699  11.733  0.6908  0.3186 -3.0689
   7123SM  C11F 9329   1.417   0.833  11.609 -0.8449  0.3538 -0.0444
   7123SM  H11F 9330   1.495   0.838  11.530 -0.7823 -1.1246 -0.0952
   7123SM  H11G 9331   1.427   0.916  11.682 -0.2214 -0.3384  0.6667
   7123SM  C12F 9332   1.285   0.855  11.537  0.2107  0.3731  0.3306
   7123SM  H12F 9333   1.280   0.954  11.488 -0.8312 -0.8788 -2.2916
   7123SM  H12G 9334   1.208   0.873  11.616  0.8321  0.0183  1.0318
   7123SM  C13F 9335   1.256   0.755  11.429 -0.2775  0.5692 -0.0233
   7123SM  H13F 9336   1.272   0.651  11.463 -1.3507  0.6491  0.7452
   7123SM  H13G 9337   1.320   0.777  11.340 -0.8364  0.0092 -0.5685
   7123SM  C14F 9338   1.110   0.763  11.379 -0.1198 -0.1006  0.3569
   7123SM  H14F 9339   1.091   0.853  11.316 -0.5117 -0.6867 -0.3796
   7123SM  H14G 9340   1.039   0.762  11.464  0.3101  0.4461  0.7309
   7123SM  C15F 9341   1.062   0.639  11.295 -0.4763 -0.1338 -1.1368
   7123SM  H15F 9342   1.140   0.623  11.218  0.8109 -1.6112  0.3734
   7123SM  H15G 9343   0.965   0.672  11.251 -1.6361 -0.4902  0.9760
   7123SM  C16F 9344   1.040   0.515  11.380  0.7760  0.1950 -0.3183
   7123SM  H16F 9345   0.973   0.547  11.463  2.7050  0.6626  1.1318
   7123SM  H16G 9346   1.140   0.489  11.421  0.1362 -2.7076 -0.4119
   7123SM  C17F 9347   0.991   0.399  11.301  0.5735 -0.3646  0.3824
   7123SM  H17F 9348   0.890   0.426  11.264  0.5465  0.3961  0.9971
   7123SM  H17G 9349   0.977   0.314  11.371  0.0798 -0.3425  0.3137
   7123SM  C18F 9350   1.079   0.354  11.179  0.2345  1.1755 -0.3387
   7123SM  H18F 9351   1.053   0.424  11.097 -0.7220 -0.4692 -1.4797
   7123SM  H18G 9352   1.039   0.258  11.140  0.9819  1.8197 -2.8642
   7123SM  C19F 9353   1.228   0.330  11.217 -0.1586  0.2213 -0.1472
   7123SM  H19F 9354   1.231   0.282  11.317  1.7817  2.4815  0.9525
   7123SM  H19G 9355   1.288   0.420  11.241  1.5023 -0.8341 -0.1791
   7123SM  C20F 9356   1.300   0.247  11.107 -0.0036  1.2149  0.4516
   7123SM  H20F 9357   1.225   0.175  11.069  1.6094 -0.4481  0.2790
   7123SM  H20G 9358   1.384   0.188  11.148 -1.9955 -2.1132  0.0738
   7123SM  C21F 9359   1.346   0.321  10.985 -0.3533  0.2652  0.5967
   7123SM  H21F 9360   1.268   0.392  10.949 -0.6306 -0.8007 -1.0812
   7123SM  H21G 9361   1.355   0.245  10.904 -1.6312 -1.1304  1.6947
   7123SM  C22F 9362   1.482   0.392  11.000 -0.1675  0.0370  0.5539
   7123SM  H22F 9363   1.546   0.328  11.064 -1.5019 -0.8307  1.0634
   7123SM  H22G 9364   1.460   0.495  11.034 -0.9767 -0.4661  1.5845
   7123SM  C23F 9365   1.561   0.406  10.864  0.1014 -0.4986 -0.7633
   7123SM  H23F 9366   1.594   0.302  10.842  0.3411 -0.6539  0.2999
   7123SM  H23G 9367   1.657   0.459  10.883 -0.6252  0.3226  0.7411
   7123SM  H23H 9368   1.500   0.444  10.779 -1.0811 -3.5396 -1.3984
   7223SM     N 9369   1.922   2.770  14.107  0.0605  0.1859 -0.2066
   7223SM   C15 9370   2.040   2.685  14.159  1.0692 -0.0790  0.3993
   7223SM  H15A 9371   2.007   2.626  14.243  1.0436 -0.4099  0.1603
   7223SM  H15B 9372   2.117   2.751  14.197  1.6123 -0.2262 -0.4173
   7223SM  H15C 9373   2.084   2.618  14.086 -1.1091 -0.3543 -0.7573
   7223SM   C14 9374   1.808   2.684  14.066 -0.0583  0.0054  0.1658
   7223SM  H14A 9375   1.726   2.738  14.023 -0.1887  0.8508  1.4125
   7223SM  H14B 9376   1.776   2.624  14.150 -0.5366 -1.1492 -0.8102
   7223SM  H14C 9377   1.836   2.612  13.991  2.7982 -0.3081  1.4172
   7223SM   C13 9378   1.876   2.867  14.212 -0.6014 -0.7795  0.6528
   7223SM  H13A 9379   1.910   2.829  14.307 -1.0489 -1.7004  0.4518
   7223SM  H13B 9380   1.769   2.884  14.220 -0.4016  0.1042  1.5941
   7223SM  H13C 9381   1.933   2.957  14.194 -0.0970 -0.6692  2.5861
   7223SM   C12 9382   1.954   2.839  13.975 -0.0106  0.7877 -1.0069
   7223SM  H12A 9383   1.858   2.883  13.949 -0.7134  0.2667  0.6040
   7223SM  H12B 9384   1.970   2.757  13.907 -1.1630 -2.1866  2.0505
   7223SM   C11 9385   2.069   2.939  13.967 -0.1631 -0.0898 -0.4551
   7223SM  H11A 9386   2.106   2.947  13.862  1.9412  0.1922  0.2563
   7223SM  H11B 9387   2.166   2.905  14.009 -0.2930  0.6491  0.5012
   7223SM     P 9388   1.927   3.165  13.976 -0.2084  0.2529 -0.0475
   7223SM   O13 9389   1.869   3.112  13.853 -0.0137  0.7986 -0.1352
   7223SM   O14 9390   1.833   3.193  14.091  0.5876  0.6346 -0.9538
   7223SM   O11 9391   2.016   3.287  13.944  0.1290  0.3804 -1.0258
   7223SM   O12 9392   2.035   3.061  14.026  0.1025 -0.1911  0.2836
   7223SM   C1S 9393   2.100   3.287  13.826  0.1433 -0.7531  0.1080
   7223SM   H1S 9394   2.085   3.200  13.758  1.5825 -0.3183 -0.8131
   7223SM   H1T 9395   2.205   3.290  13.862  0.7087  1.7630 -1.5060
   7223SM    NF 9396   2.160   3.404  13.613  0.0036  0.3719 -0.6412
   7223SM   HNF 9397   2.248   3.449  13.598  0.3931  0.3432  1.3150
   7223SM   C2S 9398   2.090   3.417  13.742 -0.9366  0.4368  1.1587
   7223SM   H2S 9399   1.984   3.435  13.715 -1.2341 -0.1579  1.8997
   7223SM   C3S 9400   2.137   3.542  13.823 -0.4848  0.1944 -0.3837
   7223SM   H3S 9401   2.245   3.541  13.846 -1.1047  2.0406  3.3733
   7223SM    O3 9402   2.076   3.558  13.953 -0.3109  0.3531  0.6243
   7223SM   HO3 9403   2.028   3.475  13.964  0.0221  0.1244  0.3796
   7223SM   C4S 9404   2.114   3.664  13.737 -0.3569  0.1825  0.4923
   7223SM   H4S 9405   2.197   3.684  13.668 -0.6573  0.4452  0.1992
   7223SM   C5S 9406   1.995   3.723  13.731  0.2864 -0.2235 -0.9585
   7223SM   H5S 9407   1.918   3.667  13.786  0.5725 -1.7992 -2.1093
   7223SM   C6S 9408   1.953   3.846  13.650  0.1223  1.0308 -0.5225
   7223SM   H6S 9409   1.888   3.909  13.713 -0.0701 -1.1213  1.5499
   7223SM   H6T 9410   1.902   3.802  13.562  0.2791 -0.7209  0.2186
   7223SM   C7S 9411   2.068   3.933  13.598 -0.4847  0.6019  0.1121
   7223SM   H7S 9412   2.145   3.862  13.560 -1.0880 -0.4370  0.7588
   7223SM   H7T 9413   2.107   3.976  13.693 -1.0171 -0.1954  0.7112
   7223SM   C8S 9414   2.009   4.056  13.519  0.0306 -0.1470 -0.3353
   7223SM   H8S 9415   2.063   4.150  13.543 -0.1549  1.0389 -4.0279
   7223SM   H8T 9416   1.903   4.067  13.548 -0.5735 -0.1482 -2.4497
   7223SM   C9S 9417   2.008   4.029  13.366  0.0797  0.8916  0.1878
   7223SM   H9S 9418   1.935   3.949  13.340  0.3062  0.3765  1.0687
   7223SM   H9T 9419   2.104   3.987  13.332 -0.3048 -1.4550  1.7223
   7223SM  C10S 9420   1.968   4.158  13.293 -0.3456 -0.0384 -0.6348
   7223SM  H10S 9421   2.053   4.228  13.283 -0.6534  0.6071  1.0227
   7223SM  H10T 9422   1.898   4.208  13.363  0.4871 -2.1065  1.8261
   7223SM  C11S 9423   1.905   4.139  13.153 -0.1167  1.1173 -0.0542
   7223SM  H11S 9424   1.866   4.230  13.103 -0.0451 -0.0408 -2.3543
   7223SM  H11T 9425   1.813   4.077  13.161 -0.7121  1.9800 -0.1519
   7223SM  C12S 9426   2.008   4.091  13.052 -0.0884 -0.6476  0.2628
   7223SM  H12S 9427   2.050   3.994  13.087  1.5082  0.3959  1.3823
   7223SM  H12T 9428   2.087   4.169  13.056  1.3222 -2.0090 -0.1133
   7223SM  C13S 9429   1.949   4.069  12.910 -0.2412 -0.1710  0.0253
   7223SM  H13S 9430   1.929   4.172  12.873 -0.3537  0.5365  1.9592
   7223SM  H13T 9431   1.852   4.016  12.923 -0.3346 -0.1260 -0.4705
   7223SM  C14S 9432   2.050   3.982  12.828 -0.3516 -0.8613  0.0694
   7223SM  H14S 9433   2.095   3.898  12.886 -0.9943 -0.2830  1.4628
   7223SM  H14T 9434   2.132   4.056  12.811 -0.5755 -0.5712  0.2325
   7223SM  C15S 9435   1.989   3.950  12.689 -0.0462  0.0103 -0.2585
   7223SM  H15S 9436   2.072   3.935  12.616 -0.5363  0.0847 -0.8297
   7223SM  H15T 9437   1.938   4.043  12.660 -0.9213 -0.5536 -0.5473
   7223SM  C16S 9438   1.879   3.839  12.689 -0.0664 -0.3598  0.0794
   7223SM  H16S 9439   1.834   3.842  12.587  0.5339 -1.4342 -0.2367
   7223SM  H16T 9440   1.802   3.872  12.761 -0.0391  0.2107 -0.1496
   7223SM  C17S 9441   1.936   3.711  12.725  0.7123  0.0583  0.1279
   7223SM  H17S 9442   1.992   3.728  12.819 -1.0750  0.9863  1.0687
   7223SM  H17T 9443   2.010   3.670  12.653  0.0759  0.8137 -0.9802
   7223SM  C18S 9444   1.833   3.595  12.746  0.4890 -0.2377  0.0538
   7223SM  H18S 9445   1.895   3.506  12.770 -0.3297 -0.5083  1.2619
   7223SM  H18T 9446   1.774   3.578  12.654  0.6680  0.9910 -0.3142
   7223SM  H18U 9447   1.762   3.611  12.829 -0.9310 -1.7236 -0.8165
   7223SM   C1F 9448   2.119   3.322  13.516 -0.2153  0.4451 -0.2201
   7223SM    OF 9449   2.020   3.252  13.525 -0.1491  0.4349 -0.1178
   7223SM   C2F 9450   2.211   3.305  13.403 -0.2633 -0.2670 -0.1865
   7223SM   H2F 9451   2.272   3.212  13.401 -1.5115 -1.1069 -1.3631
   7223SM   H2G 9452   2.283   3.390  13.398  1.4451 -1.7171 -1.9320
   7223SM   C3F 9453   2.130   3.297  13.267  0.5267 -0.5200  0.3014
   7223SM   H3F 9454   2.060   3.381  13.246  1.0661 -0.2522 -0.4633
   7223SM   H3G 9455   2.050   3.221  13.263  0.2520 -0.1826 -0.9244
   7223SM   C4F 9456   2.218   3.269  13.145  0.7613 -0.1090 -0.3731
   7223SM   H4F 9457   2.289   3.186  13.166  0.7189  0.2149  1.1363
   7223SM   H4G 9458   2.277   3.360  13.123  0.0172  0.5492  0.2978
   7223SM   C5F 9459   2.143   3.231  13.012  0.2491  0.5560  0.4379
   7223SM   H5F 9460   2.045   3.284  13.017 -2.3943 -3.7725  0.4762
   7223SM   H5G 9461   2.124   3.121  13.019  1.8238  0.1477 -1.0613
   7223SM   C6F 9462   2.211   3.254  12.876  0.0842  0.3009 -0.4987
   7223SM   H6F 9463   2.156   3.209  12.791 -1.3779  2.1975 -0.6108
   7223SM   H6G 9464   2.313   3.210  12.886 -0.1997 -0.6663 -1.7418
   7223SM   C7F 9465   2.221   3.403  12.855 -0.0475 -0.9447 -0.4066
   7223SM   H7F 9466   2.251   3.466  12.941 -0.6647  0.6831 -1.3340
   7223SM   H7G 9467   2.119   3.441  12.833  0.2198  0.6257  0.8870
   7223SM   C8F 9468   2.308   3.432  12.730 -0.1537 -0.2356 -0.7207
   7223SM   H8F 9469   2.397   3.368  12.750 -1.1023 -1.3939 -0.0668
   7223SM   H8G 9470   2.341   3.538  12.732  3.0627 -1.1296  0.2607
   7223SM   C9F 9471   2.253   3.400  12.591  0.2790  0.0747 -0.8075
   7223SM   H9F 9472   2.155   3.445  12.563  0.2173 -0.4627 -1.4637
   7223SM   H9G 9473   2.237   3.290  12.593  0.0803  0.0948  1.8109
   7223SM  C10F 9474   2.346   3.446  12.480 -0.2574  0.0718  0.5859
   7223SM  H10F 9475   2.448   3.413  12.511 -0.0381  1.6191  1.6234
   7223SM  H10G 9476   2.343   3.557  12.487 -0.0180  0.1231 -0.0303
   7223SM  C11F 9477   2.303   3.380  12.342  0.3174 -0.2620 -0.4779
   7223SM  H11F 9478   2.218   3.438  12.300 -0.6368 -1.4691 -0.2576
   7223SM  H11G 9479   2.267   3.275  12.348  0.6109 -0.3036  0.6484
   7223SM  C12F 9480   2.417   3.383  12.240  0.0381  0.2774  0.2588
   7223SM  H12F 9481   2.376   3.331  12.151  1.9823 -1.2471  0.1673
   7223SM  H12G 9482   2.496   3.314  12.276  0.2083 -0.2717 -1.1128
   7223SM  C13F 9483   2.481   3.518  12.199  0.1651  0.5493 -0.2831
   7223SM  H13F 9484   2.560   3.489  12.127  1.6336 -1.4725  1.9924
   7223SM  H13G 9485   2.526   3.561  12.291  1.1190 -3.3386  1.2680
   7223SM  C14F 9486   2.373   3.619  12.140 -0.9391 -0.5748 -0.5244
   7223SM  H14F 9487   2.323   3.652  12.233 -3.7390 -1.7715 -1.4755
   7223SM  H14G 9488   2.300   3.568  12.074 -1.1893 -0.7328 -0.1286
   7223SM  C15F 9489   2.429   3.737  12.064 -0.8191 -0.1856 -0.3352
   7223SM  H15F 9490   2.487   3.707  11.973  2.2613  1.5627  0.8985
   7223SM  H15G 9491   2.507   3.784  12.127 -0.4618 -1.1558 -0.0423
   7223SM  C16F 9492   2.325   3.840  12.021 -0.4771 -0.1404  0.2884
   7223SM  H16F 9493   2.316   3.904  12.111  1.6844 -0.1950  0.6089
   7223SM  H16G 9494   2.226   3.795  11.997 -0.7396  0.4136  0.3378
   7223SM  C17F 9495   2.369   3.921  11.897  0.0078  0.6402  0.1767
   7223SM  H17F 9496   2.360   3.854  11.809 -0.8406  1.3746 -0.3076
   7223SM  H17G 9497   2.472   3.960  11.912 -0.2029  0.6658  1.8129
   7223SM  C18F 9498   2.275   4.045  11.877  0.6118  1.0716 -0.6099
   7223SM  H18F 9499   2.264   4.082  11.981 -0.4109 -1.9016  0.4381
   7223SM  H18G 9500   2.171   4.021  11.846  0.5596  3.1784 -2.2367
   7223SM  C19F 9501   2.335   4.142  11.778 -0.2862  0.6939 -0.2015
   7223SM  H19F 9502   2.355   4.101  11.677 -1.4766  0.8745 -0.5221
   7223SM  H19G 9503   2.429   4.170  11.831 -2.3997  2.1303  3.1080
   7223SM  C20F 9504   2.244   4.269  11.767 -0.2651 -0.2889  0.0554
   7223SM  H20F 9505   2.291   4.338  11.694 -1.0046 -0.6721 -0.8010
   7223SM  H20G 9506   2.237   4.313  11.868 -0.3914 -2.6166  1.1243
   7223SM  C21F 9507   2.109   4.245  11.700 -0.2490  0.7624  0.3186
   7223SM  H21F 9508   2.058   4.170  11.764  1.2939 -1.2953 -0.7646
   7223SM  H21G 9509   2.133   4.202  11.600  1.8513 -1.4772  1.6837
   7223SM  C22F 9510   2.033   4.373  11.673 -0.1942 -0.4553  0.7020
   7223SM  H22F 9511   1.970   4.361  11.583  2.5782  0.4713 -1.4878
   7223SM  H22G 9512   2.113   4.449  11.659 -1.0372  0.5490  1.2922
   7223SM  C23F 9513   1.949   4.415  11.796  0.7558  0.4907 -0.9267
   7223SM  H23F 9514   2.011   4.420  11.889  0.3617  0.6320 -0.6665
   7223SM  H23G 9515   1.878   4.332  11.811  0.2797  1.0545  0.0390
   7223SM  H23H 9516   1.885   4.500  11.766 -0.6540 -0.8585 -1.8718
   7323SM     N 9517   0.187   2.241  13.764  0.9558 -0.3507 -0.3704
   7323SM   C15 9518   0.165   2.362  13.853 -0.2496  0.5598 -0.3425
   7323SM  H15A 9519   0.084   2.424  13.820  0.1394  1.1703 -0.1753
   7323SM  H15B 9520   0.248   2.431  13.848  0.0266  0.3728  1.0707
   7323SM  H15C 9521   0.159   2.352  13.961 -0.0947  1.1541 -0.2696
   7323SM   C14 9522   0.063   2.151  13.769  0.0303  0.2651 -0.7210
   7323SM  H14A 9523   0.069   2.067  13.701 -1.4434 -0.8708  0.4895
   7323SM  H14B 9524  -0.031   2.203  13.754 -0.1631 -0.4515 -2.1811
   7323SM  H14C 9525   0.058   2.106  13.867 -0.3506  0.8898 -0.4489
   7323SM   C13 9526   0.204   2.288  13.619  0.7352 -0.0704  0.4212
   7323SM  H13A 9527   0.113   2.338  13.590  0.8987  1.0335  1.6842
   7323SM  H13B 9528   0.246   2.218  13.549  0.0415 -0.0738  0.0040
   7323SM  H13C 9529   0.266   2.376  13.610  0.6281 -0.0507 -0.1385
   7323SM   C12 9530   0.318   2.178  13.813  0.1666 -0.7518  1.5619
   7323SM  H12A 9531   0.307   2.143  13.915 -1.8076 -1.5136  1.1390
   7323SM  H12B 9532   0.391   2.257  13.812 -0.5247 -0.0838 -0.3918
   7323SM   C11 9533   0.374   2.060  13.724 -0.4996  0.0793 -0.5323
   7323SM  H11A 9534   0.468   2.020  13.767 -1.7653 -0.8496  1.4768
   7323SM  H11B 9535   0.401   2.093  13.621  0.9694 -1.8861 -0.8322
   7323SM     P 9536   0.298   1.818  13.647 -0.2158  0.1847  0.1387
   7323SM   O13 9537   0.418   1.750  13.705 -0.1046 -0.4323 -0.0577
   7323SM   O14 9538   0.172   1.740  13.643  0.4855 -0.3517 -0.2037
   7323SM   O11 9539   0.340   1.859  13.496  1.0057  0.5447 -0.3510
   7323SM   O12 9540   0.275   1.957  13.722 -0.0929 -0.2424 -0.0098
   7323SM   C1S 9541   0.230   1.917  13.423  0.1611 -0.5373  0.5720
   7323SM   H1S 9542   0.186   2.006  13.475  0.0685 -0.3787  0.2234
   7323SM   H1T 9543   0.141   1.853  13.405 -0.7851  0.3321  1.9401
   7323SM    NF 9544   0.195   2.062  13.221  0.2663  0.0214  0.1864
   7323SM   HNF 9545   0.131   2.020  13.157  0.9676  0.2263 -0.6758
   7323SM   C2S 9546   0.285   1.969  13.288 -0.5974  0.2685  0.1223
   7323SM   H2S 9547   0.379   2.025  13.307 -1.5588  2.1937 -0.4571
   7323SM   C3S 9548   0.334   1.846  13.210 -0.3805 -0.1023  0.5418
   7323SM   H3S 9549   0.246   1.779  13.195 -1.8929  1.5516  1.6330
   7323SM    O3 9550   0.422   1.763  13.282 -0.0818 -0.3362  0.1957
   7323SM   HO3 9551   0.418   1.802  13.369 -2.7211  0.6996 -0.2765
   7323SM   C4S 9552   0.387   1.874  13.077 -0.5091  0.0184  0.5052
   7323SM   H4S 9553   0.465   1.952  13.079  1.1021 -1.5093  0.3770
   7323SM   C5S 9554   0.333   1.824  12.961  0.0029  0.2824  0.1695
   7323SM   H5S 9555   0.243   1.760  12.961  0.1209  0.1092 -0.8121
   7323SM   C6S 9556   0.389   1.866  12.827  0.1389  0.2409  0.1456
   7323SM   H6S 9557   0.443   1.783  12.776  0.3445  1.7411 -2.2048
   7323SM   H6T 9558   0.457   1.953  12.829 -0.5445  0.7811  0.0234
   7323SM   C7S 9559   0.277   1.901  12.719 -0.0454  0.6524 -0.4850
   7323SM   H7S 9560   0.221   1.994  12.741 -1.6565 -0.4119  0.1321
   7323SM   H7T 9561   0.201   1.820  12.717  1.5122 -0.8595 -1.4331
   7323SM   C8S 9562   0.333   1.913  12.576 -0.2684  0.0068 -0.3662
   7323SM   H8S 9563   0.382   1.818  12.545  0.2912  0.8516 -2.2080
   7323SM   H8T 9564   0.412   1.991  12.578 -0.1027 -0.1494  1.9394
   7323SM   C9S 9565   0.209   1.951  12.491  0.1055 -0.5110  1.0341
   7323SM   H9S 9566   0.151   2.035  12.534  0.4514  0.8823 -1.0461
   7323SM   H9T 9567   0.133   1.871  12.479 -0.0797 -0.0838 -1.1928
   7323SM  C10S 9568   0.253   2.008  12.348 -0.1847  0.3372 -0.1775
   7323SM  H10S 9569   0.314   2.096  12.377  0.9656 -0.5183  0.0557
   7323SM  H10T 9570   0.167   2.037  12.284  1.2245 -1.0924 -2.9003
   7323SM  C11S 9571   0.342   1.913  12.267 -0.2351  0.0343 -0.1980
   7323SM  H11S 9572   0.293   1.817  12.240 -2.7140  1.6047 -1.6246
   7323SM  H11T 9573   0.430   1.892  12.332  0.3032 -1.7675 -1.4109
   7323SM  C12S 9574   0.413   1.980  12.152  0.4327  0.4037  0.5661
   7323SM  H12S 9575   0.491   1.915  12.107  1.6002  2.4000 -0.4685
   7323SM  H12T 9576   0.467   2.068  12.193 -0.9457  0.2208  2.9188
   7323SM  C13S 9577   0.326   2.004  12.023  0.4230  0.4757 -0.8489
   7323SM  H13S 9578   0.248   2.077  12.055 -0.6081 -1.3192  0.9471
   7323SM  H13T 9579   0.285   1.904  12.000  0.5317  0.3874 -0.6604
   7323SM  C14S 9580   0.387   2.061  11.891 -0.2676  0.1534 -1.2749
   7323SM  H14S 9581   0.490   2.019  11.890 -0.2338  0.1139  0.2950
   7323SM  H14T 9582   0.389   2.172  11.904 -2.2768  0.0025  1.0883
   7323SM  C15S 9583   0.306   2.009  11.765 -0.2662  0.3626  0.8667
   7323SM  H15S 9584   0.221   2.075  11.736  1.5561  1.7763 -1.5738
   7323SM  H15T 9585   0.270   1.904  11.767 -0.8519  0.4884 -1.2697
   7323SM  C16S 9586   0.403   2.019  11.642 -0.1921  0.1673 -0.4571
   7323SM  H16S 9587   0.479   1.940  11.658 -1.6080 -0.9133  1.2695
   7323SM  H16T 9588   0.451   2.119  11.641 -1.2370  0.6857 -1.9757
   7323SM  C17S 9589   0.335   1.993  11.504 -0.2033 -1.2767 -0.2345
   7323SM  H17S 9590   0.246   2.058  11.490  0.3406 -1.1839 -4.6462
   7323SM  H17T 9591   0.307   1.886  11.497  1.4570 -1.7459 -0.3208
   7323SM  C18S 9592   0.432   2.020  11.390  0.3815 -0.7344 -0.0570
   7323SM  H18S 9593   0.527   1.963  11.390  0.8891  0.0740  1.3423
   7323SM  H18T 9594   0.450   2.127  11.366 -0.9719 -0.2246  1.0599
   7323SM  H18U 9595   0.384   1.984  11.296 -1.2505  2.8763 -0.7662
   7323SM   C1F 9596   0.185   2.188  13.266 -0.4106 -0.1728  0.6582
   7323SM    OF 9597   0.269   2.234  13.338 -0.3792  0.4527 -0.6443
   7323SM   C2F 9598   0.081   2.279  13.221 -0.8361  0.2875  0.2692
   7323SM   H2F 9599   0.112   2.385  13.224 -2.1201  0.6973 -0.1440
   7323SM   H2G 9600  -0.006   2.274  13.290  0.5262 -3.1217  1.9922
   7323SM   C3F 9601   0.036   2.250  13.074  0.1059  0.0579  0.4457
   7323SM   H3F 9602  -0.040   2.324  13.043  1.5295  0.4891 -2.4226
   7323SM   H3G 9603  -0.007   2.150  13.054 -1.8368  1.1349 -1.1870
   7323SM   C4F 9604   0.155   2.264  12.963  0.0805 -0.3680 -0.5207
   7323SM   H4F 9605   0.236   2.194  12.995  1.7153  0.3718 -2.7731
   7323SM   H4G 9606   0.183   2.370  12.976 -0.2180 -0.4148  0.6320
   7323SM   C5F 9607   0.115   2.248  12.817 -0.3375  0.1376 -1.0858
   7323SM   H5F 9608   0.054   2.155  12.814  0.4330 -0.3933 -0.5907
   7323SM   H5G 9609   0.202   2.224  12.752  0.4268 -0.1829  0.0319
   7323SM   C6F 9610   0.043   2.359  12.740  0.5475  0.2655 -0.2892
   7323SM   H6F 9611   0.107   2.448  12.761  0.9839 -0.1633  0.2366
   7323SM   H6G 9612  -0.064   2.360  12.769  0.3151 -1.5281 -0.9478
   7323SM   C7F 9613   0.046   2.320  12.594 -0.3636 -1.0836  0.2737
   7323SM   H7F 9614   0.003   2.219  12.579  0.7203 -1.1513 -3.3984
   7323SM   H7G 9615   0.150   2.293  12.568 -0.1802  0.8107 -1.1566
   7323SM   C8F 9616  -0.004   2.427  12.487  0.1868  0.2534 -0.1902
   7323SM   H8F 9617   0.060   2.514  12.513  1.1321 -0.7375  0.8912
   7323SM   H8G 9618  -0.110   2.454  12.503 -0.6092 -1.3878 -2.2283
   7323SM   C9F 9619   0.023   2.387  12.340  0.0038  0.1552 -0.0718
   7323SM   H9F 9620  -0.017   2.284  12.331  1.5376 -0.2745 -2.7807
   7323SM   H9G 9621   0.132   2.373  12.330  0.0873 -0.6497  1.5811
   7323SM  C10F 9622  -0.035   2.484  12.234  0.0068 -0.1517  0.2718
   7323SM  H10F 9623   0.007   2.587  12.235  2.0007 -0.8339 -1.7218
   7323SM  H10G 9624  -0.141   2.495  12.264 -0.0873  2.3850 -0.7490
   7323SM  C11F 9625  -0.011   2.420  12.100  0.0199  1.4527  0.3696
   7323SM  H11F 9626  -0.068   2.466  12.016  2.6292 -0.0049 -2.3878
   7323SM  H11G 9627  -0.036   2.312  12.102 -0.2515  1.4156 -1.8002
   7323SM  C12F 9628   0.134   2.441  12.051  0.6103  0.8400  0.3280
   7323SM  H12F 9629   0.204   2.397  12.126 -1.1685 -2.4286  0.2462
   7323SM  H12G 9630   0.154   2.550  12.046 -1.9302  1.3421 -0.2303
   7323SM  C13F 9631   0.164   2.380  11.915  0.2761 -0.2219  0.2620
   7323SM  H13F 9632   0.127   2.277  11.895  1.8447 -1.0701  1.4675
   7323SM  H13G 9633   0.275   2.382  11.910  0.3096 -1.3232  0.3219
   7323SM  C14F 9634   0.108   2.466  11.806  0.2710  0.3447 -0.3652
   7323SM  H14F 9635   0.152   2.566  11.827  0.1551  0.6154 -1.3614
   7323SM  H14G 9636  -0.002   2.470  11.822  0.5373  0.6718  1.6019
   7323SM  C15F 9637   0.155   2.419  11.668  0.2650  0.0320 -0.8717
   7323SM  H15F 9638   0.116   2.320  11.640  0.8003 -0.5566  0.3660
   7323SM  H15G 9639   0.266   2.413  11.666  0.2123 -0.9879 -1.1112
   7323SM  C16F 9640   0.101   2.509  11.557 -0.5033  0.1147 -0.1341
   7323SM  H16F 9641   0.061   2.607  11.591  0.1492  0.5654 -0.6269
   7323SM  H16G 9642   0.021   2.444  11.517 -0.6905 -1.9502  3.2249
   7323SM  C17F 9643   0.202   2.548  11.442  1.8195 -0.2622  0.7834
   7323SM  H17F 9644   0.283   2.606  11.491  0.8571  1.1230  0.7742
   7323SM  H17G 9645   0.160   2.621  11.370  1.5899 -1.7256 -0.6336
   7323SM  C18F 9646   0.260   2.426  11.359  0.7942 -0.2422  0.2326
   7323SM  H18F 9647   0.312   2.362  11.434  2.6088  0.1056 -0.6747
   7323SM  H18G 9648   0.333   2.455  11.281  1.5656  3.5986  2.1640
   7323SM  C19F 9649   0.150   2.342  11.298 -0.8323  0.3255  0.2197
   7323SM  H19F 9650   0.082   2.412  11.246 -3.4897  0.2022  3.2531
   7323SM  H19G 9651   0.096   2.281  11.374  0.9238  1.5429  2.5927
   7323SM  C20F 9652   0.204   2.238  11.200  0.0818  0.0942  0.0448
   7323SM  H20F 9653   0.284   2.178  11.248  0.2512  0.2805 -0.0030
   7323SM  H20G 9654   0.243   2.292  11.111 -1.2586 -3.5089 -3.0358
   7323SM  C21F 9655   0.093   2.158  11.124  0.0692 -0.1408 -0.0914
   7323SM  H21F 9656   0.029   2.223  11.061 -0.2366 -1.6533 -1.4091
   7323SM  H21G 9657   0.020   2.110  11.193 -1.2333  1.4537 -0.3061
   7323SM  C22F 9658   0.155   2.060  11.020  0.4260  0.3204  0.1650
   7323SM  H22F 9659   0.211   1.987  11.082 -0.8246 -0.2156  0.6955
   7323SM  H22G 9660   0.222   2.117  10.952  0.0379  0.7534  0.1409
   7323SM  C23F 9661   0.060   1.983  10.939  0.5753  0.1117 -0.1161
   7323SM  H23F 9662  -0.014   2.056  10.899  2.0706  1.8549  0.1715
   7323SM  H23G 9663   0.005   1.908  11.000 -1.4500  0.3059 -1.5711
   7323SM  H23H 9664   0.107   1.931  10.853 -1.3419  0.3123 -1.3448
   7423SM     N 9665   4.417   5.366  14.419 -0.0288 -0.0228  0.0291
   7423SM   C15 9666   4.331   5.243  14.451 -0.1452 -0.4655  0.5816
   7423SM  H15A 9667   4.312   5.189  14.360 -3.0306 -0.4003  1.0614
   7423SM  H15B 9668   4.237   5.273  14.496 -0.5006 -0.8127  0.0751
   7423SM  H15C 9669   4.382   5.185  14.527 -3.1304 -2.4743  1.2471
   7423SM   C14 9670   4.401   5.452  14.540  0.0056  0.1575  0.3403
   7423SM  H14A 9671   4.430   5.398  14.629 -1.7764  0.8312  1.3806
   7423SM  H14B 9672   4.299   5.484  14.554 -0.6299 -1.6223 -0.0297
   7423SM  H14C 9673   4.457   5.544  14.525 -0.5006  0.2281 -1.2769
   7423SM   C13 9674   4.566   5.334  14.399  0.0562 -0.1129  0.1425
   7423SM  H13A 9675   4.570   5.247  14.334 -0.5462  0.1431 -0.2563
   7423SM  H13B 9676   4.621   5.317  14.490 -0.2534 -0.1414  0.3247
   7423SM  H13C 9677   4.615   5.411  14.342  2.5484 -1.2269  0.6386
   7423SM   C12 9678   4.363   5.424  14.294  0.3981 -0.0773  0.1641
   7423SM  H12A 9679   4.395   5.525  14.276  0.6106 -0.3036 -0.8016
   7423SM  H12B 9680   4.257   5.443  14.307  0.7201  1.6839  0.4521
   7423SM   C11 9681   4.354   5.343  14.161  0.0794 -0.0630  0.2993
   7423SM  H11A 9682   4.459   5.304  14.160  0.4788  0.9849 -1.0057
   7423SM  H11B 9683   4.350   5.411  14.074 -0.6478 -2.3171 -1.5355
   7423SM     P 9684   4.119   5.232  14.125  0.3206 -0.1850 -0.0949
   7423SM   O13 9685   4.049   5.107  14.165 -0.4374  0.0183 -0.5373
   7423SM   O14 9686   4.073   5.351  14.209 -0.2611 -0.4731 -0.4612
   7423SM   O11 9687   4.091   5.258  13.966  0.5472  0.0525  0.6524
   7423SM   O12 9688   4.273   5.222  14.155  0.8544 -0.1897 -0.7727
   7423SM   C1S 9689   4.137   5.179  13.861 -0.1299  0.1697  0.0710
   7423SM   H1S 9690   4.143   5.073  13.897 -0.0505  0.0154 -0.3942
   7423SM   H1T 9691   4.243   5.203  13.838  0.7205 -1.6072  1.7887
   7423SM    NF 9692   4.106   5.083  13.642  0.5495  0.1810 -0.1744
   7423SM   HNF 9693   4.166   5.122  13.573  2.4234 -0.7577  0.8326
   7423SM   C2S 9694   4.043   5.174  13.734  0.0768 -0.1486 -0.7553
   7423SM   H2S 9695   3.946   5.128  13.760  1.7564 -1.9757  3.0046
   7423SM   C3S 9696   4.019   5.318  13.688  0.1857  0.0899 -0.0900
   7423SM   H3S 9697   4.120   5.359  13.663 -0.2473  0.8096 -0.7113
   7423SM    O3 9698   3.963   5.409  13.786  0.7110 -0.2716  0.0217
   7423SM   HO3 9699   3.994   5.371  13.868  0.5388  0.8938  0.6421
   7423SM   C4S 9700   3.941   5.316  13.561 -0.0697  0.7897  0.0688
   7423SM   H4S 9701   4.012   5.322  13.476  0.2224  2.1827  0.3938
   7423SM   C5S 9702   3.805   5.317  13.542  0.0685  0.6351  0.0905
   7423SM   H5S 9703   3.750   5.304  13.636 -0.5547  2.1582 -0.0309
   7423SM   C6S 9704   3.723   5.294  13.417 -0.1805 -0.2975 -0.2997
   7423SM   H6S 9705   3.659   5.384  13.407 -0.7920 -0.4499  1.6915
   7423SM   H6T 9706   3.667   5.198  13.429  0.8646 -0.7839  0.8588
   7423SM   C7S 9707   3.820   5.290  13.293  0.2371 -0.2398 -0.0503
   7423SM   H7S 9708   3.887   5.201  13.288 -0.7115 -1.0524  1.1674
   7423SM   H7T 9709   3.875   5.387  13.299 -1.1053  0.4577  2.0360
   7423SM   C8S 9710   3.738   5.287  13.158  0.1363 -0.9493 -0.4214
   7423SM   H8S 9711   3.677   5.379  13.145 -1.7497 -2.3986 -2.5026
   7423SM   H8T 9712   3.676   5.195  13.167  0.9502 -1.6469 -1.6258
   7423SM   C9S 9713   3.825   5.273  13.041 -0.7362  0.3051 -0.0434
   7423SM   H9S 9714   3.878   5.176  13.052 -1.9116 -0.4875 -1.0678
   7423SM   H9T 9715   3.903   5.352  13.043 -1.0395  0.6235 -0.5834
   7423SM  C10S 9716   3.746   5.268  12.908 -0.1267  0.2382 -0.1739
   7423SM  H10S 9717   3.698   5.361  12.873 -1.4563 -0.1967  0.3954
   7423SM  H10T 9718   3.663   5.195  12.925  1.4328 -1.8610 -1.1595
   7423SM  C11S 9719   3.826   5.218  12.783 -0.3247  0.5627  0.3481
   7423SM  H11S 9720   3.855   5.115  12.813 -1.1509 -0.1297 -1.1261
   7423SM  H11T 9721   3.905   5.293  12.758 -1.1545  0.6990 -2.1151
   7423SM  C12S 9722   3.741   5.196  12.649  0.0425 -0.2557 -0.3390
   7423SM  H12S 9723   3.701   5.298  12.631  1.1811  1.2272  4.1905
   7423SM  H12T 9724   3.658   5.131  12.685 -0.2233  0.5883  0.6130
   7423SM  C13S 9725   3.825   5.126  12.538  0.5074  0.1293  0.0691
   7423SM  H13S 9726   3.872   5.031  12.572  3.3941  1.1121 -0.8707
   7423SM  H13T 9727   3.912   5.191  12.513 -0.1813  1.5230  1.1420
   7423SM  C14S 9728   3.748   5.087  12.410  0.0786  0.4213  0.4753
   7423SM  H14S 9729   3.660   5.023  12.434 -0.5880  0.6340 -1.2408
   7423SM  H14T 9730   3.812   5.025  12.344 -3.3635  0.6481 -3.5196
   7423SM  C15S 9731   3.683   5.200  12.322  0.0753  1.1093  0.8700
   7423SM  H15S 9732   3.630   5.270  12.390 -0.4499  2.8295 -1.2226
   7423SM  H15T 9733   3.613   5.154  12.249  0.7918 -0.0632  0.9011
   7423SM  C16S 9734   3.779   5.291  12.245  0.1324  0.0371  0.1422
   7423SM  H16S 9735   3.847   5.342  12.317  0.5374  0.2063 -0.3496
   7423SM  H16T 9736   3.712   5.371  12.205 -1.7042 -0.2898  2.3905
   7423SM  C17S 9737   3.853   5.236  12.121  0.5066  0.4797  0.9436
   7423SM  H17S 9738   3.905   5.140  12.141  0.6118  0.3230 -0.0525
   7423SM  H17T 9739   3.936   5.302  12.088  1.0310  0.3968  2.0434
   7423SM  C18S 9740   3.757   5.223  11.998  0.1558 -0.5401  0.1997
   7423SM  H18S 9741   3.805   5.139  11.943 -0.3144 -0.4978 -0.2756
   7423SM  H18T 9742   3.754   5.306  11.925 -3.0510 -0.3389  0.4019
   7423SM  H18U 9743   3.655   5.190  12.028 -0.9280  1.6068 -0.9514
   7423SM   C1F 9744   4.096   4.953  13.659  0.2639 -0.0076  0.1859
   7423SM    OF 9745   4.048   4.896  13.760  0.1541  0.1714  0.5283
   7423SM   C2F 9746   4.152   4.872  13.544  0.8409  0.5656  0.5808
   7423SM   H2F 9747   4.254   4.841  13.575  1.1199  1.8621  1.0126
   7423SM   H2G 9748   4.166   4.932  13.451 -0.4019  0.3908  0.2633
   7423SM   C3F 9749   4.066   4.745  13.517 -0.1160  0.1295 -0.1255
   7423SM   H3F 9750   3.963   4.776  13.489  0.3531  1.9456  0.0303
   7423SM   H3G 9751   4.063   4.681  13.608 -2.3751 -0.8688 -0.8224
   7423SM   C4F 9752   4.111   4.655  13.402  0.0710 -0.1556  0.1441
   7423SM   H4F 9753   4.070   4.552  13.416  1.3873 -0.6477  0.5052
   7423SM   H4G 9754   4.221   4.649  13.387  0.0570 -3.0934  0.5404
   7423SM   C5F 9755   4.050   4.702  13.267  0.1557 -0.4181  0.0878
   7423SM   H5F 9756   4.073   4.810  13.266 -0.0735 -0.3655  0.3339
   7423SM   H5G 9757   3.939   4.698  13.277  0.1646  0.7975  0.7864
   7423SM   C6F 9758   4.091   4.627  13.133  0.2486 -0.6624 -0.0925
   7423SM   H6F 9759   4.042   4.528  13.136 -1.1330 -0.2297 -3.8327
   7423SM   H6G 9760   4.201   4.617  13.121  0.1192 -0.9664 -1.1339
   7423SM   C7F 9761   4.041   4.689  13.005  0.3699  0.1760  0.1563
   7423SM   H7F 9762   4.051   4.799  13.016  2.7727 -0.1531  1.7736
   7423SM   H7G 9763   3.934   4.659  13.002  0.5041 -0.5389  1.7649
   7423SM   C8F 9764   4.113   4.639  12.874 -0.1990 -0.5296 -0.9947
   7423SM   H8F 9765   4.100   4.529  12.865 -0.9319 -0.4755 -0.6879
   7423SM   H8G 9766   4.222   4.658  12.872 -0.2478  0.0938  0.6223
   7423SM   C9F 9767   4.052   4.698  12.741 -0.4078  0.6719 -0.1323
   7423SM   H9F 9768   4.083   4.804  12.739 -0.0703  0.5961  0.7799
   7423SM   H9G 9769   3.941   4.686  12.741 -0.4057  0.6488  0.2475
   7423SM  C10F 9770   4.104   4.641  12.613  0.3028  0.2191  0.4821
   7423SM  H10F 9771   4.095   4.532  12.629  0.0738 -0.0186 -1.1049
   7423SM  H10G 9772   4.213   4.659  12.596  0.4029 -0.1123  0.7712
   7423SM  C11F 9773   4.022   4.676  12.487  0.1930  0.2991 -0.1763
   7423SM  H11F 9774   4.048   4.781  12.465 -2.2699  0.9920 -0.0344
   7423SM  H11G 9775   3.913   4.664  12.507  0.1727  0.9782  0.1367
   7423SM  C12F 9776   4.070   4.582  12.375 -0.0571 -0.1787 -0.2961
   7423SM  H12F 9777   4.040   4.483  12.413 -0.5480  1.0770  2.9386
   7423SM  H12G 9778   4.180   4.598  12.362 -0.0239  1.0300  1.1316
   7423SM  C13F 9779   4.001   4.616  12.254  0.1404 -0.2040  0.0266
   7423SM  H13F 9780   3.893   4.625  12.278  0.5081  1.8990  1.1439
   7423SM  H13G 9781   4.027   4.532  12.186  1.2672 -0.6376  0.9509
   7423SM  C14F 9782   4.045   4.745  12.181 -0.0363 -0.2909 -0.0023
   7423SM  H14F 9783   4.155   4.754  12.170 -0.0680 -0.6773 -0.7500
   7423SM  H14G 9784   4.019   4.839  12.234 -2.7688 -0.7437 -0.4275
   7423SM  C15F 9785   3.986   4.765  12.043  0.0760 -0.1852  0.2133
   7423SM  H15F 9786   4.005   4.873  12.026  0.8394 -0.4326 -0.5838
   7423SM  H15G 9787   3.875   4.755  12.048  0.1165 -0.8851 -0.1321
   7423SM  C16F 9788   4.043   4.698  11.919  0.6974 -0.5135 -0.0107
   7423SM  H16F 9789   4.016   4.591  11.917  1.1376 -0.6187 -0.9953
   7423SM  H16G 9790   4.151   4.717  11.899  0.9791 -1.6126  0.3983
   7423SM  C17F 9791   3.969   4.760  11.794  0.0586  0.4272 -0.0327
   7423SM  H17F 9792   3.982   4.870  11.798 -0.2687  0.4920 -0.6246
   7423SM  H17G 9793   3.863   4.732  11.809  0.0938  1.3605  2.4344
   7423SM  C18F 9794   4.019   4.710  11.652 -0.2999 -0.5353  0.0246
   7423SM  H18F 9795   4.002   4.600  11.646 -2.4298 -0.2117 -0.6532
   7423SM  H18G 9796   4.129   4.718  11.661 -0.4349  0.5945  0.8518
   7423SM  C19F 9797   3.962   4.784  11.529 -0.3596  0.3376  0.3072
   7423SM  H19F 9798   3.993   4.889  11.544  1.0742 -0.0334  0.1247
   7423SM  H19G 9799   3.851   4.780  11.532 -0.4690  2.0300 -0.6085
   7423SM  C20F 9800   4.021   4.727  11.401  0.0066 -0.0700  0.2514
   7423SM  H20F 9801   3.984   4.623  11.393 -0.5996 -0.1596  3.1794
   7423SM  H20G 9802   4.131   4.709  11.405 -0.0346 -1.2998 -2.2070
   7423SM  C21F 9803   3.991   4.806  11.271  0.0741 -0.2787  0.2085
   7423SM  H21F 9804   3.881   4.815  11.255  0.2601  0.8779 -0.5622
   7423SM  H21G 9805   4.042   4.748  11.191  0.8127 -0.9912  1.1832
   7423SM  C22F 9806   4.038   4.952  11.272 -0.5642  1.0506 -0.4454
   7423SM  H22F 9807   4.147   4.961  11.289  0.1384 -2.6105 -2.1932
   7423SM  H22G 9808   3.982   4.999  11.356  0.3680 -0.7674  1.2675
   7423SM  C23F 9809   4.004   5.028  11.147  0.6915  0.5859  0.9309
   7423SM  H23F 9810   4.065   4.984  11.064  0.0713 -0.4538  1.0142
   7423SM  H23G 9811   4.008   5.139  11.149  0.4902  0.6307 -0.1547
   7423SM  H23H 9812   3.899   5.005  11.121  0.5587 -0.7136  2.4396
   7523SM     N 9813   2.143   4.993  13.906  0.4729 -0.2642  0.2740
   7523SM   C15 9814   2.099   5.063  14.030 -0.0218  0.8530  0.5229
   7523SM  H15A 9815   2.187   5.117  14.062  0.8315  0.6174 -1.3283
   7523SM  H15B 9816   2.055   4.987  14.093  0.2286 -1.7609 -2.2229
   7523SM  H15C 9817   2.024   5.135  14.003 -1.1629  0.3294  2.1166
   7523SM   C14 9818   2.253   4.898  13.939 -0.0286  0.0364  0.3843
   7523SM  H14A 9819   2.291   4.859  13.846  4.0673  1.9629  1.0344
   7523SM  H14B 9820   2.215   4.821  14.005  0.5135 -0.9352 -0.4195
   7523SM  H14C 9821   2.336   4.946  13.988 -0.2737 -0.0669  0.9082
   7523SM   C13 9822   2.030   4.904  13.849  0.5190  0.0097  0.3536
   7523SM  H13A 9823   2.058   4.848  13.761 -0.4959 -1.4265  0.8964
   7523SM  H13B 9824   1.945   4.970  13.839  1.1690  0.9694  0.9673
   7523SM  H13C 9825   2.004   4.833  13.926  0.4069  0.7712  1.0300
   7523SM   C12 9826   2.196   5.089  13.797 -0.2144 -0.2631 -0.0655
   7523SM  H12A 9827   2.118   5.164  13.793 -0.5872 -0.6147  0.4398
   7523SM  H12B 9828   2.213   5.031  13.707  1.2806 -0.3373  0.2465
   7523SM   C11 9829   2.321   5.176  13.824  0.4801  0.3129 -0.1853
   7523SM  H11A 9830   2.340   5.217  13.722  0.7715 -0.2984 -0.3820
   7523SM  H11B 9831   2.414   5.122  13.850  0.4029  0.4563  0.4113
   7523SM     P 9832   2.194   5.395  13.884 -0.2130 -0.0420 -0.0281
   7523SM   O13 9833   2.060   5.341  13.868 -0.4720 -0.4394  0.1223
   7523SM   O14 9834   2.210   5.503  13.982  0.0829  0.1786  0.1479
   7523SM   O11 9835   2.254   5.445  13.749  0.5907  0.6968  0.6550
   7523SM   O12 9836   2.294   5.281  13.923 -0.2041  0.1017 -0.5502
   7523SM   C1S 9837   2.388   5.506  13.746  0.0736 -0.4387  1.0281
   7523SM   H1S 9838   2.453   5.444  13.811  2.1672  1.4530  0.8616
   7523SM   H1T 9839   2.385   5.606  13.795  0.4174 -0.4362  1.0442
   7523SM    NF 9840   2.599   5.523  13.602  0.0154  0.7411 -0.1131
   7523SM   HNF 9841   2.647   5.610  13.593  0.6783  0.2214 -1.8992
   7523SM   C2S 9842   2.455   5.522  13.605  0.3007 -0.5905 -0.1545
   7523SM   H2S 9843   2.424   5.431  13.550 -1.6666 -1.0580  1.6074
   7523SM   C3S 9844   2.391   5.646  13.536 -0.2053 -0.2409 -0.6753
   7523SM   H3S 9845   2.409   5.743  13.588 -3.4249  0.5118 -0.7296
   7523SM    O3 9846   2.248   5.650  13.547  0.0452  0.3008  0.5079
   7523SM   HO3 9847   2.239   5.603  13.631 -1.6962  0.0566  0.2160
   7523SM   C4S 9848   2.412   5.638  13.390 -0.2698  0.6062 -0.1523
   7523SM   H4S 9849   2.363   5.551  13.345  1.6999 -1.1610  0.9285
   7523SM   C5S 9850   2.498   5.712  13.319 -0.0617  0.7529  0.3068
   7523SM   H5S 9851   2.554   5.794  13.366  0.5058 -0.2812  1.4963
   7523SM   C6S 9852   2.526   5.696  13.170  0.0596  0.4753 -0.4004
   7523SM   H6S 9853   2.632   5.675  13.146 -0.4815 -0.8505 -1.7617
   7523SM   H6T 9854   2.509   5.788  13.108  1.5745 -0.0829 -1.7324
   7523SM   C7S 9855   2.448   5.578  13.108 -0.2099  0.5594  0.4945
   7523SM   H7S 9856   2.339   5.597  13.100 -0.1126  1.1417  0.5589
   7523SM   H7T 9857   2.472   5.493  13.175 -1.3170  1.2957  1.8572
   7523SM   C8S 9858   2.502   5.531  12.969  0.0968 -0.7397  0.3650
   7523SM   H8S 9859   2.488   5.424  12.945 -0.7143 -0.5031 -0.2622
   7523SM   H8T 9860   2.613   5.533  12.959  0.1770 -3.9091 -0.2135
   7523SM   C9S 9861   2.437   5.610  12.848 -0.1412 -0.6048 -0.7647
   7523SM   H9S 9862   2.468   5.716  12.855  0.4288 -0.7900 -0.4071
   7523SM   H9T 9863   2.326   5.606  12.855 -0.0837 -2.1473 -0.3253
   7523SM  C10S 9864   2.476   5.547  12.712 -0.1415  0.0530 -0.0755
   7523SM  H10S 9865   2.463   5.438  12.699 -3.0174  0.2719  0.1890
   7523SM  H10T 9866   2.582   5.579  12.701  0.0320  0.2042  1.7793
   7523SM  C11S 9867   2.391   5.601  12.597 -0.5073  0.4480 -0.3050
   7523SM  H11S 9868   2.416   5.709  12.584 -1.6770  1.1025  2.1546
   7523SM  H11T 9869   2.283   5.588  12.622 -0.3998  1.1384  0.5509
   7523SM  C12S 9870   2.421   5.524  12.461  0.2114 -0.8725 -0.5352
   7523SM  H12S 9871   2.363   5.429  12.471 -1.7258  0.1317 -1.5679
   7523SM  H12T 9872   2.527   5.492  12.453  0.4963  0.3136 -1.8834
   7523SM  C13S 9873   2.360   5.609  12.352  0.3236  0.7377 -0.0800
   7523SM  H13S 9874   2.413   5.705  12.334  2.2227 -0.3599 -0.5814
   7523SM  H13T 9875   2.256   5.635  12.384  0.3885  0.3482  0.4457
   7523SM  C14S 9876   2.332   5.536  12.215 -0.3753 -0.2583 -0.5428
   7523SM  H14S 9877   2.270   5.614  12.165  0.8396  1.3575  0.3858
   7523SM  H14T 9878   2.278   5.443  12.242 -1.6027  0.9676  1.4773
   7523SM  C15S 9879   2.457   5.502  12.137 -0.1038 -0.4525  0.2589
   7523SM  H15S 9880   2.502   5.417  12.193 -0.9439 -1.4471 -0.5385
   7523SM  H15T 9881   2.529   5.586  12.139 -0.6032 -0.0200  0.5689
   7523SM  C16S 9882   2.430   5.456  11.991  0.0320 -0.4876  0.1382
   7523SM  H16S 9883   2.524   5.413  11.950  1.7100  1.9501  1.1948
   7523SM  H16T 9884   2.400   5.538  11.923  1.1589 -0.5419 -0.4608
   7523SM  C17S 9885   2.317   5.356  11.977  1.0239  0.8189  0.1351
   7523SM  H17S 9886   2.225   5.378  12.036  1.3931  4.1692 -0.3354
   7523SM  H17T 9887   2.343   5.259  12.025 -0.7752  0.6386  0.8118
   7523SM  C18S 9888   2.261   5.329  11.830 -0.4186  0.0221  0.3814
   7523SM  H18S 9889   2.178   5.255  11.838 -1.1443  0.7194 -0.4653
   7523SM  H18T 9890   2.347   5.288  11.772 -0.5378  1.6483 -1.0289
   7523SM  H18U 9891   2.222   5.417  11.774  1.1412 -0.6859 -1.9566
   7523SM   C1F 9892   2.672   5.415  13.618 -0.3109  0.1856  0.3199
   7523SM    OF 9893   2.630   5.311  13.654 -0.0859 -0.5040 -0.0914
   7523SM   C2F 9894   2.819   5.436  13.606 -0.4935  0.2534  0.7950
   7523SM   H2F 9895   2.863   5.366  13.679 -3.4631 -1.7910  0.8079
   7523SM   H2G 9896   2.848   5.539  13.636  2.0648 -0.7421  1.9444
   7523SM   C3F 9897   2.881   5.377  13.479  0.5418  0.2567  0.7045
   7523SM   H3F 9898   2.863   5.268  13.470  0.6251  0.3508 -0.8882
   7523SM   H3G 9899   2.989   5.400  13.494 -0.0665  2.5164  2.1320
   7523SM   C4F 9900   2.840   5.446  13.344  0.3162  0.6031  0.2349
   7523SM   H4F 9901   2.876   5.551  13.352  0.8205  0.6213 -1.8447
   7523SM   H4G 9902   2.730   5.440  13.327  0.3518  0.7357 -0.0537
   7523SM   C5F 9903   2.933   5.398  13.232 -0.5887 -0.7672 -0.5298
   7523SM   H5F 9904   2.930   5.287  13.224  0.5473 -0.8053 -0.6366
   7523SM   H5G 9905   3.039   5.417  13.259  0.7174 -4.3044 -2.5580
   7523SM   C6F 9906   2.901   5.460  13.095  0.0417 -0.6350 -0.4231
   7523SM   H6F 9907   2.914   5.570  13.102  0.4653 -0.7023 -0.0787
   7523SM   H6G 9908   2.791   5.448  13.086 -0.5122  3.2015 -0.2708
   7523SM   C7F 9909   2.978   5.400  12.984 -0.1134  0.1975 -0.1341
   7523SM   H7F 9910   2.983   5.290  13.000  1.2981  0.0203 -1.5323
   7523SM   H7G 9911   3.082   5.441  12.990  0.3797 -0.2587 -3.5571
   7523SM   C8F 9912   2.933   5.428  12.844  0.0170  0.0967  0.4312
   7523SM   H8F 9913   3.022   5.429  12.777  0.9201  0.0514  1.5935
   7523SM   H8G 9914   2.891   5.530  12.855 -0.6460 -0.0774 -0.4162
   7523SM   C9F 9915   2.817   5.344  12.780 -0.1761 -0.0770  0.6999
   7523SM   H9F 9916   2.724   5.363  12.838  0.8037 -3.2092  3.6587
   7523SM   H9G 9917   2.850   5.239  12.794  0.7631  0.2717  1.1752
   7523SM  C10F 9918   2.807   5.364  12.625 -0.5854 -0.3688 -0.5042
   7523SM  H10F 9919   2.913   5.346  12.599 -0.3959 -1.4619  0.9126
   7523SM  H10G 9920   2.761   5.463  12.603 -1.3035 -0.7341 -0.6775
   7523SM  C11F 9921   2.724   5.258  12.562  0.2465 -0.3608  0.3301
   7523SM  H11F 9922   2.615   5.269  12.582 -0.2676 -1.2675 -1.7037
   7523SM  H11G 9923   2.754   5.163  12.610  1.0050 -0.4267 -0.2540
   7523SM  C12F 9924   2.753   5.251  12.412  0.7384  0.6805  0.2464
   7523SM  H12F 9925   2.861   5.229  12.396  0.2302 -2.3215  0.3915
   7523SM  H12G 9926   2.726   5.352  12.374  0.5364 -0.1707 -2.0027
   7523SM  C13F 9927   2.665   5.145  12.334  0.1678  0.1612  0.4599
   7523SM  H13F 9928   2.559   5.177  12.345  0.5209  1.2282  0.8271
   7523SM  H13G 9929   2.679   5.049  12.388 -0.3854 -1.1558 -1.6154
   7523SM  C14F 9930   2.694   5.138  12.184  0.2341 -0.3741 -0.8173
   7523SM  H14F 9931   2.802   5.113  12.175  0.1169 -4.3332  4.1648
   7523SM  H14G 9932   2.688   5.235  12.131 -0.9653  0.1156  0.1700
   7523SM  C15F 9933   2.619   5.029  12.112 -0.7605  0.6590  0.1462
   7523SM  H15F 9934   2.509   5.050  12.114 -0.7287  1.3495 -2.0197
   7523SM  H15G 9935   2.641   4.938  12.171  1.0488  1.1314  0.2409
   7523SM  C16F 9936   2.656   5.001  11.966  0.4298  0.0416  0.3515
   7523SM  H16F 9937   2.603   4.908  11.936 -1.5507  0.8484  1.1649
   7523SM  H16G 9938   2.762   4.973  11.949  0.1703 -1.7385  1.4835
   7523SM  C17F 9939   2.608   5.103  11.865  0.5154 -0.6094 -0.6333
   7523SM  H17F 9940   2.657   5.199  11.891  0.5240 -1.2383  1.8809
   7523SM  H17G 9941   2.505   5.133  11.893  0.5045 -0.1283 -1.1762
   7523SM  C18F 9942   2.615   5.054  11.720 -0.3161 -0.2225  0.2296
   7523SM  H18F 9943   2.688   4.970  11.715  0.4142  0.3382  1.0930
   7523SM  H18G 9944   2.644   5.141  11.658  1.3554  0.9655  2.5241
   7523SM  C19F 9945   2.488   4.989  11.676  0.2124  0.6881 -0.1108
   7523SM  H19F 9946   2.401   5.058  11.672  0.9588  1.6939  0.4938
   7523SM  H19G 9947   2.457   4.904  11.739 -0.2472  0.6483 -0.3847
   7523SM  C20F 9948   2.488   4.911  11.542 -0.4189  0.3839  1.2014
   7523SM  H20F 9949   2.514   4.977  11.457  2.6716 -0.0617  1.6621
   7523SM  H20G 9950   2.384   4.881  11.518 -0.3761  1.5751 -0.6855
   7523SM  C21F 9951   2.595   4.800  11.540  0.1811  0.4310 -0.1158
   7523SM  H21F 9952   2.696   4.837  11.565  0.8203 -0.2095 -1.5968
   7523SM  H21G 9953   2.582   4.757  11.438 -0.5937 -1.4240  0.7214
   7523SM  C22F 9954   2.573   4.680  11.639 -0.8603  0.0407  0.0750
   7523SM  H22F 9955   2.602   4.726  11.735  1.0780 -1.2083  0.1561
   7523SM  H22G 9956   2.651   4.602  11.621 -0.9177 -0.1487  0.6349
   7523SM  C23F 9957   2.437   4.616  11.659 -0.0792 -0.3039  0.6447
   7523SM  H23F 9958   2.363   4.698  11.673 -0.1490 -0.3080  0.3102
   7523SM  H23G 9959   2.436   4.550  11.749 -0.5960 -0.0777  0.8072
   7523SM  H23H 9960   2.419   4.560  11.565  1.1923  1.1438 -0.5252
   7623SM     N 9961   4.542   6.107  14.175  0.2748  0.0028 -0.2878
   7623SM   C15 9962   4.582   6.224  14.085  0.7448  0.6046  0.3720
   7623SM  H15A 9963   4.544   6.314  14.131  0.5706  0.3395  0.7536
   7623SM  H15B 9964   4.546   6.215  13.983  2.6912 -1.2131 -0.2201
   7623SM  H15C 9965   4.688   6.234  14.072  0.7330  1.3420  0.8204
   7623SM   C14 9966   4.625   6.116  14.302 -0.0536 -0.3987  0.3190
   7623SM  H14A 9967   4.606   6.023  14.355  0.9069 -0.9035 -0.1913
   7623SM  H14B 9968   4.591   6.197  14.364  0.3631 -0.1512  0.2247
   7623SM  H14C 9969   4.730   6.138  14.293 -0.3018  0.1672 -1.6060
   7623SM   C13 9970   4.402   6.122  14.227 -0.2305 -0.7241 -0.4914
   7623SM  H13A 9971   4.337   6.107  14.142  1.3809  2.9231 -2.6215
   7623SM  H13B 9972   4.381   6.220  14.268 -0.4423 -1.2824  0.7823
   7623SM  H13C 9973   4.368   6.056  14.306 -0.5337  1.6395  1.4629
   7623SM   C12 9974   4.569   5.975  14.105 -0.5242  0.1654  0.6212
   7623SM  H12A 9975   4.572   5.905  14.187 -0.0031 -0.0093  0.4528
   7623SM  H12B 9976   4.668   5.979  14.063 -1.1395 -1.7562 -1.1876
   7623SM   C11 9977   4.473   5.931  14.000  0.3810  0.0780 -0.2985
   7623SM  H11A 9978   4.515   5.848  13.938 -0.7057 -0.5789 -0.1933
   7623SM  H11B 9979   4.459   6.014  13.927 -1.0505  1.5511  1.5633
   7623SM     P 9980   4.316   5.748  14.102 -0.4976 -0.0751  0.5292
   7623SM   O13 9981   4.432   5.708  14.183 -0.1541 -0.1157 -0.1698
   7623SM   O14 9982   4.179   5.735  14.155 -0.4484 -0.2259 -0.5322
   7623SM   O11 9983   4.328   5.665  13.970 -0.4020 -0.6339 -0.3438
   7623SM   O12 9984   4.346   5.896  14.056  0.0722  0.3659  0.2803
   7623SM   C1S 9985   4.220   5.644  13.879 -0.3396  0.1685  0.2233
   7623SM   H1S 9986   4.146   5.726  13.884  0.4130  0.9002 -0.3035
   7623SM   H1T 9987   4.164   5.550  13.899  0.2533 -0.2224  0.0998
   7623SM    NF 9988   4.174   5.626  13.636 -0.2144 -0.2346 -0.1959
   7623SM   HNF 9989   4.124   5.540  13.642 -0.1844 -0.2723 -0.4776
   7623SM   C2S 9990   4.286   5.631  13.733 -0.2831 -0.1800  0.0103
   7623SM   H2S 9991   4.346   5.723  13.718  0.4924 -0.6221  0.3353
   7623SM   C3S 9992   4.373   5.503  13.727 -0.0280 -0.3095 -0.8063
   7623SM   H3S 9993   4.299   5.421  13.718 -1.6169  1.1985 -2.1296
   7623SM    O3 9994   4.461   5.487  13.838  0.0681  0.0509  0.0106
   7623SM   HO3 9995   4.418   5.541  13.906 -1.8415 -2.1442  0.6537
   7623SM   C4S 9996   4.464   5.500  13.607  0.2060 -0.0987  0.0506
   7623SM   H4S 9997   4.416   5.450  13.522  1.2738  1.1400 -1.3309
   7623SM   C5S 9998   4.593   5.554  13.588 -0.4733 -0.4303  0.8369
   7623SM   H5S 9999   4.647   5.587  13.677 -0.6200 -1.8967  1.5066
   7623SM   C6S10000   4.676   5.546  13.460 -0.8618 -0.4902  0.1486
   7623SM   H6S10001   4.774   5.499  13.481 -0.3194  0.1667 -0.8179
   7623SM   H6T10002   4.695   5.650  13.426 -0.6898 -0.4130  0.4747
   7623SM   C7S10003   4.612   5.477  13.336 -0.3569 -0.2972 -0.3333
   7623SM   H7S10004   4.507   5.510  13.321 -0.2049 -0.5644 -2.2033
   7623SM   H7T10005   4.611   5.367  13.353 -1.0910 -0.6273 -2.2703
   7623SM   C8S10006   4.699   5.508  13.209  0.1994 -0.2860 -0.5641
   7623SM   H8S10007   4.801   5.472  13.236 -0.3037 -0.9543  0.4740
   7623SM   H8T10008   4.714   5.616  13.189  0.4726 -0.3979 -0.9792
   7623SM   C9S10009   4.643   5.445  13.077 -0.5165 -0.3929 -0.2636
   7623SM   H9S10010   4.537   5.464  13.051 -0.9795 -2.9591 -0.4464
   7623SM   H9T10011   4.659   5.335  13.082  0.1401 -0.2994 -0.2360
   7623SM  C10S10012   4.719   5.488  12.953  0.0777 -0.2219 -0.1882
   7623SM  H10S10013   4.826   5.462  12.963 -0.2483 -1.1730  1.0014
   7623SM  H10T10014   4.707   5.598  12.937 -0.5364 -0.3676 -0.7938
   7623SM  C11S10015   4.668   5.412  12.821 -0.1054 -0.1691 -0.5640
   7623SM  H11S10016   4.560   5.438  12.809 -0.8426 -0.6147  3.6477
   7623SM  H11T10017   4.666   5.303  12.840  1.2198 -0.0826  0.1502
   7623SM  C12S10018   4.745   5.438  12.694  0.2611  0.1102 -0.4923
   7623SM  H12S10019   4.839   5.379  12.706 -1.3334 -2.2714  1.3629
   7623SM  H12T10020   4.771   5.546  12.694 -0.7552  0.3645 -1.0342
   7623SM  C13S10021   4.682   5.394  12.559 -0.8336  0.4470 -0.6821
   7623SM  H13S10022   4.588   5.451  12.545  0.0969  1.6995 -2.2545
   7623SM  H13T10023   4.665   5.284  12.563  0.8871  0.1633 -0.1535
   7623SM  C14S10024   4.773   5.418  12.434  0.2378 -0.0286  0.1418
   7623SM  H14S10025   4.858   5.349  12.450 -0.5136 -0.5310  2.4485
   7623SM  H14T10026   4.794   5.527  12.436 -0.8851  0.2418 -1.0440
   7623SM  C15S10027   4.701   5.363  12.306  0.0670  0.1564 -0.8128
   7623SM  H15S10028   4.614   5.422  12.269 -1.1182 -0.6837  0.5328
   7623SM  H15T10029   4.662   5.261  12.325  1.7517 -0.0766  1.8668
   7623SM  C16S10030   4.806   5.354  12.191 -0.2114 -0.6611  0.2948
   7623SM  H16S10031   4.891   5.300  12.238 -2.7473 -2.0291  3.7068
   7623SM  H16T10032   4.843   5.457  12.172  2.2785 -1.4516  0.4090
   7623SM  C17S10033   4.756   5.294  12.061  0.3391  0.5539  0.0807
   7623SM  H17S10034   4.662   5.348  12.038 -0.4220 -0.7782 -0.0540
   7623SM  H17T10035   4.726   5.189  12.082  1.3861 -0.0242 -1.2025
   7623SM  C18S10036   4.848   5.287  11.940 -0.0757  0.1696 -0.3633
   7623SM  H18S10037   4.901   5.383  11.931  0.2111 -0.0451 -1.0077
   7623SM  H18T10038   4.779   5.268  11.854 -0.5345 -1.0500  0.2436
   7623SM  H18U10039   4.910   5.196  11.954  0.1729  0.2491 -0.9066
   7623SM   C1F10040   4.108   5.743  13.609 -0.2741 -0.5971  0.3442
   7623SM    OF10041   4.171   5.850  13.620 -0.1812 -0.2597 -0.3012
   7623SM   C2F10042   3.971   5.735  13.552  0.3723 -0.3563  0.1731
   7623SM   H2F10043   3.907   5.820  13.585  0.5946 -0.5470  1.1239
   7623SM   H2G10044   3.918   5.644  13.585  1.4826 -1.5703 -1.2563
   7623SM   C3F10045   3.977   5.729  13.397 -0.1563  0.0533  0.1801
   7623SM   H3F10046   4.013   5.630  13.364 -1.1100 -0.7298  1.4057
   7623SM   H3G10047   4.052   5.805  13.367  2.0831 -1.6011  1.2954
   7623SM   C4F10048   3.842   5.744  13.326  0.3758  1.0303  0.6161
   7623SM   H4F10049   3.799   5.842  13.355 -0.1102  0.4977  1.7631
   7623SM   H4G10050   3.779   5.655  13.346  0.8607  0.4675 -0.2936
   7623SM   C5F10051   3.856   5.765  13.176  0.2539  0.2917 -0.2346
   7623SM   H5F10052   3.920   5.854  13.159 -0.4426  0.6444 -1.0919
   7623SM   H5G10053   3.755   5.773  13.131 -1.1908 -2.0972  2.2858
   7623SM   C6F10054   3.918   5.649  13.096  0.1966  0.4667  0.0150
   7623SM   H6F10055   3.843   5.567  13.107 -0.3757  1.0219  0.2780
   7623SM   H6G10056   4.015   5.619  13.142  0.9554  0.8259 -1.3276
   7623SM   C7F10057   3.955   5.687  12.954 -0.1506 -0.3718  0.1447
   7623SM   H7F10058   4.002   5.603  12.899  1.0089 -0.6213  1.4803
   7623SM   H7G10059   4.033   5.766  12.957 -1.5115  1.1083 -1.1869
   7623SM   C8F10060   3.841   5.764  12.879  0.0461 -0.2206 -0.0414
   7623SM   H8F10061   3.834   5.860  12.933  1.2026  0.2455 -0.6784
   7623SM   H8G10062   3.751   5.701  12.895  0.4886 -0.5915  1.0611
   7623SM   C9F10063   3.860   5.795  12.732  0.1077  0.7043  1.6888
   7623SM   H9F10064   3.945   5.865  12.719  0.9314 -0.6636 -1.0910
   7623SM   H9G10065   3.768   5.838  12.686 -0.3741  0.8922  2.7899
   7623SM  C10F10066   3.913   5.672  12.653  0.4517  0.4675  0.2633
   7623SM  H10F10067   3.845   5.585  12.662 -1.4712  1.7790 -0.9713
   7623SM  H10G10068   4.013   5.649  12.697  0.2966  1.6831  1.3094
   7623SM  C11F10069   3.930   5.703  12.500  0.0198  0.0291 -0.1367
   7623SM  H11F10070   3.982   5.801  12.495  2.2964 -1.0522  0.7981
   7623SM  H11G10071   3.829   5.720  12.456  0.0501  1.5219  0.3127
   7623SM  C12F10072   4.014   5.601  12.428  0.1238 -0.3781  0.3871
   7623SM  H12F10073   3.968   5.502  12.452  0.5486 -0.8894 -0.8385
   7623SM  H12G10074   4.121   5.610  12.457  0.2919  0.5986 -0.4942
   7623SM  C13F10075   4.017   5.627  12.275 -0.2549 -1.0340 -0.2180
   7623SM  H13F10076   4.064   5.725  12.249 -0.4071 -1.2600 -1.3859
   7623SM  H13G10077   3.915   5.625  12.232 -0.1267 -0.3675 -0.5667
   7623SM  C14F10078   4.102   5.525  12.201  0.3561 -0.0679  0.0208
   7623SM  H14F10079   4.052   5.426  12.209 -2.4788  1.1213 -1.5096
   7623SM  H14G10080   4.205   5.538  12.239 -0.0829  2.2693  0.5101
   7623SM  C15F10081   4.097   5.555  12.050  0.1095  0.0257  0.7241
   7623SM  H15F10082   4.148   5.652  12.035  1.4593 -0.7062  0.4264
   7623SM  H15G10083   3.997   5.569  12.004  1.5265  1.7475 -2.1101
   7623SM  C16F10084   4.174   5.446  11.977 -0.3823 -0.2789  1.0892
   7623SM  H16F10085   4.126   5.346  11.980 -2.5415  0.7038  1.3972
   7623SM  H16G10086   4.275   5.447  12.024 -0.8722 -1.0585  2.1972
   7623SM  C17F10087   4.191   5.477  11.821 -0.1210 -0.1102 -0.5834
   7623SM  H17F10088   4.093   5.484  11.768  0.2079  1.6066 -1.0403
   7623SM  H17G10089   4.255   5.397  11.779 -0.8674 -1.9651  1.6305
   7623SM  C18F10090   4.250   5.618  11.787 -0.2255 -0.3366  0.1791
   7623SM  H18F10091   4.322   5.647  11.866 -1.2632  1.1840  0.5939
   7623SM  H18G10092   4.162   5.685  11.783 -0.2418 -0.3679 -0.0020
   7623SM  C19F10093   4.321   5.624  11.657 -0.3710  0.1303  0.3660
   7623SM  H19F10094   4.325   5.726  11.613 -2.8494  0.9796  1.8953
   7623SM  H19G10095   4.267   5.557  11.586 -0.4912 -1.7764  2.1609
   7623SM  C20F10096   4.467   5.567  11.659 -0.4048  0.3625  0.4411
   7623SM  H20F10097   4.455   5.458  11.675 -0.5750  0.2282 -0.5784
   7623SM  H20G10098   4.522   5.618  11.742  0.7607  0.5248 -0.4069
   7623SM  C21F10099   4.546   5.600  11.531 -0.2381 -0.0334 -0.0713
   7623SM  H21F10100   4.557   5.710  11.523 -1.5916  0.0408 -1.1885
   7623SM  H21G10101   4.498   5.552  11.444  1.4324 -0.7548 -0.6509
   7623SM  C22F10102   4.681   5.534  11.522 -0.1536  0.5937 -0.3828
   7623SM  H22F10103   4.706   5.539  11.414  0.9501 -1.3369 -0.2783
   7623SM  H22G10104   4.679   5.424  11.540 -0.8481 -0.4240 -5.4089
   7623SM  C23F10105   4.787   5.605  11.602 -0.6892 -0.3714  0.0099
   7623SM  H23F10106   4.773   5.713  11.579  1.3985 -0.4305 -1.9694
   7623SM  H23G10107   4.892   5.579  11.574 -0.4958  0.6337 -0.2135
   7623SM  H23H10108   4.781   5.595  11.712  0.6877  0.0194  0.1419
   7723SM     N10109   3.946   3.204  14.347 -0.2169 -0.7455 -0.3154
   7723SM   C1510110   3.924   3.089  14.443  0.7976 -0.7068  0.5458
   7723SM  H15A10111   3.834   3.112  14.500  2.0914  1.7365  1.7794
   7723SM  H15B10112   4.010   3.071  14.507  0.1998  0.1679  1.6347
   7723SM  H15C10113   3.900   3.001  14.386 -0.6353  0.1547 -0.2341
   7723SM   C1410114   3.823   3.230  14.266  0.6679  0.3442  0.6628
   7723SM  H14A10115   3.744   3.286  14.314  0.6488  0.6980  0.2172
   7723SM  H14B10116   3.788   3.132  14.236 -2.4681  0.9919  1.7741
   7723SM  H14C10117   3.858   3.281  14.178  0.5501 -0.8899 -0.1215
   7723SM   C1310118   3.984   3.324  14.433  0.7109 -0.1730  0.9106
   7723SM  H13A10119   4.055   3.299  14.510  1.7506  0.5318  0.2055
   7723SM  H13B10120   3.892   3.357  14.480 -0.1584  0.5285 -1.1440
   7723SM  H13C10121   4.027   3.397  14.366  0.6012 -1.3318 -0.4742
   7723SM   C1210122   4.064   3.172  14.254  0.4932 -0.6009 -0.3399
   7723SM  H12A10123   4.154   3.138  14.302  1.5536  1.3358 -0.8493
   7723SM  H12B10124   4.090   3.259  14.196 -0.3037 -0.9327 -1.2241
   7723SM   C1110125   4.027   3.063  14.151  0.2957 -0.2862  0.8226
   7723SM  H11A10126   4.114   3.048  14.084 -1.0978 -0.9361 -0.8971
   7723SM  H11B10127   3.958   3.117  14.083  2.2279  1.7969  0.4188
   7723SM     P10128   3.876   2.856  14.131 -0.2388 -0.4099 -0.4322
   7723SM   O1310129   3.881   2.722  14.195 -0.6309  0.3236 -0.3058
   7723SM   O1410130   3.752   2.929  14.146  0.4627 -0.3303 -0.0760
   7723SM   O1110131   3.927   2.844  13.983  0.0637  0.3371  0.5250
   7723SM   O1210132   3.979   2.939  14.207  0.1676 -0.4294  0.2195
   7723SM   C1S10133   3.833   2.779  13.886 -0.5255 -0.8422 -0.0889
   7723SM   H1S10134   3.728   2.801  13.918  0.3835  1.3678  1.6370
   7723SM   H1T10135   3.845   2.668  13.891  1.6938 -0.6642 -0.5107
   7723SM    NF10136   3.746   2.777  13.649  0.4796 -0.0122  0.4292
   7723SM   HNF10137   3.777   2.695  13.603 -2.5358 -1.2046  0.2648
   7723SM   C2S10138   3.848   2.832  13.738  0.5061 -0.0897 -0.1236
   7723SM   H2S10139   3.823   2.940  13.741 -3.0583 -0.7961  0.2868
   7723SM   C3S10140   3.992   2.816  13.690  0.3022 -0.2871  0.1367
   7723SM   H3S10141   4.005   2.706  13.703  1.9497 -0.1761 -0.3223
   7723SM    O310142   4.094   2.874  13.774 -0.4771  0.0028 -0.3505
   7723SM   HO310143   4.058   2.857  13.862  0.0856 -0.5474 -0.2222
   7723SM   C4S10144   4.005   2.851  13.546  0.2173  0.0587  0.2656
   7723SM   H4S10145   3.971   2.769  13.481  1.0779 -0.3526  0.3324
   7723SM   C5S10146   4.043   2.971  13.494  0.2524 -0.2667  0.1166
   7723SM   H5S10147   4.052   3.058  13.561 -1.6738 -0.0882  0.1882
   7723SM   C6S10148   4.058   3.008  13.346  0.6245  0.2077  0.5345
   7723SM   H6S10149   4.167   3.006  13.327  0.2257 -1.3044 -2.0533
   7723SM   H6T10150   4.013   3.107  13.320 -1.1527 -0.8235 -0.5426
   7723SM   C7S10151   3.980   2.915  13.248 -0.6902  0.7813 -0.0374
   7723SM   H7S10152   3.870   2.921  13.265 -0.7674 -2.3600  1.4432
   7723SM   H7T10153   4.005   2.807  13.264 -1.7438  0.4019 -0.8445
   7723SM   C8S10154   3.999   2.961  13.101 -0.6318 -0.1735  0.4383
   7723SM   H8S10155   4.108   2.980  13.093 -0.4817 -0.0293  2.3852
   7723SM   H8T10156   3.948   3.060  13.104 -1.5364 -0.6537  1.2974
   7723SM   C9S10157   3.941   2.881  12.988 -0.5319 -0.2618  0.0982
   7723SM   H9S10158   3.954   2.772  12.999 -1.0176 -0.4092 -0.6812
   7723SM   H9T10159   4.000   2.907  12.897  0.6140 -3.0297 -0.0576
   7723SM  C10S10160   3.792   2.895  12.960 -0.5961 -0.7682  0.9164
   7723SM  H10S10161   3.748   2.997  12.955 -0.8006 -0.8024  1.7671
   7723SM  H10T10162   3.744   2.831  13.037  0.7090 -1.5850  1.0840
   7723SM  C11S10163   3.750   2.820  12.820  0.6601 -0.1336  0.0032
   7723SM  H11S10164   3.641   2.835  12.810  0.4059 -0.8387  1.5150
   7723SM  H11T10165   3.772   2.711  12.818  2.4507  0.1328  2.1476
   7723SM  C12S10166   3.808   2.889  12.699  0.5483 -0.1984 -0.1687
   7723SM  H12S10167   3.916   2.863  12.701  1.6669  3.9049  1.5469
   7723SM  H12T10168   3.801   2.999  12.708  0.8237 -0.3199  2.5999
   7723SM  C13S10169   3.739   2.840  12.570  0.0734  0.3357 -0.1134
   7723SM  H13S10170   3.639   2.887  12.557  0.6835  1.2899 -1.4939
   7723SM  H13T10171   3.725   2.730  12.565 -1.5769  0.3477  2.3719
   7723SM  C14S10172   3.814   2.894  12.442 -0.2106 -0.3942  0.0341
   7723SM  H14S10173   3.921   2.864  12.446 -0.1747 -0.3372 -0.3913
   7723SM  H14T10174   3.807   3.004  12.454  0.2480 -0.4071  0.4238
   7723SM  C15S10175   3.752   2.860  12.302 -0.1723 -0.2824 -0.4673
   7723SM  H15S10176   3.647   2.895  12.297 -0.0484  0.0343 -0.9798
   7723SM  H15T10177   3.758   2.751  12.283 -2.0407 -0.7314  1.2140
   7723SM  C16S10178   3.817   2.933  12.178  0.6944  0.1804  0.2476
   7723SM  H16S10179   3.927   2.923  12.176  0.5756 -1.4107  0.3475
   7723SM  H16T10180   3.797   3.042  12.194  0.5029  0.0047  1.3389
   7723SM  C17S10181   3.765   2.876  12.052  0.2931 -0.4570  0.1390
   7723SM  H17S10182   3.660   2.911  12.043  1.1735  3.3001  2.4354
   7723SM  H17T10183   3.764   2.765  12.059  2.5019 -0.5930 -0.7593
   7723SM  C18S10184   3.838   2.923  11.927 -0.4550  0.7854  0.8253
   7723SM  H18S10185   3.944   2.894  11.935 -0.4535  0.6155  0.1878
   7723SM  H18T10186   3.823   3.032  11.907  0.4725  0.7966  0.1634
   7723SM  H18U10187   3.799   2.863  11.842  0.7066  1.4519 -0.2044
   7723SM   C1F10188   3.614   2.808  13.660  0.2201  0.3847  0.1106
   7723SM    OF10189   3.578   2.888  13.749 -0.1864 -0.0366  0.2415
   7723SM   C2F10190   3.509   2.743  13.574  0.1175 -0.1818 -0.1046
   7723SM   H2F10191   3.451   2.681  13.647  0.2609  0.2707  0.3992
   7723SM   H2G10192   3.550   2.665  13.507 -1.3577  0.4209 -1.7938
   7723SM   C3F10193   3.415   2.849  13.502  0.5287 -0.2313  0.3050
   7723SM   H3F10194   3.363   2.923  13.566 -2.8707 -1.3776 -0.8984
   7723SM   H3G10195   3.328   2.795  13.460  0.9975 -0.7007 -0.0860
   7723SM   C4F10196   3.495   2.920  13.392 -0.0902 -0.0187 -0.4165
   7723SM   H4F10197   3.586   2.956  13.443  0.6085 -1.3366 -0.6814
   7723SM   H4G10198   3.435   3.007  13.356  0.8667  1.2707  1.0064
   7723SM   C5F10199   3.537   2.830  13.274  0.1358 -0.5926 -0.3023
   7723SM   H5F10200   3.602   2.742  13.294  2.0639  0.6903 -0.5896
   7723SM   H5G10201   3.597   2.895  13.207 -0.2042 -0.4284 -0.4488
   7723SM   C6F10202   3.409   2.795  13.202  0.0282 -0.1928  0.8520
   7723SM   H6F10203   3.353   2.891  13.210 -0.1171 -0.2175  0.2491
   7723SM   H6G10204   3.349   2.718  13.254 -0.7428  0.3546  0.7933
   7723SM   C7F10205   3.435   2.766  13.050 -0.1088 -0.3082  0.5006
   7723SM   H7F10206   3.415   2.663  13.013  1.9644  0.6248 -3.7311
   7723SM   H7G10207   3.544   2.782  13.037  0.0098 -1.2723  0.2188
   7723SM   C8F10208   3.358   2.860  12.956  0.0613  0.6338  0.1612
   7723SM   H8F10209   3.252   2.860  12.987 -0.4600  1.0244 -1.5076
   7723SM   H8G10210   3.364   2.811  12.856  2.5655  0.9256  0.1052
   7723SM   C9F10211   3.407   3.003  12.951  0.2846 -0.1574  0.4320
   7723SM   H9F10212   3.516   2.985  12.935  0.6040  0.5438  1.6691
   7723SM   H9G10213   3.388   3.054  13.048 -0.0761 -0.1080  0.3341
   7723SM  C10F10214   3.359   3.082  12.830  0.6325  0.1231 -0.1217
   7723SM  H10F10215   3.408   3.182  12.839  0.7943 -0.1503  3.1896
   7723SM  H10G10216   3.252   3.110  12.827  0.4345 -0.1212  2.5503
   7723SM  C11F10217   3.397   3.020  12.693 -0.1831 -0.6119 -0.3569
   7723SM  H11F10218   3.358   2.916  12.680  0.3516 -0.8760  0.1142
   7723SM  H11G10219   3.507   3.015  12.699 -0.1034  1.8606  1.5769
   7723SM  C12F10220   3.347   3.104  12.576 -0.1321  0.0222 -0.8405
   7723SM  H12F10221   3.370   3.213  12.584  0.6827 -0.1394 -0.9309
   7723SM  H12G10222   3.236   3.103  12.584 -0.2659 -2.6920 -2.0079
   7723SM  C13F10223   3.384   3.039  12.442  0.2497  0.5994  0.1470
   7723SM  H13F10224   3.386   2.929  12.458 -0.6788  0.6577  0.6938
   7723SM  H13G10225   3.491   3.063  12.423  0.4514 -1.1031 -1.0377
   7723SM  C14F10226   3.292   3.080  12.331 -0.7645  0.0751 -0.0119
   7723SM  H14F10227   3.259   3.184  12.356 -0.2980  0.2601 -0.1468
   7723SM  H14G10228   3.210   3.005  12.329  1.1733 -2.2299  1.4468
   7723SM  C15F10229   3.366   3.078  12.188  0.2708 -0.0674 -0.4213
   7723SM  H15F10230   3.413   2.977  12.189 -0.4470 -0.4278  1.8558
   7723SM  H15G10231   3.443   3.158  12.186  0.4425 -0.2311 -0.3310
   7723SM  C16F10232   3.267   3.091  12.071  0.4717  0.6953  0.3065
   7723SM  H16F10233   3.217   3.189  12.090 -2.8962 -0.8940  0.2816
   7723SM  H16G10234   3.194   3.008  12.073  0.9308  0.2065 -1.4786
   7723SM  C17F10235   3.328   3.076  11.927 -0.7816 -0.3009  0.0780
   7723SM  H17F10236   3.244   3.071  11.854 -0.9751 -0.5007  0.3142
   7723SM  H17G10237   3.393   2.986  11.927 -2.2574 -1.4339 -1.3971
   7723SM  C18F10238   3.419   3.194  11.889 -0.0340 -0.8554  0.4363
   7723SM  H18F10239   3.487   3.211  11.975  1.6957 -4.6166 -0.0022
   7723SM  H18G10240   3.353   3.283  11.877 -0.7728 -1.7435 -3.4446
   7723SM  C19F10241   3.510   3.181  11.767 -0.3193 -0.5816  0.3089
   7723SM  H19F10242   3.528   3.072  11.753 -1.5551 -1.0840  2.2168
   7723SM  H19G10243   3.600   3.243  11.786  1.3218 -2.3719 -1.2592
   7723SM  C20F10244   3.456   3.250  11.639  0.7136  0.0638 -1.1518
   7723SM  H20F10245   3.527   3.251  11.553 -0.0588  0.2148 -1.8003
   7723SM  H20G10246   3.431   3.358  11.650 -0.5519 -0.4067  1.2108
   7723SM  C21F10247   3.327   3.188  11.596  0.0758  0.9755  0.2010
   7723SM  H21F10248   3.245   3.195  11.671 -0.9566 -1.4880 -0.6205
   7723SM  H21G10249   3.340   3.078  11.588  2.2590  1.1072  1.3980
   7723SM  C22F10250   3.279   3.245  11.461  0.1824  0.0276  0.0164
   7723SM  H22F10251   3.364   3.250  11.389  1.2671  1.5332  1.3390
   7723SM  H22G10252   3.242   3.349  11.475 -1.4877 -0.4746 -0.4233
   7723SM  C23F10253   3.163   3.160  11.401 -0.3968 -0.2183 -0.1486
   7723SM  H23F10254   3.074   3.168  11.466  0.8336 -0.3039  1.6073
   7723SM  H23G10255   3.194   3.056  11.379  1.6874 -0.0356  1.6983
   7723SM  H23H10256   3.139   3.213  11.306 -1.2474 -0.2707  0.0325
   7823SM     N10257   4.655   1.726  13.752 -0.4926  0.0425  0.2031
   7823SM   C1510258   4.777   1.761  13.675  0.1647  0.4488 -0.1933
   7823SM  H15A10259   4.855   1.798  13.740 -0.0967  0.1484  0.3054
   7823SM  H15B10260   4.742   1.840  13.611  0.0487  0.3004 -0.3134
   7823SM  H15C10261   4.823   1.677  13.624  0.5700  1.0895 -0.9019
   7823SM   C1410262   4.698   1.618  13.841 -0.3446 -0.8914 -0.4362
   7823SM  H14A10263   4.773   1.656  13.908  0.2715 -0.4036 -1.3721
   7823SM  H14B10264   4.741   1.538  13.783 -2.4848 -1.0664 -1.8926
   7823SM  H14C10265   4.615   1.579  13.898  0.8663  0.4192  2.4149
   7823SM   C1310266   4.613   1.843  13.828 -0.2513 -0.2677 -0.1275
   7823SM  H13A10267   4.617   1.931  13.765 -2.5232 -0.1013 -0.1299
   7823SM  H13B10268   4.664   1.866  13.920 -0.6692  0.8636 -0.1535
   7823SM  H13C10269   4.508   1.834  13.852  0.3075 -1.4393  2.0721
   7823SM   C1210270   4.549   1.681  13.647 -0.0507  0.4452 -0.9095
   7823SM  H12A10271   4.471   1.639  13.708  0.5045  0.3699 -0.2321
   7823SM  H12B10272   4.582   1.592  13.594  1.6758 -0.7838  1.9503
   7823SM   C1110273   4.481   1.791  13.562  0.9137  0.0577  0.6233
   7823SM  H11A10274   4.452   1.883  13.618  1.3414 -0.5341  1.8549
   7823SM  H11B10275   4.386   1.747  13.524  0.1706  1.1114  1.2037
   7823SM     P10276   4.587   1.743  13.328 -0.0885 -0.1714  0.0139
   7823SM   O1310277   4.725   1.697  13.320 -0.2780 -0.2374  0.2380
   7823SM   O1410278   4.482   1.635  13.331 -0.1918 -0.6980 -0.4210
   7823SM   O1110279   4.547   1.837  13.208  0.1411  0.7123 -0.0439
   7823SM   O1210280   4.576   1.832  13.461  0.5630  0.1528  0.2749
   7823SM   C1S10281   4.560   1.778  13.076 -0.0204 -0.1404  0.8218
   7823SM   H1S10282   4.478   1.703  13.066 -1.6285  1.2555  2.6247
   7823SM   H1T10283   4.655   1.723  13.064  0.5534  1.3585 -2.5402
   7823SM    NF10284   4.506   1.827  12.849  0.1658 -0.6989  0.2974
   7823SM   HNF10285   4.579   1.814  12.783 -1.7722  1.0895 -2.4376
   7823SM   C2S10286   4.549   1.883  12.971  0.6595  0.6900  0.4506
   7823SM   H2S10287   4.471   1.959  12.996  1.0768  2.6046 -3.3891
   7823SM   C3S10288   4.671   1.982  12.965  0.2936 -0.2463  1.6743
   7823SM   H3S10289   4.749   1.923  12.912  0.4010  2.3498 -1.3870
   7823SM    O310290   4.713   2.028  13.086 -0.4020 -0.4798 -0.3087
   7823SM   HO310291   4.663   1.975  13.149 -3.5892  0.0846 -2.1821
   7823SM   C4S10292   4.639   2.097  12.873 -0.0905 -0.1743 -0.1963
   7823SM   H4S10293   4.681   2.092  12.772 -0.4735  1.0060 -0.4304
   7823SM   C5S10294   4.556   2.204  12.905 -0.9146  0.3542 -0.4861
   7823SM   H5S10295   4.504   2.202  13.002 -3.1907 -0.0044 -1.6461
   7823SM   C6S10296   4.509   2.313  12.810  0.5693  0.0645 -0.6121
   7823SM   H6S10297   4.541   2.414  12.843 -1.2210  1.1503 -1.9721
   7823SM   H6T10298   4.399   2.322  12.797  0.6804 -0.1044 -1.7863
   7823SM   C7S10299   4.561   2.288  12.674 -1.2814  0.5108 -0.1702
   7823SM   H7S10300   4.545   2.184  12.640  0.0345  0.4227 -0.5815
   7823SM   H7T10301   4.671   2.303  12.666 -1.2981  2.0753  1.8239
   7823SM   C8S10302   4.504   2.377  12.570  0.3974 -0.2054 -0.1189
   7823SM   H8S10303   4.540   2.480  12.592  1.6172  0.0304 -2.8040
   7823SM   H8T10304   4.395   2.363  12.555  0.6500 -2.1049 -0.4032
   7823SM   C9S10305   4.566   2.336  12.431  0.3637  0.2628  0.3127
   7823SM   H9S10306   4.517   2.238  12.415  2.8392 -0.7786 -1.5147
   7823SM   H9T10307   4.676   2.326  12.430  0.5699  2.0165 -1.1912
   7823SM  C10S10308   4.518   2.432  12.320 -0.5359 -0.4391 -0.2460
   7823SM  H10S10309   4.555   2.531  12.355 -0.7944 -0.6687  0.7033
   7823SM  H10T10310   4.408   2.428  12.303 -0.6728 -0.3460  0.5678
   7823SM  C11S10311   4.568   2.403  12.182  0.3554  0.7407  0.8033
   7823SM  H11S10312   4.523   2.304  12.158 -1.3261  1.7847 -0.5546
   7823SM  H11T10313   4.679   2.401  12.182  0.3949 -1.3842 -1.0378
   7823SM  C12S10314   4.509   2.499  12.075 -0.2497  0.2087 -0.6937
   7823SM  H12S10315   4.538   2.594  12.125 -0.7133 -0.2328  0.4471
   7823SM  H12T10316   4.400   2.484  12.065  0.0993 -1.1814 -3.1840
   7823SM  C13S10317   4.571   2.502  11.934  0.0438  0.0867  0.4817
   7823SM  H13S10318   4.679   2.529  11.930 -0.4296  1.9870 -2.3381
   7823SM  H13T10319   4.526   2.586  11.877 -0.7216 -0.8494 -0.3170
   7823SM  C14S10320   4.572   2.371  11.855  0.1366 -0.1002  0.7259
   7823SM  H14S10321   4.552   2.285  11.924  1.1872  1.0286  2.4926
   7823SM  H14T10322   4.673   2.350  11.815 -0.4305 -1.1644 -0.2270
   7823SM  C15S10323   4.467   2.374  11.735 -0.4465 -0.2619  0.7264
   7823SM  H15S10324   4.490   2.457  11.665 -2.1244 -1.1768 -0.9907
   7823SM  H15T10325   4.377   2.414  11.787 -0.6371  0.1084  0.1126
   7823SM  C16S10326   4.450   2.243  11.667  0.6854  0.2075 -0.2115
   7823SM  H16S10327   4.380   2.181  11.726 -0.3651  0.4054 -1.2016
   7823SM  H16T10328   4.543   2.184  11.649 -1.3647 -3.0068 -1.0396
   7823SM  C17S10329   4.392   2.257  11.528 -0.4361  0.7961  0.0157
   7823SM  H17S10330   4.455   2.297  11.446 -0.3406  1.7020  0.5224
   7823SM  H17T10331   4.298   2.315  11.539 -0.2269  1.0262  0.5959
   7823SM  C18S10332   4.335   2.123  11.478 -0.3749 -0.2275 -0.3253
   7823SM  H18S10333   4.272   2.144  11.389 -2.6131  1.8700  1.5974
   7823SM  H18T10334   4.270   2.087  11.560 -0.4207 -0.7538 -0.5934
   7823SM  H18U10335   4.418   2.051  11.459  0.6789  0.5150  1.2413
   7823SM   C1F10336   4.384   1.779  12.816 -0.1336 -1.3033 -0.4191
   7823SM    OF10337   4.289   1.819  12.888  0.2454 -0.7264 -0.3155
   7823SM   C2F10338   4.376   1.710  12.687 -0.7877 -0.4052  0.3859
   7823SM   H2F10339   4.466   1.646  12.678  1.6714  2.8474  0.2870
   7823SM   H2G10340   4.371   1.791  12.611  1.5615 -2.3404 -2.0091
   7823SM   C3F10341   4.249   1.623  12.680 -0.2863 -0.1442 -0.5249
   7823SM   H3F10342   4.164   1.692  12.699  0.2784  0.2626  0.6398
   7823SM   H3G10343   4.244   1.532  12.744 -1.8041 -0.6291 -1.2750
   7823SM   C4F10344   4.218   1.566  12.536 -0.7312  0.1312 -0.2341
   7823SM   H4F10345   4.282   1.475  12.532  1.5915  1.7055 -1.1995
   7823SM   H4G10346   4.253   1.641  12.462 -1.5207  0.5219 -0.2175
   7823SM   C5F10347   4.067   1.552  12.523 -0.3725 -0.2651 -0.3251
   7823SM   H5F10348   4.018   1.651  12.509 -0.6563 -0.3487  0.0455
   7823SM   H5G10349   4.029   1.504  12.616  0.2378 -2.8290 -1.3072
   7823SM   C6F10350   4.040   1.460  12.407 -0.0899  0.4078 -0.2463
   7823SM   H6F10351   3.933   1.436  12.387 -0.2208  0.1158  0.7805
   7823SM   H6G10352   4.083   1.358  12.418  0.5034  0.5049 -1.4602
   7823SM   C7F10353   4.093   1.530  12.284  0.4600 -1.1505  0.5447
   7823SM   H7F10354   4.203   1.519  12.275  0.5488  0.0681 -0.1486
   7823SM   H7G10355   4.077   1.639  12.299 -0.4795 -1.3354  0.9781
   7823SM   C8F10356   4.025   1.498  12.149 -0.0082 -0.2128  0.0747
   7823SM   H8F10357   3.914   1.510  12.151 -0.2516 -2.1578  1.6649
   7823SM   H8G10358   4.027   1.388  12.130 -0.7989 -0.4807  1.4228
   7823SM   C9F10359   4.081   1.588  12.038 -0.2025  0.6267 -0.3391
   7823SM   H9F10360   4.181   1.546  12.015 -1.1243 -1.3727 -0.8515
   7823SM   H9G10361   4.098   1.691  12.077 -1.8915  0.9812 -0.4812
   7823SM  C10F10362   4.003   1.594  11.907  0.4224  0.1112 -0.1035
   7823SM  H10F10363   4.048   1.660  11.830 -1.4309 -0.1344 -1.4775
   7823SM  H10G10364   3.896   1.620  11.924 -0.5740 -1.0720 -3.6552
   7823SM  C11F10365   4.020   1.460  11.836 -0.4550  0.0177 -0.1484
   7823SM  H11F10366   3.923   1.405  11.839 -1.0334  1.0602  0.6273
   7823SM  H11G10367   4.080   1.388  11.895  2.2477  0.3466 -2.2745
   7823SM  C12F10368   4.074   1.459  11.695 -0.3877 -0.5127 -0.1507
   7823SM  H12F10369   4.004   1.514  11.629  0.1917  0.0940 -0.2637
   7823SM  H12G10370   4.075   1.356  11.652  0.2787 -0.7375  0.3798
   7823SM  C13F10371   4.212   1.526  11.683  0.3829  0.2204  0.1819
   7823SM  H13F10372   4.278   1.458  11.741  0.5332 -1.5307 -1.9120
   7823SM  H13G10373   4.213   1.629  11.725 -0.6416  0.5529 -0.5485
   7823SM  C14F10374   4.264   1.526  11.541  0.5646 -0.1735  0.1608
   7823SM  H14F10375   4.365   1.570  11.554  0.6318 -0.5991  1.1597
   7823SM  H14G10376   4.206   1.594  11.475 -0.7524 -2.9764 -1.8060
   7823SM  C15F10377   4.263   1.385  11.480  0.1763  1.1279  0.8483
   7823SM  H15F10378   4.162   1.341  11.473  0.3253  0.9971 -0.9190
   7823SM  H15G10379   4.328   1.318  11.541 -0.2640  1.0375  1.2243
   7823SM  C16F10380   4.341   1.390  11.344  0.5447 -1.0378  0.1463
   7823SM  H16F10381   4.451   1.386  11.357  0.6778  0.6322 -0.1784
   7823SM  H16G10382   4.323   1.493  11.306 -0.1207 -0.4413  1.9716
   7823SM  C17F10383   4.300   1.277  11.247  0.4470  0.7096  0.3590
   7823SM  H17F10384   4.189   1.286  11.246  0.5594  2.3899  0.2637
   7823SM  H17G10385   4.323   1.175  11.285  0.0834  0.6191  0.3481
   7823SM  C18F10386   4.347   1.296  11.102 -0.4144 -0.1631  0.1793
   7823SM  H18F10387   4.342   1.403  11.073  0.4053 -0.6402 -1.9359
   7823SM  H18G10388   4.281   1.249  11.026 -2.1909  0.8740  1.0341
   7823SM  C19F10389   4.493   1.245  11.099 -0.0683  0.2263 -0.4335
   7823SM  H19F10390   4.508   1.149  11.153  1.0077  0.4970 -0.2286
   7823SM  H19G10391   4.557   1.318  11.153 -1.5824  0.4126  1.2138
   7823SM  C20F10392   4.553   1.233  10.962  0.0925  0.6164 -0.2721
   7823SM  H20F10393   4.604   1.328  10.933 -2.1063  1.0200 -3.4442
   7823SM  H20G10394   4.472   1.214  10.888  1.0517 -1.3242 -0.8778
   7823SM  C21F10395   4.660   1.123  10.964  0.3092  0.1220  0.6430
   7823SM  H21F10396   4.614   1.022  10.972 -1.3892  0.6548 -1.3058
   7823SM  H21G10397   4.734   1.145  11.044 -0.0760  0.9793  0.7787
   7823SM  C22F10398   4.735   1.125  10.826  0.0858 -0.1213 -0.0452
   7823SM  H22F10399   4.783   1.219  10.789  0.9975 -1.0364 -1.2989
   7823SM  H22G10400   4.652   1.105  10.755 -0.7378 -0.6319  1.0352
   7823SM  C23F10401   4.851   1.020  10.817 -0.8550 -0.4620 -0.5700
   7823SM  H23F10402   4.886   1.012  10.712  2.9846  2.1048  0.3145
   7823SM  H23G10403   4.815   0.922  10.855  1.4705 -1.0747  0.2003
   7823SM  H23H10404   4.935   1.045  10.885 -1.9026 -1.0820  1.0058
   7923SM     N10405   1.150   1.719  13.376 -0.2815 -0.3054  0.2574
   7923SM   C1510406   1.128   1.575  13.357  0.0796 -0.5064 -0.2455
   7923SM  H15A10407   1.170   1.539  13.264  2.7983 -3.0887  1.7910
   7923SM  H15B10408   1.026   1.540  13.370  0.2173 -0.6033  0.6174
   7923SM  H15C10409   1.192   1.530  13.431 -0.0751  1.7103  1.3402
   7923SM   C1410410   1.151   1.744  13.531 -0.0731  0.6923  0.9993
   7923SM  H14A10411   1.065   1.697  13.576  1.1394 -2.9530 -0.1137
   7923SM  H14B10412   1.154   1.851  13.549 -0.7734  0.8616  0.1634
   7923SM  H14C10413   1.239   1.695  13.571  1.5212  1.0383 -1.8124
   7923SM   C1310414   1.292   1.742  13.323  0.4824  0.7472  0.0537
   7923SM  H13A10415   1.311   1.693  13.229  1.4640 -0.4524  0.8398
   7923SM  H13B10416   1.355   1.683  13.388 -1.8380 -0.2764  1.4900
   7923SM  H13C10417   1.326   1.844  13.334  0.7823  0.4368  2.7879
   7923SM   C1210418   1.049   1.802  13.303 -0.6030 -0.0736  0.1660
   7923SM  H12A10419   0.945   1.783  13.326 -0.6539  1.8645  1.9616
   7923SM  H12B10420   1.048   1.789  13.196  0.8720 -2.9771  0.4249
   7923SM   C1110421   1.070   1.962  13.317 -0.3606  0.1622 -0.4451
   7923SM  H11A10422   0.987   1.999  13.254 -0.0557 -0.6718 -1.3672
   7923SM  H11B10423   1.166   1.986  13.267  0.1608  0.6347  0.7513
   7923SM     P10424   0.930   2.062  13.524 -0.0805  0.1005 -0.0845
   7923SM   O1310425   0.859   1.955  13.599  0.5462  0.6606 -0.4610
   7923SM   O1410426   0.988   2.170  13.603  0.4634  0.5361 -0.2819
   7923SM   O1110427   0.843   2.112  13.412 -0.6305 -0.2080 -0.2990
   7923SM   O1210428   1.057   1.999  13.455  0.3156  0.3786 -0.9876
   7923SM   C1S10429   0.856   2.238  13.350  0.6477 -0.1167 -0.2361
   7923SM   H1S10430   0.958   2.276  13.371  0.3910 -0.1616  1.1805
   7923SM   H1T10431   0.781   2.309  13.392  0.1214 -0.3631 -0.7488
   7923SM    NF10432   0.822   2.388  13.167  0.2822 -0.2945  0.4487
   7923SM   HNF10433   0.742   2.444  13.145 -0.4729 -0.2470  3.0305
   7923SM   C2S10434   0.810   2.250  13.205  0.7131 -0.3162  0.0019
   7923SM   H2S10435   0.888   2.199  13.144  0.6061 -1.3695  0.7326
   7923SM   C3S10436   0.676   2.195  13.191 -0.0263  0.1218 -0.4361
   7923SM   H3S10437   0.605   2.247  13.257 -1.6304 -1.7846 -0.5671
   7923SM    O310438   0.663   2.061  13.243 -0.0195  0.2517 -0.4172
   7923SM   HO310439   0.737   2.059  13.304  0.9555  0.1275 -1.5556
   7923SM   C4S10440   0.636   2.189  13.047  0.7182 -0.0097 -1.1251
   7923SM   H4S10441   0.723   2.179  12.981 -0.8794  0.9721 -3.5448
   7923SM   C5S10442   0.521   2.216  12.976  0.2964  0.3586 -0.6621
   7923SM   H5S10443   0.425   2.235  13.027  1.2080 -0.5864  1.5249
   7923SM   C6S10444   0.502   2.228  12.829  0.4753  0.0561  0.2228
   7923SM   H6S10445   0.412   2.177  12.789  1.6848 -2.8924  0.9929
   7923SM   H6T10446   0.571   2.168  12.766 -1.6845 -1.4591 -0.8455
   7923SM   C7S10447   0.491   2.374  12.784  0.4568  0.6002 -0.2007
   7923SM   H7S10448   0.569   2.447  12.814  0.7841  0.1905 -0.0502
   7923SM   H7T10449   0.392   2.416  12.813 -0.3933 -0.7230 -1.0449
   7923SM   C8S10450   0.491   2.386  12.630 -0.7602 -0.0567  0.3552
   7923SM   H8S10451   0.442   2.300  12.580  0.2692  0.1642 -1.1165
   7923SM   H8T10452   0.598   2.383  12.598 -0.5232 -0.5087  1.1615
   7923SM   C9S10453   0.419   2.503  12.565  0.4934  0.1989 -0.1893
   7923SM   H9S10454   0.472   2.592  12.607 -0.4146  0.7176 -0.1056
   7923SM   H9T10455   0.316   2.506  12.606  0.1073 -2.9592 -0.7112
   7923SM  C10S10456   0.422   2.487  12.415 -0.5747  0.2786 -0.5523
   7923SM  H10S10457   0.386   2.577  12.361  1.7158  0.6359 -1.5853
   7923SM  H10T10458   0.365   2.397  12.383 -0.0878 -1.0234  2.0098
   7923SM  C11S10459   0.555   2.470  12.352  0.2217 -0.2573  1.0314
   7923SM  H11S10460   0.620   2.390  12.395  1.7924  0.2398 -0.3036
   7923SM  H11T10461   0.617   2.562  12.354 -1.4263  0.9784 -0.7670
   7923SM  C12S10462   0.551   2.445  12.205  0.1372 -0.3530 -1.1791
   7923SM  H12S10463   0.484   2.357  12.189 -0.1349 -0.1643 -1.0930
   7923SM  H12T10464   0.656   2.419  12.180  1.4049 -1.1035  3.9114
   7923SM  C13S10465   0.522   2.565  12.118 -0.0204 -0.1955 -0.6245
   7923SM  H13S10466   0.578   2.655  12.151 -0.0783 -0.4156  0.0858
   7923SM  H13T10467   0.414   2.585  12.133 -0.1192 -0.7127 -0.6284
   7923SM  C14S10468   0.544   2.534  11.972 -0.3728 -0.4785 -0.0376
   7923SM  H14S10469   0.479   2.448  11.945 -1.1144 -0.3858  1.3908
   7923SM  H14T10470   0.650   2.514  11.943  0.1745  0.7546  1.0081
   7923SM  C15S10471   0.510   2.656  11.886 -0.0453  0.4342  0.7190
   7923SM  H15S10472   0.577   2.741  11.910  0.3450  0.6195 -0.9062
   7923SM  H15T10473   0.404   2.680  11.913 -0.7033 -2.4585  0.9734
   7923SM  C16S10474   0.520   2.634  11.733 -0.0794 -0.2873 -0.0101
   7923SM  H16S10475   0.440   2.563  11.703  0.6257 -1.3409  0.5357
   7923SM  H16T10476   0.624   2.600  11.713 -0.0164 -0.0218 -0.1356
   7923SM  C17S10477   0.492   2.772  11.661 -0.1023  0.4264  0.4336
   7923SM  H17S10478   0.553   2.854  11.704  0.2702  0.6149 -0.4332
   7923SM  H17T10479   0.384   2.797  11.672 -0.1579  0.6948 -0.5568
   7923SM  C18S10480   0.531   2.777  11.516 -0.2666 -0.1233  0.0404
   7923SM  H18S10481   0.446   2.753  11.449 -0.5590  0.9847  0.0023
   7923SM  H18T10482   0.617   2.708  11.499 -0.8252 -0.9594  0.5186
   7923SM  H18U10483   0.556   2.878  11.477  1.9686 -1.0845 -1.2313
   7923SM   C1F10484   0.935   2.445  13.137 -0.0290 -0.3690 -0.5900
   7923SM    OF10485   1.041   2.384  13.145  0.5199  0.2271  0.1101
   7923SM   C2F10486   0.931   2.590  13.094 -0.3341  0.4772 -0.0606
   7923SM   H2F10487   0.997   2.641  13.168  0.6717 -2.4129  1.1682
   7923SM   H2G10488   0.826   2.627  13.093 -0.6073 -0.2232 -2.2017
   7923SM   C3F10489   0.989   2.609  12.945  0.8222 -0.5914 -0.7676
   7923SM   H3F10490   1.100   2.612  12.944  0.8253 -0.6162 -1.5023
   7923SM   H3G10491   0.961   2.707  12.901  1.5943  0.3434  0.7678
   7923SM   C4F10492   0.935   2.504  12.855 -0.0744  0.1644 -0.1518
   7923SM   H4F10493   0.826   2.498  12.877  0.2650  0.0443  1.6720
   7923SM   H4G10494   0.984   2.405  12.869  0.8074  0.9506  3.3466
   7923SM   C5F10495   0.963   2.534  12.710 -0.0075 -0.2378 -0.8948
   7923SM   H5F10496   1.074   2.548  12.708 -0.0251  0.2660  0.3513
   7923SM   H5G10497   0.925   2.633  12.677 -2.0130 -0.6220  0.1080
   7923SM   C6F10498   0.899   2.434  12.627 -0.0112  0.1597 -1.0650
   7923SM   H6F10499   0.788   2.444  12.628  0.0692  1.4799 -1.9265
   7923SM   H6G10500   0.938   2.338  12.665  1.6149  1.4110  0.6294
   7923SM   C7F10501   0.946   2.440  12.482  0.3854  0.6196  0.5401
   7923SM   H7F10502   0.874   2.385  12.418  1.2035 -0.2271  0.3316
   7923SM   H7G10503   1.044   2.388  12.482  0.5585  0.9424  1.0337
   7923SM   C8F10504   0.957   2.579  12.421 -0.1608  0.8240 -0.5976
   7923SM   H8F10505   1.059   2.607  12.456  0.5673 -0.9024 -1.2166
   7923SM   H8G10506   0.875   2.639  12.466 -0.6433 -0.9263  1.0000
   7923SM   C9F10507   0.951   2.577  12.271 -0.6768 -0.7950 -0.0850
   7923SM   H9F10508   0.854   2.532  12.243  0.0646 -1.4040 -1.8347
   7923SM   H9G10509   1.028   2.506  12.233 -0.6489 -0.1946 -1.2158
   7923SM  C10F10510   0.971   2.706  12.199 -0.0491 -0.4831 -0.0039
   7923SM  H10F10511   1.080   2.725  12.186  0.3545 -0.6033  2.7567
   7923SM  H10G10512   0.925   2.783  12.264 -0.0828  1.2771 -1.9919
   7923SM  C11F10513   0.906   2.713  12.058 -0.3507 -0.2444  0.6678
   7923SM  H11F10514   0.797   2.731  12.072 -0.7041 -2.4175  1.0970
   7923SM  H11G10515   0.915   2.624  11.993  1.2864  0.4835 -0.1681
   7923SM  C12F10516   0.952   2.839  11.980 -0.7188 -0.6408  0.1992
   7923SM  H12F10517   1.058   2.856  12.010 -1.3595  4.1631  0.5358
   7923SM  H12G10518   0.891   2.923  12.020  1.4882 -0.4217  3.5438
   7923SM  C13F10519   0.938   2.815  11.832  0.2508 -0.4986  0.3136
   7923SM  H13F10520   0.833   2.783  11.817 -0.1063  0.2538  1.1162
   7923SM  H13G10521   0.996   2.728  11.794  0.0394  0.0199 -1.2662
   7923SM  C14F10522   0.957   2.939  11.751  0.0049  0.1982 -0.0177
   7923SM  H14F10523   1.060   2.979  11.765  0.0379  0.0799  0.0752
   7923SM  H14G10524   0.889   3.023  11.780 -2.0981 -1.6942  0.7944
   7923SM  C15F10525   0.938   2.904  11.602  0.0803 -0.1350  0.1314
   7923SM  H15F10526   0.836   2.873  11.571 -0.5843  1.4851  0.5673
   7923SM  H15G10527   1.021   2.833  11.580  0.0950 -0.9594  2.5333
   7923SM  C16F10528   0.963   3.017  11.499  0.3839 -0.6904  0.3301
   7923SM  H16F10529   0.984   2.976  11.398  0.4202  0.6255 -0.2207
   7923SM  H16G10530   1.057   3.069  11.528  1.7475 -3.3203  0.9073
   7923SM  C17F10531   0.846   3.118  11.484  0.0398  0.7604  1.2189
   7923SM  H17F10532   0.811   3.138  11.587 -0.2286 -1.7366  1.6609
   7923SM  H17G10533   0.762   3.072  11.427  1.0664  0.7598 -0.3826
   7923SM  C18F10534   0.891   3.239  11.398 -0.2875  0.4050 -0.6660
   7923SM  H18F10535   0.991   3.271  11.436 -0.3829  0.4444 -0.4484
   7923SM  H18G10536   0.817   3.320  11.411 -0.6534  0.2725 -1.7563
   7923SM  C19F10537   0.907   3.210  11.245  0.8937 -0.0690  0.1680
   7923SM  H19F10538   0.816   3.166  11.199  0.9291 -0.5572  0.5562
   7923SM  H19G10539   0.997   3.144  11.245  0.6369 -0.4267 -0.1851
   7923SM  C20F10540   0.944   3.328  11.158 -0.4680  0.0071 -0.2692
   7923SM  H20F10541   0.882   3.419  11.171  0.0847  0.1388  1.8202
   7923SM  H20G10542   0.948   3.293  11.053  1.6318 -0.5789 -0.0291
   7923SM  C21F10543   1.089   3.376  11.189  0.2797 -0.4485 -0.2431
   7923SM  H21F10544   1.147   3.282  11.177 -0.5788 -1.3694  2.2495
   7923SM  H21G10545   1.096   3.403  11.296 -2.6317 -3.1358  0.7513
   7923SM  C22F10546   1.133   3.496  11.108 -0.0783 -0.3241  0.2490
   7923SM  H22F10547   1.069   3.581  11.138 -0.1480 -0.3020  0.0422
   7923SM  H22G10548   1.117   3.476  11.000  1.4913 -0.3350 -0.0051
   7923SM  C23F10549   1.284   3.540  11.130 -0.5361 -0.4181 -0.1906
   7923SM  H23F10550   1.354   3.455  11.118 -1.0860 -0.7296 -1.3657
   7923SM  H23G10551   1.301   3.588  11.229  2.7392  1.3867 -1.4626
   7923SM  H23H10552   1.324   3.615  11.058 -0.0612 -0.6700 -0.1949
   8023SM     N10553   4.167   2.392  14.081  0.2075 -0.1916  0.7896
   8023SM   C1510554   4.278   2.321  14.017 -0.1791  0.4253  0.4532
   8023SM  H15A10555   4.249   2.264  13.930  2.1777  1.4843 -1.1405
   8023SM  H15B10556   4.320   2.247  14.085  0.2552  1.8172  1.7645
   8023SM  H15C10557   4.364   2.381  13.992  2.7313 -3.1302  0.9095
   8023SM   C1410558   4.069   2.296  14.138 -0.1768 -0.6818 -0.0340
   8023SM  H14A10559   4.103   2.239  14.223 -1.5058 -1.1063  0.2414
   8023SM  H14B10560   4.025   2.231  14.064 -1.8060 -2.5869  2.4293
   8023SM  H14C10561   3.982   2.353  14.168  1.0927  2.5571 -1.9539
   8023SM   C1310562   4.212   2.499  14.185  0.5788 -0.1067  0.4167
   8023SM  H13A10563   4.291   2.562  14.149 -0.5132  1.1074  0.0809
   8023SM  H13B10564   4.254   2.440  14.265  0.1461  1.0496  1.5382
   8023SM  H13C10565   4.130   2.558  14.224  0.5642  0.0967  0.0822
   8023SM   C1210566   4.105   2.482  13.974 -0.3504 -1.0436 -1.0281
   8023SM  H12A10567   4.167   2.570  13.960 -1.3924 -0.0581  0.2507
   8023SM  H12B10568   4.015   2.519  14.020 -0.0863 -2.6321  0.9098
   8023SM   C1110569   4.057   2.429  13.836 -0.3842  0.2487 -0.1407
   8023SM  H11A10570   4.152   2.399  13.787  0.4123  1.2931  0.7002
   8023SM  H11B10571   4.010   2.496  13.760 -1.0996 -0.1850 -0.0895
   8023SM     P10572   3.811   2.317  13.854 -0.1651  0.1508  0.1136
   8023SM   O1310573   3.759   2.184  13.897 -1.1876 -0.0599 -0.3311
   8023SM   O1410574   3.760   2.432  13.935  0.2149 -0.0575 -0.2142
   8023SM   O1110575   3.776   2.336  13.709  0.5775  0.2593 -0.0268
   8023SM   O1210576   3.970   2.316  13.858  0.2714 -0.1976 -0.2123
   8023SM   C1S10577   3.845   2.250  13.614  0.2918 -0.9473  0.2069
   8023SM   H1S10578   3.829   2.142  13.636  1.0355 -0.7319  1.9738
   8023SM   H1T10579   3.955   2.264  13.614  0.2609 -0.6672 -0.2336
   8023SM    NF10580   3.823   2.175  13.380  0.2680  0.5255  0.2189
   8023SM   HNF10581   3.895   2.192  13.314 -1.4325  0.6033 -1.7300
   8023SM   C2S10582   3.796   2.284  13.472 -0.3591  0.0121  0.5964
   8023SM   H2S10583   3.686   2.287  13.481 -0.4211  1.0055 -0.3007
   8023SM   C3S10584   3.855   2.418  13.426 -0.1731 -0.1380 -0.2569
   8023SM   H3S10585   3.965   2.410  13.416 -0.0492 -0.0953  0.9489
   8023SM    O310586   3.834   2.526  13.520 -0.4985  0.2879 -0.4862
   8023SM   HO310587   3.794   2.484  13.596  0.1239  0.8270  0.1575
   8023SM   C4S10588   3.795   2.471  13.302 -0.1985  0.0606 -0.2914
   8023SM   H4S10589   3.691   2.503  13.322 -0.1532 -0.6804  1.3371
   8023SM   C5S10590   3.841   2.474  13.179 -0.0853 -0.1390  0.2838
   8023SM   H5S10591   3.943   2.441  13.155 -0.3708  0.1615 -1.4593
   8023SM   C6S10592   3.768   2.516  13.057  0.1997  0.2403  1.6108
   8023SM   H6S10593   3.779   2.622  13.027  2.4802 -0.2620  0.5185
   8023SM   H6T10594   3.657   2.510  13.068 -0.1294 -1.1080 -1.4524
   8023SM   C7S10595   3.796   2.406  12.942 -0.4634 -0.3335  0.7590
   8023SM   H7S10596   3.807   2.300  12.973  1.1584 -0.0595  1.1867
   8023SM   H7T10597   3.890   2.439  12.893 -1.4221  2.6308  0.7483
   8023SM   C8S10598   3.695   2.415  12.829  0.1245 -0.0787  0.4769
   8023SM   H8S10599   3.659   2.520  12.823  0.9233  0.1216 -1.8653
   8023SM   H8T10600   3.610   2.348  12.856 -0.5957 -0.4661 -2.3808
   8023SM   C9S10601   3.768   2.378  12.697  0.4567 -0.1532  0.2032
   8023SM   H9S10602   3.813   2.277  12.707 -1.4422 -1.0654  0.0373
   8023SM   H9T10603   3.856   2.443  12.678 -0.5202  0.8612 -1.0105
   8023SM  C10S10604   3.689   2.382  12.566  0.4748  0.7698 -0.4942
   8023SM  H10S10605   3.655   2.484  12.541  2.2408  1.4244 -0.4217
   8023SM  H10T10606   3.603   2.312  12.565  1.3459 -0.4117 -3.6085
   8023SM  C11S10607   3.786   2.336  12.451  0.6472  0.8476  0.1990
   8023SM  H11S10608   3.723   2.268  12.389  0.3555  2.6225 -1.5636
   8023SM  H11T10609   3.874   2.282  12.489  0.1908 -1.1442 -1.3999
   8023SM  C12S10610   3.838   2.451  12.364  0.1709 -0.6932  0.1953
   8023SM  H12S10611   3.916   2.508  12.419 -0.1077 -0.6724  0.5739
   8023SM  H12T10612   3.761   2.531  12.352  0.6965 -0.3131 -0.7158
   8023SM  C13S10613   3.906   2.411  12.238  0.4633  0.7710  0.3489
   8023SM  H13S10614   3.835   2.342  12.187 -0.5393  1.3712  0.8988
   8023SM  H13T10615   3.996   2.361  12.280 -0.7841 -0.2334  1.9129
   8023SM  C14S10616   3.939   2.527  12.152 -0.3006 -0.2182  0.0063
   8023SM  H14S10617   3.975   2.608  12.220 -0.9923  0.0964 -0.0002
   8023SM  H14T10618   3.855   2.580  12.103 -0.1893  0.2230  0.2858
   8023SM  C15S10619   4.031   2.496  12.029 -0.4622  0.1547 -0.3280
   8023SM  H15S10620   3.997   2.407  11.972  2.0091 -0.3879 -1.0624
   8023SM  H15T10621   4.128   2.466  12.072 -0.4665 -0.9288 -1.0453
   8023SM  C16S10622   4.039   2.619  11.935  0.0561  0.0771  0.5056
   8023SM  H16S10623   4.078   2.697  12.003 -0.1414  0.5418  0.0944
   8023SM  H16T10624   3.938   2.655  11.904 -0.2969 -0.5497  0.8980
   8023SM  C17S10625   4.128   2.595  11.820 -0.3621 -0.3597  0.3442
   8023SM  H17S10626   4.104   2.501  11.767  0.5656 -0.8874  0.8299
   8023SM  H17T10627   4.226   2.577  11.869 -0.4906 -2.9662 -0.2079
   8023SM  C18S10628   4.134   2.716  11.720  0.3120  0.7460 -0.2402
   8023SM  H18S10629   4.200   2.684  11.636  0.6455  0.1577  0.2330
   8023SM  H18T10630   4.170   2.801  11.781  1.3580  1.4857 -1.8068
   8023SM  H18U10631   4.035   2.728  11.672  0.9191 -1.2783 -2.2172
   8023SM   C1F10632   3.766   2.052  13.372 -0.2168  0.8147 -0.2926
   8023SM    OF10633   3.701   2.012  13.468 -0.3758 -0.0988 -0.0036
   8023SM   C2F10634   3.770   1.975  13.247 -0.3879  0.1307  0.2202
   8023SM   H2F10635   3.702   1.887  13.254 -2.3552  1.4184 -1.4738
   8023SM   H2G10636   3.871   1.933  13.229 -0.4141 -0.6486  1.7034
   8023SM   C3F10637   3.716   2.057  13.127  0.0472  0.1378 -0.2141
   8023SM   H3F10638   3.766   2.153  13.104 -1.7623  1.0783 -0.3521
   8023SM   H3G10639   3.610   2.081  13.147 -0.8116 -0.7420 -3.1583
   8023SM   C4F10640   3.726   1.964  13.003 -0.2828  0.1979  0.5001
   8023SM   H4F10641   3.682   1.866  13.031 -1.8496  0.6597 -0.2038
   8023SM   H4G10642   3.835   1.953  12.986  0.0240  1.5018  1.4259
   8023SM   C5F10643   3.660   2.016  12.874 -0.6546 -0.0525 -0.5778
   8023SM   H5F10644   3.671   2.125  12.853  0.3197 -0.5944 -3.3431
   8023SM   H5G10645   3.554   2.011  12.907  0.3881  0.1411  3.2467
   8023SM   C6F10646   3.687   1.935  12.755 -0.2145  0.1636  0.2272
   8023SM   H6F10647   3.634   1.840  12.780 -0.2909  0.4514  1.2211
   8023SM   H6G10648   3.795   1.912  12.740  0.3448  0.4808  3.1652
   8023SM   C7F10649   3.617   1.985  12.621 -0.0037  0.8232  0.5291
   8023SM   H7F10650   3.656   2.087  12.603 -1.0513  0.9388 -1.3735
   8023SM   H7G10651   3.507   1.993  12.624 -0.0087  0.6707  0.7578
   8023SM   C8F10652   3.646   1.898  12.497 -0.1536  0.1575 -0.6625
   8023SM   H8F10653   3.572   1.913  12.416 -0.9948 -0.1743  0.0285
   8023SM   H8G10654   3.645   1.793  12.533 -0.1094  0.0976 -0.8331
   8023SM   C9F10655   3.784   1.926  12.438  0.1989  0.0843 -0.5790
   8023SM   H9F10656   3.863   1.914  12.515 -0.6598  1.5155  0.5627
   8023SM   H9G10657   3.773   2.028  12.395 -1.0276  0.1320 -0.1691
   8023SM  C10F10658   3.835   1.825  12.327  0.3151  0.7161  0.0893
   8023SM  H10F10659   3.835   1.720  12.361 -1.8228 -0.0722 -2.0276
   8023SM  H10G10660   3.941   1.857  12.322  1.1482 -1.8820  0.1648
   8023SM  C11F10661   3.748   1.825  12.192  0.2383  0.4490 -0.5363
   8023SM  H11F10662   3.641   1.816  12.223  0.4490 -1.1417 -0.1724
   8023SM  H11G10663   3.778   1.742  12.125 -0.1988 -2.6699  2.7601
   8023SM  C12F10664   3.766   1.959  12.117 -0.3830  0.7665  0.5598
   8023SM  H12F10665   3.876   1.975  12.111 -0.4038  0.2793 -3.3068
   8023SM  H12G10666   3.734   2.043  12.183 -2.2744 -0.1384  0.8601
   8023SM  C13F10667   3.705   1.977  11.972  0.0128 -0.2978 -0.3398
   8023SM  H13F10668   3.594   1.973  11.983 -0.0762  1.5343 -0.2738
   8023SM  H13G10669   3.736   1.892  11.908 -0.8809 -0.6550 -0.3257
   8023SM  C14F10670   3.747   2.115  11.917  0.3265  0.2126 -0.2798
   8023SM  H14F10671   3.855   2.122  11.941  0.0685  2.3300  0.5008
   8023SM  H14G10672   3.703   2.194  11.981 -1.5050 -1.1523  0.2340
   8023SM  C15F10673   3.728   2.131  11.765 -0.3312  0.1693 -0.3174
   8023SM  H15F10674   3.618   2.145  11.755 -0.2301  1.4919  0.2198
   8023SM  H15G10675   3.759   2.032  11.725  0.1092 -0.9697  2.5816
   8023SM  C16F10676   3.794   2.252  11.694  0.4585 -0.2152 -0.3527
   8023SM  H16F10677   3.804   2.235  11.585  1.1751  2.9484 -0.8972
   8023SM  H16G10678   3.899   2.259  11.730  0.1199 -0.4101  0.7140
   8023SM  C17F10679   3.729   2.392  11.725 -0.1390  0.2141  0.5815
   8023SM  H17F10680   3.733   2.433  11.828 -1.1109 -0.4883  0.9082
   8023SM  H17G10681   3.620   2.377  11.711 -0.0794 -2.6668  2.4757
   8023SM  C18F10682   3.759   2.496  11.613 -0.1201  0.5540  0.0881
   8023SM  H18F10683   3.764   2.430  11.523  2.7318 -0.4520  0.8996
   8023SM  H18G10684   3.859   2.544  11.618  0.0658  0.0625  1.4714
   8023SM  C19F10685   3.655   2.606  11.595 -0.4052  0.2722  0.2264
   8023SM  H19F10686   3.647   2.662  11.691  2.2206 -1.3386  1.5158
   8023SM  H19G10687   3.556   2.560  11.576 -0.6073  0.1151  1.5616
   8023SM  C20F10688   3.693   2.698  11.478 -0.3451 -0.0834  0.2499
   8023SM  H20F10689   3.721   2.631  11.395 -0.5689  1.6758 -1.3217
   8023SM  H20G10690   3.777   2.764  11.508 -0.9864  1.2896 -0.8372
   8023SM  C21F10691   3.578   2.786  11.434  0.0300  0.5436  0.4000
   8023SM  H21F10692   3.520   2.821  11.522  0.3563  2.3837 -0.0720
   8023SM  H21G10693   3.498   2.720  11.393 -1.4094  1.8116  1.0445
   8023SM  C22F10694   3.628   2.894  11.342  0.3219 -0.1439 -0.0208
   8023SM  H22F10695   3.696   2.957  11.402  1.3963  0.6573 -1.9933
   8023SM  H22G10696   3.553   2.971  11.314  0.9463  0.6271  0.3791
   8023SM  C23F10697   3.678   2.853  11.205 -0.4318 -0.3891  0.0096
   8023SM  H23F10698   3.605   2.791  11.147 -0.1234 -0.4559 -0.3100
   8023SM  H23G10699   3.769   2.791  11.216  0.4125  1.2325  3.3002
   8023SM  H23H10700   3.720   2.938  11.148 -2.9776  0.7226 -0.3369
   8123SM     N10701   0.044   5.515   8.851 -0.8482 -0.4677 -0.2874
   8123SM   C1510702   0.020   5.636   8.768  0.5233  0.5508 -0.6148
   8123SM  H15A10703   0.107   5.697   8.751  0.7442  0.0087 -1.4906
   8123SM  H15B10704  -0.049   5.695   8.827  2.9863  2.0849  0.9027
   8123SM  H15C10705  -0.026   5.613   8.673  0.4234 -0.1372 -0.4108
   8123SM   C1410706  -0.078   5.431   8.857  0.3207 -0.2350  0.3063
   8123SM  H14A10707  -0.145   5.475   8.929 -1.2111 -1.1008 -0.5311
   8123SM  H14B10708  -0.050   5.333   8.892 -0.2820 -0.6070 -0.2315
   8123SM  H14C10709  -0.120   5.431   8.757  4.3430 -0.0709 -1.5816
   8123SM   C1310710   0.158   5.438   8.794 -0.3150 -0.2436 -0.2692
   8123SM  H13A10711   0.195   5.369   8.868 -0.0376  0.1933  0.0035
   8123SM  H13B10712   0.236   5.505   8.761 -0.0667  1.0810  2.6425
   8123SM  H13C10713   0.123   5.387   8.706 -0.5775  1.1041 -0.9740
   8123SM   C1210714   0.080   5.569   8.994  0.2675  0.0094  0.3665
   8123SM  H12A10715   0.009   5.643   9.027  1.2431  0.0405  2.5251
   8123SM  H12B10716   0.180   5.609   8.992  0.2724 -0.0159 -0.1090
   8123SM   C1110717   0.077   5.462   9.103  0.0798 -0.3795 -0.6758
   8123SM  H11A10718  -0.023   5.415   9.120  1.6485 -3.5234  0.7272
   8123SM  H11B10719   0.104   5.509   9.200  1.6686 -0.0360 -1.2548
   8123SM     P10720   0.167   5.214   9.126 -0.3493 -0.1148  0.1527
   8123SM   O1310721   0.036   5.151   9.091 -0.3620  0.1728  0.1960
   8123SM   O1410722   0.290   5.144   9.073  0.4306  0.5306  0.2530
   8123SM   O1110723   0.183   5.229   9.282 -0.1363  0.5036 -0.3426
   8123SM   O1210724   0.176   5.363   9.075 -0.3976 -1.0310  0.4978
   8123SM   C1S10725   0.076   5.264   9.365  0.3160 -0.1705  0.0507
   8123SM   H1S10726  -0.005   5.188   9.367  0.5005 -0.3558  0.7174
   8123SM   H1T10727   0.029   5.354   9.320 -0.8398 -0.9577 -0.3722
   8123SM    NF10728   0.034   5.290   9.611 -0.0776 -0.3957 -0.1145
   8123SM   HNF10729   0.004   5.378   9.646  0.9595 -0.2033  0.3279
   8123SM   C2S10730   0.133   5.298   9.509  0.3203  1.0397  0.1238
   8123SM   H2S10731   0.208   5.218   9.532 -1.6328 -1.0165 -0.2576
   8123SM   C3S10732   0.206   5.433   9.501 -0.5056 -0.4149  0.3307
   8123SM   H3S10733   0.131   5.506   9.464 -0.8279 -0.6203  0.5708
   8123SM    O310734   0.305   5.441   9.396 -0.1791  0.0368 -0.1596
   8123SM   HO310735   0.289   5.362   9.345 -0.8449 -0.5113  0.8584
   8123SM   C4S10736   0.263   5.479   9.631  0.4753  0.4001 -0.2927
   8123SM   H4S10737   0.317   5.405   9.692  1.0219 -1.6795 -3.0684
   8123SM   C5S10738   0.229   5.596   9.694  0.2672  0.8326 -0.4609
   8123SM   H5S10739   0.150   5.660   9.650 -0.5948 -0.2169 -0.4652
   8123SM   C6S10740   0.265   5.634   9.833  0.5366  0.3825  0.2767
   8123SM   H6S10741   0.319   5.731   9.833  1.3908 -0.0807  0.2576
   8123SM   H6T10742   0.340   5.559   9.868 -1.5839 -2.3026 -0.6339
   8123SM   C7S10743   0.145   5.632   9.926 -0.4559  0.5931 -0.3272
   8123SM   H7S10744   0.087   5.538   9.923  2.0434 -1.0431 -0.2505
   8123SM   H7T10745   0.078   5.715   9.896  0.4955  1.0682 -1.1969
   8123SM   C8S10746   0.186   5.662  10.073 -0.5489 -0.3692  0.6367
   8123SM   H8S10747   0.254   5.750  10.076 -0.4263 -0.4561  0.4325
   8123SM   H8T10748   0.246   5.573  10.102 -0.1653 -0.3719 -0.1448
   8123SM   C9S10749   0.072   5.684  10.170  0.3481 -0.1423  0.2604
   8123SM   H9S10750   0.011   5.591  10.175  0.1009 -0.0772 -1.0050
   8123SM   H9T10751   0.009   5.771  10.144 -0.2518 -0.1208  1.7155
   8123SM  C10S10752   0.113   5.723  10.313 -0.4493  0.3405  0.8546
   8123SM  H10S10753   0.170   5.817  10.325  0.6400 -0.3504  1.1930
   8123SM  H10T10754   0.187   5.645  10.341 -0.4516 -0.3405 -0.8781
   8123SM  C11S10755   0.009   5.728  10.412 -0.3965  0.1171  0.3593
   8123SM  H11S10756  -0.068   5.655  10.379  1.4156 -0.2127 -3.6910
   8123SM  H11T10757  -0.046   5.823  10.394  2.5800  1.7194 -1.0760
   8123SM  C12S10758   0.065   5.745  10.555  0.2563  0.8456 -0.4373
   8123SM  H12S10759   0.138   5.828  10.566  1.1671 -0.0648  0.6238
   8123SM  H12T10760   0.124   5.653  10.571 -1.1819 -0.3012 -1.4301
   8123SM  C13S10761  -0.058   5.755  10.656 -0.6751  0.3483  0.2499
   8123SM  H13S10762  -0.044   5.699  10.751 -1.2939 -0.2080  0.0258
   8123SM  H13T10763  -0.148   5.705  10.614  1.7290 -2.1991 -2.2348
   8123SM  C14S10764  -0.100   5.891  10.705  0.4979 -0.3913 -0.1316
   8123SM  H14S10765  -0.100   5.966  10.623 -2.7039  1.7614  1.5868
   8123SM  H14T10766  -0.015   5.924  10.768 -0.0287 -1.2046  1.0643
   8123SM  C15S10767  -0.227   5.912  10.794  0.1342 -0.4570  0.0640
   8123SM  H15S10768  -0.322   5.903  10.737 -0.2799  0.4675  0.5812
   8123SM  H15T10769  -0.233   6.019  10.825 -3.2178 -0.5338  0.0518
   8123SM  C16S10770  -0.244   5.815  10.905 -0.4282  0.1238  0.1934
   8123SM  H16S10771  -0.159   5.814  10.976 -0.2348 -3.2233  0.0779
   8123SM  H16T10772  -0.214   5.719  10.857  2.0480  0.1387  1.5175
   8123SM  C17S10773  -0.371   5.829  10.975  0.3595 -0.0511 -0.4831
   8123SM  H17S10774  -0.459   5.840  10.908  2.8393  0.2600 -3.9325
   8123SM  H17T10775  -0.363   5.925  11.031  0.0170 -0.6299  0.6009
   8123SM  C18S10776  -0.394   5.730  11.085 -0.2457 -0.3634 -0.0006
   8123SM  H18S10777  -0.421   5.631  11.042 -1.1772 -0.9863  1.9253
   8123SM  H18T10778  -0.485   5.757  11.142  1.1284  4.4007  0.3731
   8123SM  H18U10779  -0.309   5.732  11.156 -0.4591 -0.8100  0.2753
   8123SM   C1F10780  -0.027   5.168   9.628 -0.2761 -0.2372 -0.6740
   8123SM    OF10781   0.018   5.065   9.581  0.4643  0.0506  0.3192
   8123SM   C2F10782  -0.158   5.185   9.699 -0.0533  0.2395  0.1502
   8123SM   H2F10783  -0.226   5.177   9.612 -0.0739 -1.2308  0.2721
   8123SM   H2G10784  -0.165   5.290   9.737 -0.2480  0.3971 -0.3120
   8123SM   C3F10785  -0.184   5.077   9.809 -0.3212 -0.4884  0.1480
   8123SM   H3F10786  -0.118   5.093   9.897 -0.1857 -2.8763  0.5440
   8123SM   H3G10787  -0.151   4.979   9.769 -2.1907 -0.9262 -0.4117
   8123SM   C4F10788  -0.331   5.058   9.857  0.0439  0.6465  0.4101
   8123SM   H4F10789  -0.397   5.058   9.768  0.3696  0.7739  0.1681
   8123SM   H4G10790  -0.357   5.143   9.924 -5.0660 -0.4084  0.1953
   8123SM   C5F10791  -0.354   4.919   9.927 -0.7211 -0.0749  0.0493
   8123SM   H5F10792  -0.342   4.842   9.848 -1.3540  0.0769 -0.1986
   8123SM   H5G10793  -0.460   4.908   9.959 -1.2988  1.5997 -1.1527
   8123SM   C6F10794  -0.242   4.875  10.028  0.1254 -0.2088  0.2826
   8123SM   H6F10795  -0.140   4.912  10.005 -0.9940  2.1673 -1.2768
   8123SM   H6G10796  -0.247   4.764  10.042 -1.2520 -0.1656  0.2772
   8123SM   C7F10797  -0.287   4.913  10.169  0.4305  0.3711 -0.4580
   8123SM   H7F10798  -0.381   4.855  10.176  0.8474 -0.4978 -1.6284
   8123SM   H7G10799  -0.303   5.022  10.183  1.7918  0.6061 -0.6022
   8123SM   C8F10800  -0.181   4.865  10.273  0.0825 -0.0199 -0.7099
   8123SM   H8F10801  -0.089   4.919  10.244 -0.4134 -0.6866 -3.9486
   8123SM   H8G10802  -0.161   4.757  10.262 -0.3401 -0.1285 -0.4421
   8123SM   C9F10803  -0.219   4.900  10.420  0.1550  0.1420  0.3243
   8123SM   H9F10804  -0.329   4.885  10.427 -0.4902  2.8129 -2.0928
   8123SM   H9G10805  -0.211   5.009  10.440  1.5097  0.4113 -1.3623
   8123SM  C10F10806  -0.143   4.816  10.524 -0.1901  0.0777  0.0919
   8123SM  H10F10807  -0.034   4.828  10.503  0.0858  0.1031  1.4237
   8123SM  H10G10808  -0.155   4.708  10.501 -0.4706  0.4895 -1.8247
   8123SM  C11F10809  -0.191   4.854  10.669  0.0137  0.0171 -0.2230
   8123SM  H11F10810  -0.298   4.825  10.679  0.1923 -0.1908  1.3862
   8123SM  H11G10811  -0.195   4.964  10.679  1.6710 -0.0593  2.0840
   8123SM  C12F10812  -0.104   4.786  10.780 -0.0546 -0.0411 -1.0253
   8123SM  H12F10813   0.001   4.823  10.780  0.1735 -0.6723 -0.1654
   8123SM  H12G10814  -0.100   4.676  10.767  0.3503 -0.1631  0.0512
   8123SM  C13F10815  -0.169   4.803  10.915 -0.5630  0.2177 -0.6600
   8123SM  H13F10816  -0.275   4.769  10.918 -0.9885  1.5614 -0.1596
   8123SM  H13G10817  -0.179   4.912  10.931 -0.1458 -0.1219  2.5982
   8123SM  C14F10818  -0.086   4.742  11.029  0.3851  0.2658 -0.4202
   8123SM  H14F10819   0.010   4.794  11.048 -0.3145  1.1193  0.9955
   8123SM  H14G10820  -0.065   4.636  11.004  0.5160 -0.0650  1.0375
   8123SM  C15F10821  -0.161   4.761  11.160 -0.6831  0.7716 -0.3671
   8123SM  H15F10822  -0.264   4.719  11.166 -0.0367 -0.7696  0.4951
   8123SM  H15G10823  -0.171   4.868  11.188  1.5318  0.6933  0.9324
   8123SM  C16F10824  -0.074   4.708  11.280 -0.8788  0.3691 -0.2313
   8123SM  H16F10825   0.016   4.772  11.289 -0.0880 -0.4103 -2.0847
   8123SM  H16G10826  -0.041   4.605  11.254 -2.4124 -0.5898  1.3124
   8123SM  C17F10827  -0.162   4.698  11.405  0.2564 -0.6718  1.0297
   8123SM  H17F10828  -0.250   4.632  11.391 -1.2641  1.5426 -0.5471
   8123SM  H17G10829  -0.201   4.800  11.427 -2.8882 -1.8972  1.6242
   8123SM  C18F10830  -0.081   4.648  11.523  0.2911 -0.6020 -0.2138
   8123SM  H18F10831   0.011   4.709  11.523  0.5600 -0.9831 -1.3539
   8123SM  H18G10832  -0.047   4.543  11.512 -0.9537 -0.8500 -2.1528
   8123SM  C19F10833  -0.160   4.690  11.651 -0.2723 -0.3386  0.0338
   8123SM  H19F10834  -0.167   4.800  11.665 -0.8039 -0.5293  1.5387
   8123SM  H19G10835  -0.088   4.652  11.727  0.0199 -0.3150 -0.2288
   8123SM  C20F10836  -0.292   4.617  11.695 -0.1695  0.2987  0.6812
   8123SM  H20F10837  -0.372   4.653  11.626 -0.5874 -1.2813  0.3023
   8123SM  H20G10838  -0.314   4.661  11.794 -0.9202  1.7653 -0.1036
   8123SM  C21F10839  -0.290   4.468  11.697 -0.6686  0.2539 -0.8377
   8123SM  H21F10840  -0.220   4.445  11.781 -2.8548 -1.9326  0.5394
   8123SM  H21G10841  -0.241   4.435  11.604 -0.5534 -4.0005  0.5190
   8123SM  C22F10842  -0.428   4.392  11.718 -0.8116 -0.4832  0.5210
   8123SM  H22F10843  -0.465   4.423  11.818 -1.6092 -0.3673  0.2012
   8123SM  H22G10844  -0.396   4.286  11.703  4.3634  1.0962 -2.0187
   8123SM  C23F10845  -0.529   4.410  11.599 -0.8473  0.1669  0.4468
   8123SM  H23F10846  -0.472   4.387  11.507 -1.7506  0.8795 -0.3090
   8123SM  H23G10847  -0.557   4.517  11.594 -0.3891  0.2298 -1.2794
   8123SM  H23H10848  -0.617   4.343  11.604 -1.5743  1.0703 -0.0380
   8223SM     N10849   5.449   5.366   8.467 -0.6291 -0.1069  0.0719
   8223SM   C1510850   5.559   5.324   8.373 -0.5790 -0.4958  0.3387
   8223SM  H15A10851   5.646   5.298   8.431 -0.9307 -3.9065 -0.4209
   8223SM  H15B10852   5.583   5.410   8.312 -0.0547 -0.8779 -0.0072
   8223SM  H15C10853   5.517   5.241   8.318 -1.3253 -0.2134  0.4794
   8223SM   C1410854   5.323   5.388   8.394 -0.4018  0.0331  0.4222
   8223SM  H14A10855   5.260   5.459   8.445 -1.3274 -0.6925  0.3008
   8223SM  H14B10856   5.263   5.299   8.396  1.8824 -1.5762  1.5748
   8223SM  H14C10857   5.342   5.432   8.297 -0.9985  2.1349  1.2087
   8223SM   C1310858   5.420   5.266   8.567 -0.3073 -0.3748  0.2369
   8223SM  H13A10859   5.498   5.259   8.641 -1.1182  0.5405  1.2225
   8223SM  H13B10860   5.416   5.168   8.522  0.4543  0.9983 -3.1522
   8223SM  H13C10861   5.329   5.283   8.622 -1.2054 -0.7287 -1.0787
   8223SM   C1210862   5.486   5.499   8.538  0.0016 -0.0717 -0.2184
   8223SM  H12A10863   5.415   5.535   8.610  2.0076  1.4306  1.1221
   8223SM  H12B10864   5.487   5.579   8.464  0.5638  2.5996  2.4626
   8223SM   C1110865   5.624   5.513   8.607  0.4154  0.5218  0.3906
   8223SM  H11A10866   5.607   5.597   8.678  0.3754  1.0191 -0.2073
   8223SM  H11B10867   5.695   5.540   8.526 -1.1613  0.6986 -0.9723
   8223SM     P10868   5.633   5.373   8.832 -0.0961  0.4750 -0.7017
   8223SM   O1310869   5.488   5.362   8.854 -0.1747  0.3905 -0.8308
   8223SM   O1410870   5.717   5.268   8.878 -0.2193  0.4887 -0.1957
   8223SM   O1110871   5.690   5.512   8.880  0.4543 -0.2967  0.5388
   8223SM   O1210872   5.666   5.391   8.681  0.1013  0.0926 -0.0584
   8223SM   C1S10873   5.647   5.563   9.006 -0.0858  0.5065  0.3815
   8223SM   H1S10874   5.551   5.520   9.042 -0.3011  0.3221 -0.3892
   8223SM   H1T10875   5.639   5.674   9.008  0.4854  0.5362  1.4288
   8223SM    NF10876   5.701   5.537   9.250 -0.8399 -0.3098 -0.3036
   8223SM   HNF10877   5.745   5.612   9.299 -0.2524  1.5282 -3.3317
   8223SM   C2S10878   5.756   5.532   9.118  0.0263  0.0862  0.1555
   8223SM   H2S10879   5.783   5.425   9.104  0.1217 -0.0224  1.1250
   8223SM   C3S10880   5.884   5.613   9.086  0.5129 -0.3709  0.5490
   8223SM   H3S10881   5.855   5.720   9.086 -0.7883 -0.7002 -0.6665
   8223SM    O310882   5.935   5.594   8.957 -0.0068  0.1063 -0.2968
   8223SM   HO310883   5.850   5.578   8.915  0.2830  1.9634 -1.7578
   8223SM   C4S10884   5.998   5.584   9.178 -0.3522 -0.1664 -0.3588
   8223SM   H4S10885   6.037   5.481   9.168  0.2011  0.0250 -0.1910
   8223SM   C5S10886   6.068   5.678   9.248  0.2623 -0.5164  0.4403
   8223SM   H5S10887   6.032   5.781   9.241  0.1070 -0.6247 -0.4371
   8223SM   C6S10888   6.189   5.639   9.328  0.1083  0.0561  0.5456
   8223SM   H6S10889   6.270   5.711   9.303 -0.8012  0.8039 -0.3647
   8223SM   H6T10890   6.229   5.540   9.299  0.3521 -0.3556  2.2007
   8223SM   C7S10891   6.154   5.626   9.478  0.3328 -0.6007 -0.1374
   8223SM   H7S10892   6.071   5.553   9.477  0.2953 -0.5536 -0.8653
   8223SM   H7T10893   6.131   5.727   9.519  1.4358 -0.5086  0.3144
   8223SM   C8S10894   6.268   5.562   9.561 -0.1032  0.3484  0.2442
   8223SM   H8S10895   6.362   5.615   9.535 -0.3456  0.0419 -1.3770
   8223SM   H8T10896   6.277   5.452   9.549 -0.1226  0.3107  0.5769
   8223SM   C9S10897   6.253   5.585   9.711  0.4201 -0.4760  0.7235
   8223SM   H9S10898   6.156   5.541   9.744  0.0944  0.5327  1.1589
   8223SM   H9T10899   6.250   5.695   9.726  0.6893  0.2097 -3.2806
   8223SM  C10S10900   6.361   5.520   9.810  0.0246  0.3296 -0.1134
   8223SM  H10S10901   6.460   5.567   9.788 -0.3413  0.7151 -0.9789
   8223SM  H10T10902   6.372   5.410   9.800  1.8120  0.5187 -0.5908
   8223SM  C11S10903   6.344   5.571   9.957 -0.0041 -0.6215 -0.2921
   8223SM  H11S10904   6.264   5.512  10.007 -0.0824  1.0937  1.7245
   8223SM  H11T10905   6.306   5.675   9.945 -2.5376 -1.6066 -1.7115
   8223SM  C12S10906   6.463   5.564  10.048  0.2555 -0.3154  0.2161
   8223SM  H12S10907   6.550   5.609   9.997 -1.5606  4.4044  0.8006
   8223SM  H12T10908   6.482   5.455  10.063  1.5259 -0.3314 -1.3158
   8223SM  C13S10909   6.435   5.642  10.179 -0.1863  0.2886 -0.0800
   8223SM  H13S10910   6.369   5.724  10.146  1.0394  1.4879  0.3577
   8223SM  H13T10911   6.528   5.688  10.219 -0.7362 -0.0660  1.7291
   8223SM  C14S10912   6.363   5.558  10.284 -0.4094  0.6118 -0.2404
   8223SM  H14S10913   6.409   5.458  10.300  0.2948  0.9841  0.0941
   8223SM  H14T10914   6.271   5.534  10.227 -1.0035  2.5830 -0.1690
   8223SM  C15S10915   6.340   5.629  10.419 -0.0753 -0.9237 -0.5651
   8223SM  H15S10916   6.304   5.733  10.401  0.8657 -0.5148 -0.1585
   8223SM  H15T10917   6.435   5.640  10.475 -1.3432 -1.8256  1.8878
   8223SM  C16S10918   6.233   5.566  10.503 -0.2560  0.0970  0.5216
   8223SM  H16S10919   6.275   5.466  10.525 -1.4276 -0.5236 -0.0190
   8223SM  H16T10920   6.137   5.555  10.449  0.4602 -3.2495 -0.2868
   8223SM  C17S10921   6.221   5.626  10.649  0.9642  0.6218  0.0449
   8223SM  H17S10922   6.191   5.731  10.632 -0.9808 -0.1548 -1.8488
   8223SM  H17T10923   6.314   5.616  10.709  0.5884 -3.9190  0.2689
   8223SM  C18S10924   6.110   5.553  10.728  0.2339 -0.2721 -0.1245
   8223SM  H18S10925   6.113   5.442  10.720 -2.0989 -0.5963  2.2144
   8223SM  H18T10926   6.015   5.578  10.675  1.3795 -1.2885 -2.8457
   8223SM  H18U10927   6.117   5.590  10.832 -2.0164 -0.6720  0.2388
   8223SM   C1F10928   5.613   5.458   9.301 -0.6568 -0.3165  0.2238
   8223SM    OF10929   5.564   5.367   9.234 -0.4697 -0.0595 -0.1477
   8223SM   C2F10930   5.578   5.486   9.440 -0.6748  0.3636  0.0329
   8223SM   H2F10931   5.482   5.542   9.429 -1.8020 -1.7220 -1.4191
   8223SM   H2G10932   5.646   5.550   9.501 -1.8330  0.9323  0.7554
   8223SM   C3F10933   5.540   5.369   9.529  0.2396  0.1842  0.4213
   8223SM   H3F10934   5.625   5.299   9.546  0.3896  0.8384  2.7229
   8223SM   H3G10935   5.468   5.315   9.464 -1.4282  0.0557  2.2656
   8223SM   C4F10936   5.480   5.400   9.665  0.0860 -0.3189  1.1161
   8223SM   H4F10937   5.439   5.306   9.709  1.6674 -2.3913 -1.5556
   8223SM   H4G10938   5.389   5.461   9.648  0.6011  0.4701  1.1502
   8223SM   C5F10939   5.568   5.468   9.769 -0.2375 -0.8578 -0.8524
   8223SM   H5F10940   5.620   5.558   9.730 -0.8464  0.1934  0.6659
   8223SM   H5G10941   5.640   5.393   9.806  0.2868  0.5105  1.0754
   8223SM   C6F10942   5.506   5.507   9.903  0.3851  0.4047  0.0424
   8223SM   H6F10943   5.432   5.430   9.934  1.6926 -0.6740  0.5955
   8223SM   H6G10944   5.450   5.599   9.879  0.7990  0.7832  0.5075
   8223SM   C7F10945   5.595   5.514  10.031 -0.3654 -0.6363 -0.4276
   8223SM   H7F10946   5.660   5.604  10.019 -2.6156  1.4349  1.8073
   8223SM   H7G10947   5.666   5.429  10.029  1.9626  1.1525 -3.5915
   8223SM   C8F10948   5.519   5.540  10.162 -0.0992  0.1508 -0.0433
   8223SM   H8F10949   5.438   5.464  10.166  0.4206 -0.3764  0.9716
   8223SM   H8G10950   5.463   5.634  10.144 -0.2310  0.1759  0.4690
   8223SM   C9F10951   5.606   5.539  10.280 -0.9250 -0.9926 -0.2390
   8223SM   H9F10952   5.680   5.622  10.273  0.5921 -2.2570  0.1616
   8223SM   H9G10953   5.672   5.450  10.290  1.3298  0.4630 -1.3260
   8223SM  C10F10954   5.532   5.552  10.410 -0.6209 -0.2724 -0.0603
   8223SM  H10F10955   5.480   5.455  10.425  0.8411 -0.9374  0.9143
   8223SM  H10G10956   5.455   5.629  10.384  0.0637 -0.0180 -1.4683
   8223SM  C11F10957   5.624   5.599  10.532 -1.0469  0.6222  0.2203
   8223SM  H11F10958   5.647   5.706  10.513  2.0379  0.2981  1.6331
   8223SM  H11G10959   5.723   5.549  10.532  0.3068  3.1361  1.1044
   8223SM  C12F10960   5.557   5.572  10.670 -0.1730  0.7782 -0.2863
   8223SM  H12F10961   5.551   5.463  10.692  1.1521  0.8345  0.4000
   8223SM  H12G10962   5.455   5.615  10.660  0.0666  1.5281  0.4212
   8223SM  C13F10963   5.637   5.641  10.775 -0.0174  0.0136 -0.3084
   8223SM  H13F10964   5.642   5.752  10.767 -0.9794 -0.0492 -2.5824
   8223SM  H13G10965   5.741   5.610  10.799  0.0104  0.4659  0.1907
   8223SM  C14F10966   5.567   5.607  10.908  0.1235 -1.0148 -0.6433
   8223SM  H14F10967   5.553   5.497  10.910  0.2488 -1.0449 -1.3182
   8223SM  H14G10968   5.471   5.663  10.915  0.6529 -0.1677 -0.0027
   8223SM  C15F10969   5.645   5.652  11.026 -0.6408  0.8025  0.1598
   8223SM  H15F10970   5.643   5.763  11.023 -0.2939  0.8108  0.1083
   8223SM  H15G10971   5.749   5.611  11.026 -0.9708 -0.3767 -3.4402
   8223SM  C16F10972   5.574   5.614  11.160 -0.2714 -0.3434  0.4502
   8223SM  H16F10973   5.560   5.504  11.170  0.6110 -0.5135 -0.0697
   8223SM  H16G10974   5.474   5.661  11.154 -0.7217 -1.4799 -2.1019
   8223SM  C17F10975   5.640   5.673  11.286  0.0802  0.0998 -0.1061
   8223SM  H17F10976   5.634   5.784  11.286 -2.7505  0.0040 -0.0797
   8223SM  H17G10977   5.747   5.647  11.302 -0.4059 -1.5152  0.7613
   8223SM  C18F10978   5.566   5.625  11.408  0.2433  1.2653 -0.3666
   8223SM  H18F10979   5.534   5.519  11.398  1.8705  0.2773  3.2977
   8223SM  H18G10980   5.476   5.690  11.415 -0.1272  0.9500 -1.7168
   8223SM  C19F10981   5.638   5.636  11.543  0.4524  0.3404  0.1302
   8223SM  H19F10982   5.657   5.742  11.567  0.5692  0.2982  0.2226
   8223SM  H19G10983   5.735   5.581  11.544  0.1155 -0.5115 -2.7598
   8223SM  C20F10984   5.552   5.588  11.661  0.1888 -0.4678  0.0692
   8223SM  H20F10985   5.557   5.477  11.654  0.5998 -0.4650  0.2759
   8223SM  H20G10986   5.445   5.612  11.641  0.8085  0.5488 -2.3657
   8223SM  C21F10987   5.589   5.620  11.808  0.1546  0.5588  1.1155
   8223SM  H21F10988   5.589   5.731  11.811 -1.7352  0.5671  3.0243
   8223SM  H21G10989   5.684   5.578  11.849 -0.9198 -2.5307  0.6747
   8223SM  C22F10990   5.474   5.574  11.899  0.1223  0.3374  0.3527
   8223SM  H22F10991   5.482   5.463  11.905  0.4285  0.3978  1.2437
   8223SM  H22G10992   5.380   5.611  11.852  2.0976  0.9453 -3.5449
   8223SM  C23F10993   5.500   5.630  12.045  0.6133  0.3919  0.1625
   8223SM  H23F10994   5.576   5.565  12.092  0.0431 -0.9676 -0.7476
   8223SM  H23G10995   5.408   5.643  12.105  0.4972  1.2893 -0.1893
   8223SM  H23H10996   5.546   5.731  12.034  0.0300  0.4429 -2.8879
   8323SM     N10997   1.205   5.990   8.435  0.5918 -0.3923 -0.0984
   8323SM   C1510998   1.118   6.074   8.349  0.3113  0.2759 -0.0006
   8323SM  H15A10999   1.024   6.100   8.394  1.0307  0.4361  1.4450
   8323SM  H15B11000   1.092   6.027   8.255 -1.6519  0.1088  0.5721
   8323SM  H15C11001   1.171   6.165   8.323  2.1559 -1.0484 -1.1383
   8323SM   C1411002   1.339   5.997   8.374 -0.1145 -0.4691 -0.1874
   8323SM  H14A11003   1.330   5.957   8.275  0.2995 -1.2415  0.0838
   8323SM  H14B11004   1.407   5.941   8.436  0.5606 -0.4649 -0.9155
   8323SM  H14C11005   1.370   6.099   8.357 -0.2425 -0.1870  1.1056
   8323SM   C1311006   1.206   6.058   8.559  0.4986 -0.2663  0.3141
   8323SM  H13A11007   1.264   6.004   8.633 -0.9654 -0.4711  1.3459
   8323SM  H13B11008   1.113   6.082   8.609  0.1836  1.7415 -1.1202
   8323SM  H13C11009   1.259   6.152   8.550 -0.7771  0.6688  1.9772
   8323SM   C1211010   1.138   5.848   8.447 -0.0917 -0.2551  0.4068
   8323SM  H12A11011   1.222   5.787   8.478  2.1189  0.7649 -3.0359
   8323SM  H12B11012   1.116   5.817   8.346 -1.6919  0.6515  0.4521
   8323SM   C1111013   1.022   5.829   8.543  0.2988  0.5461  0.1470
   8323SM  H11A11014   0.965   5.737   8.522  0.8972  0.4342 -1.1197
   8323SM  H11B11015   0.947   5.908   8.523 -0.3192  0.0637  0.5426
   8323SM     P11016   1.162   5.736   8.740 -0.0598 -0.5222  0.1078
   8323SM   O1311017   1.120   5.597   8.718  0.2390 -0.7024 -0.0872
   8323SM   O1411018   1.293   5.778   8.687  0.2467  0.2119 -0.2239
   8323SM   O1111019   1.160   5.769   8.892  0.0436 -0.5236  0.1027
   8323SM   O1211020   1.056   5.843   8.686 -0.4818  0.3251  0.0034
   8323SM   C1S11021   1.055   5.707   8.972 -0.6474  0.6043 -0.7389
   8323SM   H1S11022   1.081   5.600   8.989 -1.0850  0.7143  0.8681
   8323SM   H1T11023   0.954   5.706   8.925 -2.2766 -0.4332  2.4216
   8323SM    NF11024   0.968   5.684   9.208  0.4194  0.2923 -0.6056
   8323SM   HNF11025   0.871   5.702   9.191  0.7408  2.1896 -0.6356
   8323SM   C2S11026   1.049   5.767   9.124  0.1250  0.4401  0.1483
   8323SM   H2S11027   1.156   5.767   9.156  0.2088  0.2251 -0.1309
   8323SM   C3S11028   1.012   5.913   9.109 -0.7005 -0.4180 -0.0245
   8323SM   H3S11029   0.921   5.908   9.045  1.6042 -3.4074 -3.4225
   8323SM    O311030   1.094   5.985   9.019  0.4011 -0.0592 -0.0763
   8323SM   HO311031   1.145   5.918   8.971 -2.9798 -0.2989 -3.8523
   8323SM   C4S11032   0.995   5.981   9.244 -0.1439  0.2106  0.3310
   8323SM   H4S11033   0.891   5.976   9.279 -0.5510 -1.6193 -0.9899
   8323SM   C5S11034   1.088   6.053   9.307  0.0172 -0.1719  0.4951
   8323SM   H5S11035   1.190   6.076   9.275 -0.2439 -0.5768 -0.6897
   8323SM   C6S11036   1.068   6.113   9.443  0.0133  0.0106 -0.1600
   8323SM   H6S11037   1.019   6.211   9.422  0.5109  1.3005  3.8301
   8323SM   H6T11038   1.167   6.141   9.482 -0.6112  0.6897  0.9772
   8323SM   C7S11039   0.963   6.048   9.540 -0.6057 -0.7054  0.1442
   8323SM   H7S11040   1.008   5.948   9.557  1.0322 -0.0068  0.1487
   8323SM   H7T11041   0.862   6.041   9.494 -0.2808 -1.2182 -0.5200
   8323SM   C8S11042   0.976   6.108   9.676  0.3370  0.5370 -0.4387
   8323SM   H8S11043   0.921   6.205   9.683 -2.0582 -0.7665 -0.0799
   8323SM   H8T11044   1.083   6.131   9.694  0.9170 -1.5343 -0.9775
   8323SM   C9S11045   0.935   6.008   9.791 -0.3662 -0.3877  0.2740
   8323SM   H9S11046   0.987   5.910   9.779  1.6661  0.4554  1.6264
   8323SM   H9T11047   0.825   5.989   9.792 -0.0539 -2.5233 -0.0936
   8323SM  C10S11048   0.970   6.059   9.929  0.3165  0.3134 -0.3780
   8323SM  H10S11049   0.921   6.157   9.945  1.9197  1.2106 -0.8331
   8323SM  H10T11050   1.080   6.072   9.940  0.1994  1.1626 -0.1426
   8323SM  C11S11051   0.919   5.982  10.056 -0.5506  0.4593  0.1348
   8323SM  H11S11052   0.966   5.884  10.033 -0.9788  0.8609 -2.9215
   8323SM  H11T11053   0.809   5.964  10.054 -0.4337 -0.2469 -0.8304
   8323SM  C12S11054   0.971   6.041  10.187 -0.1445 -0.2933 -0.2485
   8323SM  H12S11055   0.930   6.144  10.192  0.5171  0.1584 -2.7478
   8323SM  H12T11056   1.081   6.033  10.170 -0.0101  1.2769 -0.3100
   8323SM  C13S11057   0.910   5.976  10.311 -0.2197  0.1806 -0.1862
   8323SM  H13S11058   0.919   5.867  10.292  0.1224  0.4398 -1.6646
   8323SM  H13T11059   0.803   6.006  10.311 -0.0895  0.6771  0.8209
   8323SM  C14S11060   0.971   6.024  10.443 -0.1891  0.6601  0.3669
   8323SM  H14S11061   0.929   6.126  10.450 -1.2649  0.4609 -2.1728
   8323SM  H14T11062   1.081   6.014  10.430  0.0911  2.8036  0.8158
   8323SM  C15S11063   0.924   5.931  10.561  0.5018 -0.6090  0.8584
   8323SM  H15S11064   0.973   5.831  10.559 -1.1042 -1.4833  2.3627
   8323SM  H15T11065   0.818   5.917  10.533  1.2909 -0.1991 -2.7441
   8323SM  C16S11066   0.932   5.993  10.705 -0.3433  0.6940  1.0594
   8323SM  H16S11067   0.877   6.088  10.723  0.0179  1.0466  0.3362
   8323SM  H16T11068   1.040   6.008  10.725 -0.2850  0.2377  1.0957
   8323SM  C17S11069   0.893   5.886  10.810 -0.4275  0.5470  0.1127
   8323SM  H17S11070   0.943   5.788  10.797 -1.7425 -0.0718 -0.4863
   8323SM  H17T11071   0.785   5.864  10.796 -0.2338 -1.0169  0.9155
   8323SM  C18S11072   0.907   5.938  10.951 -0.0712 -0.2437 -0.5467
   8323SM  H18S11073   0.880   5.850  11.014  2.2553 -1.1359 -0.6959
   8323SM  H18T11074   0.840   6.024  10.971  0.7033  0.4466 -0.8771
   8323SM  H18U11075   1.013   5.966  10.965  0.4207 -1.6288 -1.2709
   8323SM   C1F11076   1.013   5.575   9.274  0.7816 -0.9406 -0.3957
   8323SM    OF11077   1.127   5.543   9.281 -0.0468 -0.4299  0.0216
   8323SM   C2F11078   0.911   5.485   9.343  0.1974 -0.2102 -0.4463
   8323SM   H2F11079   0.935   5.381   9.312  1.8395 -0.5462  1.6718
   8323SM   H2G11080   0.809   5.507   9.305 -0.3103  0.1737  1.0700
   8323SM   C3F11081   0.915   5.478   9.498  0.0333  0.3836 -0.6950
   8323SM   H3F11082   1.018   5.443   9.523 -0.0871 -0.1179 -0.8745
   8323SM   H3G11083   0.837   5.407   9.531 -0.4888  1.0033 -0.5799
   8323SM   C4F11084   0.878   5.606   9.562 -0.6739 -0.1095 -0.1865
   8323SM   H4F11085   0.830   5.672   9.488 -1.0741  0.2805  0.4100
   8323SM   H4G11086   0.974   5.653   9.591  0.9440 -0.9879 -3.6743
   8323SM   C5F11087   0.777   5.590   9.678 -0.4336 -0.0924  0.4264
   8323SM   H5F11088   0.685   5.530   9.657 -0.6210 -0.1689  1.3764
   8323SM   H5G11089   0.733   5.689   9.702 -1.0516  0.3499 -2.2440
   8323SM   C6F11090   0.838   5.531   9.811 -0.0533  0.0108 -0.1850
   8323SM   H6F11091   0.929   5.590   9.836 -1.4056  1.7455  0.9086
   8323SM   H6G11092   0.856   5.425   9.783  0.1869 -0.3261  1.1552
   8323SM   C7F11093   0.743   5.549   9.929 -0.0422  0.6823  0.7606
   8323SM   H7F11094   0.654   5.487   9.908  1.1233 -0.4591 -1.0343
   8323SM   H7G11095   0.705   5.654   9.938 -0.3533  0.5454  1.0900
   8323SM   C8F11096   0.818   5.492  10.050 -0.0260  0.0530 -0.9545
   8323SM   H8F11097   0.867   5.399  10.014 -0.2782 -0.4448 -0.0343
   8323SM   H8G11098   0.745   5.455  10.125 -0.7070  1.7899 -0.7091
   8323SM   C9F11099   0.916   5.593  10.127  0.8934  0.1906  0.5963
   8323SM   H9F11100   0.860   5.686  10.153  1.1762  0.5818 -0.1661
   8323SM   H9G11101   0.995   5.627  10.056  0.6727 -0.3871  0.0691
   8323SM  C10F11102   0.976   5.545  10.254  0.1713 -0.1725  0.6444
   8323SM  H10F11103   0.894   5.508  10.319  0.6134 -1.3875  0.5348
   8323SM  H10G11104   1.017   5.634  10.305 -1.0852  0.5596  0.4214
   8323SM  C11F11105   1.078   5.422  10.239  0.5431  0.2575  0.2991
   8323SM  H11F11106   1.166   5.467  10.186  0.2652 -0.4920 -0.8383
   8323SM  H11G11107   1.032   5.348  10.170  0.1704  0.6148  0.1590
   8323SM  C12F11108   1.119   5.352  10.372 -0.3978 -0.2042 -0.2651
   8323SM  H12F11109   1.191   5.276  10.335  0.0255 -0.0249  0.1777
   8323SM  H12G11110   1.030   5.298  10.411 -0.6793  0.1558 -0.4046
   8323SM  C13F11111   1.184   5.445  10.475  0.3512  1.1490  0.2666
   8323SM  H13F11112   1.121   5.535  10.494 -0.9861  0.0942  1.0771
   8323SM  H13G11113   1.282   5.472  10.431  0.6224  0.5864  0.5224
   8323SM  C14F11114   1.218   5.369  10.605  0.4359  0.0212  0.0351
   8323SM  H14F11115   1.299   5.296  10.584 -0.3206 -0.8649  0.1042
   8323SM  H14G11116   1.124   5.318  10.635  0.6068  0.1572  0.8203
   8323SM  C15F11117   1.262   5.459  10.721  0.0883 -0.4501  0.5902
   8323SM  H15F11118   1.248   5.412  10.821  0.5340 -1.7883  0.0473
   8323SM  H15G11119   1.199   5.550  10.725  2.9571  1.6824  0.3177
   8323SM  C16F11120   1.407   5.512  10.721  0.0324  0.3417 -0.9088
   8323SM  H16F11121   1.420   5.562  10.623 -0.5288  0.0348 -1.1448
   8323SM  H16G11122   1.468   5.419  10.724  0.3256  0.5450  1.7894
   8323SM  C17F11123   1.456   5.582  10.853  0.0837 -0.3386  0.6461
   8323SM  H17F11124   1.420   5.519  10.936 -1.5467 -1.4490 -0.8426
   8323SM  H17G11125   1.390   5.672  10.862  1.5494  1.2140 -2.4719
   8323SM  C18F11126   1.606   5.600  10.859 -0.6170 -0.9908  0.0923
   8323SM  H18F11127   1.636   5.683  10.790  0.4702 -1.1621  0.3435
   8323SM  H18G11128   1.661   5.510  10.825  3.9590  1.8628 -0.9154
   8323SM  C19F11129   1.661   5.645  10.997  0.6963  0.9765  0.0046
   8323SM  H19F11130   1.623   5.569  11.069 -1.0648 -0.2647 -2.1043
   8323SM  H19G11131   1.605   5.733  11.036  0.8944  0.3955  1.6634
   8323SM  C20F11132   1.801   5.675  10.998 -0.5341 -0.2157 -0.2495
   8323SM  H20F11133   1.832   5.742  10.915 -0.1662 -0.3321 -0.2068
   8323SM  H20G11134   1.859   5.581  10.983 -1.7355 -1.2057  0.9616
   8323SM  C21F11135   1.854   5.727  11.132 -0.1407  0.1576  0.4747
   8323SM  H21F11136   1.964   5.712  11.124 -0.1444 -0.2152  1.0156
   8323SM  H21G11137   1.811   5.658  11.208 -1.6289  0.5390 -0.0009
   8323SM  C22F11138   1.824   5.871  11.157 -0.5264  0.1566 -0.2631
   8323SM  H22F11139   1.713   5.873  11.162 -0.6716 -0.7578 -2.2735
   8323SM  H22G11140   1.861   5.939  11.078 -0.1408  1.8450  1.3088
   8323SM  C23F11141   1.869   5.906  11.308  0.3351  0.7901  0.1531
   8323SM  H23F11142   1.810   5.857  11.388 -0.2882  0.2522 -0.6175
   8323SM  H23G11143   1.848   6.015  11.313 -0.8154  0.6018 -0.3977
   8323SM  H23H11144   1.977   5.885  11.321  0.6468  2.2083  0.0213
   8423SM     N11145   0.275   3.259   8.534  0.6993  0.6303  0.1952
   8423SM   C1511146   0.316   3.381   8.461 -0.3929  0.0787  0.5228
   8423SM  H15A11147   0.266   3.468   8.500  1.5775  1.1937  0.6659
   8423SM  H15B11148   0.293   3.380   8.355 -0.3518  0.6736  0.5026
   8423SM  H15C11149   0.420   3.406   8.479  0.3047 -1.8526 -0.5567
   8423SM   C1411150   0.132   3.219   8.494 -0.4671 -0.1358  0.5264
   8423SM  H14A11151   0.128   3.210   8.387  0.5425  0.2010  0.4417
   8423SM  H14B11152   0.066   3.291   8.539 -0.1875 -0.2134  1.0739
   8423SM  H14C11153   0.110   3.120   8.531 -2.2710 -0.0514 -0.2630
   8423SM   C1311154   0.370   3.155   8.489 -0.0620  0.4129  0.2413
   8423SM  H13A11155   0.369   3.153   8.381  1.9152 -1.0271  0.1916
   8423SM  H13B11156   0.338   3.058   8.525  0.3647 -0.6506 -2.0600
   8423SM  H13C11157   0.474   3.166   8.516 -0.4311 -1.5318  2.9441
   8423SM   C1211158   0.295   3.269   8.682 -0.4930  0.2207  0.0100
   8423SM  H12A11159   0.398   3.296   8.698  0.1052 -2.2014  0.7173
   8423SM  H12B11160   0.276   3.170   8.722 -1.2495  0.2637 -0.2321
   8423SM   C1111161   0.203   3.358   8.769  0.2954 -0.2374  0.3958
   8423SM  H11A11162   0.234   3.351   8.876  0.9376  0.1685  0.2449
   8423SM  H11B11163   0.099   3.322   8.758  0.0878  0.4437  0.0340
   8423SM     P11164   0.272   3.609   8.815  0.0375 -0.2312 -0.0530
   8423SM   O1311165   0.417   3.591   8.809 -0.0503  0.0399 -0.1459
   8423SM   O1411166   0.219   3.738   8.762 -0.2423 -0.4955 -0.2401
   8423SM   O1111167   0.210   3.577   8.951 -0.1822  0.8504 -0.5584
   8423SM   O1211168   0.205   3.502   8.732  0.1510  0.2711 -0.1507
   8423SM   C1S11169   0.090   3.646   8.996 -0.1342  0.2494 -0.6332
   8423SM   H1S11170   0.002   3.617   8.935 -3.2299  3.3444  1.8911
   8423SM   H1T11171   0.102   3.755   8.979  2.5164 -0.0030 -0.7079
   8423SM    NF11172  -0.062   3.706   9.191  0.2621 -0.0524  0.5867
   8423SM   HNF11173  -0.039   3.784   9.249  1.8406 -0.2192  0.2450
   8423SM   C2S11174   0.047   3.623   9.155 -0.5022  0.3459  0.0151
   8423SM   H2S11175   0.016   3.517   9.160 -1.6487  0.6331 -0.5363
   8423SM   C3S11176   0.172   3.643   9.240  0.2334  0.1830  0.2918
   8423SM   H3S11177   0.215   3.743   9.217 -0.1306  0.5849  1.3254
   8423SM    O311178   0.278   3.552   9.210 -0.0614  0.4902  0.3475
   8423SM   HO311179   0.255   3.524   9.120  1.4153  0.2118  0.0249
   8423SM   C4S11180   0.140   3.640   9.385 -0.2412  0.0835  0.0287
   8423SM   H4S11181   0.119   3.739   9.429 -1.3093 -0.4512  0.7622
   8423SM   C5S11182   0.139   3.538   9.466 -0.1336 -0.2036  0.7090
   8423SM   H5S11183   0.163   3.438   9.426 -0.4418  0.0957 -0.2743
   8423SM   C6S11184   0.100   3.543   9.611  0.4352  0.1212 -0.1457
   8423SM   H6S11185   0.186   3.562   9.678  0.7624 -3.0571  0.4955
   8423SM   H6T11186   0.069   3.441   9.643  0.5601 -0.0460 -0.5583
   8423SM   C7S11187  -0.004   3.645   9.659  0.9406 -0.0863  0.5680
   8423SM   H7S11188  -0.097   3.642   9.598  0.4532 -2.1324  1.3271
   8423SM   H7T11189   0.039   3.748   9.659  0.7629 -0.0123  0.2236
   8423SM   C8S11190  -0.066   3.626   9.801  0.3672 -0.6527  0.6940
   8423SM   H8S11191  -0.122   3.530   9.802 -0.5993 -0.1367 -0.6799
   8423SM   H8T11192  -0.138   3.704   9.835  2.6344  1.9010 -0.0742
   8423SM   C9S11193   0.048   3.617   9.909 -0.5151 -0.0559 -0.1722
   8423SM   H9S11194   0.106   3.711   9.895 -0.7633 -0.1764 -2.3671
   8423SM   H9T11195   0.126   3.543   9.880 -1.0379 -0.3272 -0.9238
   8423SM  C10S11196  -0.004   3.593  10.055 -0.6583  0.0242 -0.3360
   8423SM  H10S11197  -0.084   3.668  10.073 -1.5499 -1.5214  2.8210
   8423SM  H10T11198   0.081   3.619  10.122 -0.7205 -1.9600  0.5949
   8423SM  C11S11199  -0.065   3.450  10.070  0.1895 -0.2889  0.5109
   8423SM  H11S11200   0.022   3.381  10.064  0.6024  0.1945  0.7966
   8423SM  H11T11201  -0.130   3.431   9.982  1.9610  0.8275 -1.1200
   8423SM  C12S11202  -0.137   3.444  10.204  0.4658 -0.7810  0.7097
   8423SM  H12S11203  -0.193   3.348  10.202 -1.2178  0.1612 -1.9716
   8423SM  H12T11204  -0.212   3.526  10.208  1.9791  0.7328 -0.4006
   8423SM  C13S11205  -0.062   3.472  10.334 -0.2505 -0.0559 -0.0542
   8423SM  H13S11206  -0.063   3.580  10.360  1.5126 -0.2315  0.9417
   8423SM  H13T11207   0.043   3.445  10.309 -0.9972 -3.6880  0.1182
   8423SM  C14S11208  -0.103   3.395  10.460  0.0712 -0.0725 -0.4772
   8423SM  H14S11209  -0.102   3.284  10.456 -0.3796 -0.2031  1.5766
   8423SM  H14T11210  -0.205   3.425  10.492  0.2454 -0.1366  0.1524
   8423SM  C15S11211  -0.003   3.428  10.568 -0.8870 -0.2930  0.0164
   8423SM  H15S11212   0.030   3.534  10.569 -1.2149 -0.0988 -2.5169
   8423SM  H15T11213   0.090   3.370  10.553 -0.3493  0.6068 -0.2132
   8423SM  C16S11214  -0.064   3.376  10.706 -0.5245  0.1850  0.5055
   8423SM  H16S11215  -0.085   3.267  10.711 -2.3646  0.5335  2.1974
   8423SM  H16T11216  -0.168   3.416  10.718 -1.9177 -3.0079  0.1406
   8423SM  C17S11217   0.018   3.416  10.833 -0.0687  0.0206  0.2813
   8423SM  H17S11218   0.040   3.525  10.828 -1.9174  0.5808  2.4613
   8423SM  H17T11219   0.113   3.359  10.843 -0.9029 -1.7617 -1.3551
   8423SM  C18S11220  -0.067   3.395  10.967 -0.6005  0.6259 -0.2792
   8423SM  H18S11221  -0.170   3.436  10.968 -0.7609  0.3139  1.9885
   8423SM  H18T11222  -0.019   3.443  11.055 -0.3983  0.7445 -0.4514
   8423SM  H18U11223  -0.062   3.285  10.984  0.3389  0.7567  0.3693
   8423SM   C1F11224  -0.186   3.699   9.146  0.0276  0.5164  0.6579
   8423SM    OF11225  -0.215   3.610   9.065  0.4293 -0.3739  0.3209
   8423SM   C2F11226  -0.290   3.797   9.173 -0.2484 -0.2050 -0.7033
   8423SM   H2F11227  -0.386   3.761   9.129 -1.4462  0.0258  1.6062
   8423SM   H2G11228  -0.259   3.895   9.131 -0.1031  0.2074  0.3489
   8423SM   C3F11229  -0.301   3.812   9.325  0.5775  0.4419 -0.7504
   8423SM   H3F11230  -0.386   3.882   9.342 -0.4208 -1.0690  0.7744
   8423SM   H3G11231  -0.207   3.844   9.376 -0.1402 -0.9337  1.5789
   8423SM   C4F11232  -0.342   3.688   9.403 -0.0775  0.1713  0.4405
   8423SM   H4F11233  -0.255   3.620   9.413  1.0931  1.8442  2.1699
   8423SM   H4G11234  -0.418   3.638   9.338  0.6377  0.4887 -0.6765
   8423SM   C5F11235  -0.391   3.714   9.542 -0.3715 -0.8883  0.1113
   8423SM   H5F11236  -0.482   3.776   9.552 -1.5685 -2.4554 -0.4899
   8423SM   H5G11237  -0.315   3.773   9.597 -0.5900  0.4016 -0.9362
   8423SM   C6F11238  -0.421   3.585   9.613 -0.0753  0.2524 -0.6559
   8423SM   H6F11239  -0.333   3.518   9.605  0.4026  0.7524  0.2380
   8423SM   H6G11240  -0.501   3.529   9.561  0.7783  0.0845 -1.8209
   8423SM   C7F11241  -0.451   3.609   9.762 -0.0239  0.6427 -0.5265
   8423SM   H7F11242  -0.533   3.682   9.780  0.7651  1.0633  1.7869
   8423SM   H7G11243  -0.365   3.664   9.807  0.5749  1.0515 -2.0880
   8423SM   C8F11244  -0.478   3.488   9.855  0.3574 -0.2800 -0.2172
   8423SM   H8F11245  -0.379   3.441   9.877  0.9880  1.4345  0.7587
   8423SM   H8G11246  -0.543   3.414   9.803  0.0259 -1.0612  1.2529
   8423SM   C9F11247  -0.524   3.530   9.989  0.4601 -0.3906 -0.0642
   8423SM   H9F11248  -0.623   3.579   9.979  0.7848  0.6692  1.5317
   8423SM   H9G11249  -0.452   3.603  10.032 -0.6094  0.6513  0.0344
   8423SM  C10F11250  -0.531   3.411  10.086  0.0403 -0.2921 -0.3282
   8423SM  H10F11251  -0.433   3.369  10.117 -0.3587  0.1875  1.7000
   8423SM  H10G11252  -0.597   3.326  10.056 -1.3489  0.2510  1.0597
   8423SM  C11F11253  -0.595   3.461  10.217  0.3656 -0.4212 -0.2856
   8423SM  H11F11254  -0.705   3.464  10.203  0.2076 -2.3885  0.3675
   8423SM  H11G11255  -0.542   3.554  10.247 -0.6813  0.8181 -2.0752
   8423SM  C12F11256  -0.590   3.360  10.336  0.4604  0.2942 -0.1751
   8423SM  H12F11257  -0.489   3.370  10.382  0.2165  0.4233  0.3406
   8423SM  H12G11258  -0.600   3.259  10.290  2.0011 -0.0721  0.2293
   8423SM  C13F11259  -0.701   3.398  10.435 -0.4303  0.2573 -0.2813
   8423SM  H13F11260  -0.798   3.388  10.382 -1.0010 -0.6842  0.9150
   8423SM  H13G11261  -0.701   3.506  10.462  1.0154  0.3371 -0.5064
   8423SM  C14F11262  -0.700   3.310  10.561 -0.3186  0.3807 -0.5623
   8423SM  H14F11263  -0.682   3.203  10.538  1.4045  0.3974  0.5598
   8423SM  H14G11264  -0.803   3.317  10.603 -0.6706  0.4369 -1.4140
   8423SM  C15F11265  -0.611   3.367  10.666 -0.4315 -0.0826 -0.7936
   8423SM  H15F11266  -0.639   3.470  10.697  2.3070  0.7948 -0.9731
   8423SM  H15G11267  -0.507   3.382  10.630  0.1610 -0.6236  0.6248
   8423SM  C16F11268  -0.612   3.273  10.791 -0.3188 -0.4519 -0.7643
   8423SM  H16F11269  -0.592   3.169  10.757  0.9503 -0.7272  0.7151
   8423SM  H16G11270  -0.708   3.278  10.846 -0.5867  1.7530 -1.3051
   8423SM  C17F11271  -0.499   3.306  10.880  0.2469 -0.4603  0.6138
   8423SM  H17F11272  -0.512   3.409  10.920 -0.6178 -0.2535 -0.1815
   8423SM  H17G11273  -0.411   3.300  10.812 -0.7365 -0.5174 -0.6741
   8423SM  C18F11274  -0.476   3.217  11.003 -0.0836 -0.3175  0.4019
   8423SM  H18F11275  -0.471   3.110  10.973  0.7137 -0.9177  2.5334
   8423SM  H18G11276  -0.570   3.231  11.061  0.0464 -0.8787  0.7581
   8423SM  C19F11277  -0.352   3.250  11.098  0.0414  0.0502 -0.2001
   8423SM  H19F11278  -0.351   3.361  11.111  2.0197 -0.0793  1.3146
   8423SM  H19G11279  -0.261   3.231  11.038  2.4882  1.8652  2.6364
   8423SM  C20F11280  -0.353   3.170  11.227 -0.1813  0.3165 -0.4599
   8423SM  H20F11281  -0.317   3.071  11.193 -0.2889  0.4755 -1.0427
   8423SM  H20G11282  -0.451   3.162  11.280  0.4685  1.5567  0.9803
   8423SM  C21F11283  -0.267   3.227  11.340  0.0209  0.1231  0.4013
   8423SM  H21F11284  -0.305   3.329  11.361  0.4413  0.8470 -2.0768
   8423SM  H21G11285  -0.160   3.219  11.311 -0.5948 -2.3756 -1.4542
   8423SM  C22F11286  -0.273   3.147  11.465 -0.0803 -0.4631 -0.1900
   8423SM  H22F11287  -0.267   3.038  11.443  0.4773 -0.1067 -1.9081
   8423SM  H22G11288  -0.358   3.165  11.534 -0.6042  1.1740 -1.2135
   8423SM  C23F11289  -0.145   3.174  11.559 -0.2560  0.3142  0.6296
   8423SM  H23F11290  -0.154   3.131  11.660 -2.4684  1.0963  0.8209
   8423SM  H23G11291  -0.144   3.286  11.557 -0.3028  0.3707  2.5648
   8423SM  H23H11292  -0.054   3.143  11.503 -1.6821  0.7767 -2.1720
   8523SM     N11293   1.428   5.432   9.117 -0.3273 -0.4130 -0.0465
   8523SM   C1511294   1.506   5.320   9.060 -0.5972 -0.5376  0.3962
   8523SM  H15A11295   1.599   5.365   9.030 -1.6959  1.3683 -0.3827
   8523SM  H15B11296   1.460   5.286   8.968  1.1945  0.9499 -1.1461
   8523SM  H15C11297   1.529   5.239   9.127  0.7505 -0.1906  0.3819
   8523SM   C1411298   1.385   5.528   9.010  0.1803 -0.2419  0.0259
   8523SM  H14A11299   1.349   5.467   8.927 -1.0631  0.6703 -0.1324
   8523SM  H14B11300   1.465   5.593   8.978 -1.3735  2.2353  0.8851
   8523SM  H14C11301   1.310   5.597   9.047  2.6592  2.0267  1.0817
   8523SM   C1311302   1.310   5.360   9.169  0.6190 -0.3337  0.1304
   8523SM  H13A11303   1.244   5.408   9.240 -0.0845  0.6942 -1.1712
   8523SM  H13B11304   1.340   5.270   9.222 -1.8844 -0.9720  0.6021
   8523SM  H13C11305   1.251   5.329   9.084 -0.7639 -1.0709  1.3003
   8523SM   C1211306   1.502   5.507   9.228 -0.1409  0.3429  0.6884
   8523SM  H12A11307   1.521   5.426   9.296  0.5418  0.8283  1.0871
   8523SM  H12B11308   1.436   5.573   9.281 -2.9874 -1.5356 -0.2783
   8523SM   C1111309   1.643   5.572   9.191  0.3727  0.5841  0.0282
   8523SM  H11A11310   1.692   5.641   9.263 -0.4184 -1.2794  2.5043
   8523SM  H11B11311   1.628   5.640   9.105 -0.4853 -0.9391 -1.0826
   8523SM     P11312   1.878   5.512   9.106  0.1833 -0.2933  0.5786
   8523SM   O1311313   1.962   5.392   9.099 -0.5768 -0.1289  0.0235
   8523SM   O1411314   1.874   5.591   8.982 -0.1704  0.4636  0.2016
   8523SM   O1111315   1.934   5.599   9.226 -0.6335  0.1557 -0.1491
   8523SM   O1211316   1.736   5.471   9.152  0.4441  0.4657 -0.1243
   8523SM   C1S11317   1.980   5.534   9.343 -0.4557 -0.0094  0.6937
   8523SM   H1S11318   2.068   5.474   9.312 -1.5775 -3.0731  2.8415
   8523SM   H1T11319   1.904   5.465   9.387  0.9090 -0.5750  2.2875
   8523SM    NF11320   2.091   5.556   9.565 -0.3312  0.5494  0.5223
   8523SM   HNF11321   2.030   5.545   9.642 -0.8145  2.7293  0.5252
   8523SM   C2S11322   2.037   5.632   9.445  0.3229  0.3390  1.0712
   8523SM   H2S11323   2.128   5.680   9.402 -1.0829  1.9421 -0.2644
   8523SM   C3S11324   1.934   5.744   9.466  0.2222 -0.4351 -0.7700
   8523SM   H3S11325   1.837   5.694   9.488 -0.2622  0.2151 -1.3801
   8523SM    O311326   1.901   5.812   9.346  0.1970 -0.7217  0.7490
   8523SM   HO311327   1.911   5.739   9.284  2.2751  0.8181 -0.8680
   8523SM   C4S11328   1.967   5.825   9.589  0.2401  0.1151 -0.2161
   8523SM   H4S11329   1.962   5.761   9.678 -1.9500  0.6379  0.1027
   8523SM   C5S11330   2.011   5.950   9.599  0.2639 -0.2590  0.2228
   8523SM   H5S11331   2.022   6.013   9.509  0.2159 -1.1306 -0.4146
   8523SM   C6S11332   2.044   6.017   9.734 -0.9390  0.3624  0.6733
   8523SM   H6S11333   1.998   6.118   9.739  1.6687  1.7153 -0.5107
   8523SM   H6T11334   2.152   6.044   9.726 -0.6694 -0.8352 -0.1303
   8523SM   C7S11335   2.025   5.941   9.867 -0.6567 -0.0961 -0.4875
   8523SM   H7S11336   2.039   5.831   9.854 -0.2145 -0.0861 -0.1274
   8523SM   H7T11337   1.918   5.961   9.888 -0.3706  1.7343 -0.6554
   8523SM   C8S11338   2.111   5.996   9.977  0.2205  0.4048  0.3235
   8523SM   H8S11339   2.104   6.107   9.970 -1.2571  0.3342  0.4296
   8523SM   H8T11340   2.213   5.961   9.951  0.1551 -2.0500  2.9316
   8523SM   C9S11341   2.057   5.958  10.115  0.2783 -0.2587 -0.3993
   8523SM   H9S11342   2.040   5.848  10.127 -0.5088 -0.0240  0.7469
   8523SM   H9T11343   1.959   6.008  10.127  0.3700 -0.3625  0.8998
   8523SM  C10S11344   2.150   5.997  10.227  0.4683 -0.6063 -0.0368
   8523SM  H10S11345   2.165   6.106  10.215  1.0897 -0.6076  0.6789
   8523SM  H10T11346   2.255   5.960  10.219  1.1409  0.5239  2.5562
   8523SM  C11S11347   2.093   5.980  10.369 -0.3644  0.4971 -0.0858
   8523SM  H11S11348   2.083   5.870  10.377  0.6660  0.4186  0.2380
   8523SM  H11T11349   1.994   6.030  10.371 -0.2212  0.7581  0.8658
   8523SM  C12S11350   2.186   6.042  10.477  0.1928  0.0660 -0.8908
   8523SM  H12S11351   2.209   6.148  10.454  0.4472 -0.3536 -2.6926
   8523SM  H12T11352   2.278   5.982  10.464  1.1669  0.9439  1.4245
   8523SM  C13S11353   2.129   6.028  10.617  0.3526 -0.1896 -0.3013
   8523SM  H13S11354   2.089   5.925  10.631 -2.0431  0.4931 -1.5260
   8523SM  H13T11355   2.039   6.092  10.624  0.6419  0.8064 -3.6932
   8523SM  C14S11356   2.221   6.079  10.735 -0.3697  0.2482  0.6439
   8523SM  H14S11357   2.261   6.181  10.716  2.7581 -1.0954 -0.7383
   8523SM  H14T11358   2.310   6.013  10.748 -0.6074 -0.2047  0.0354
   8523SM  C15S11359   2.150   6.069  10.868  0.8438  0.0898  0.3391
   8523SM  H15S11360   2.111   5.965  10.870 -1.0421  0.7545  0.3267
   8523SM  H15T11361   2.064   6.139  10.872  1.2624  0.7551 -1.3557
   8523SM  C16S11362   2.236   6.094  10.989 -0.3339 -0.3872 -0.2324
   8523SM  H16S11363   2.292   6.187  10.965  0.6920 -0.6651  0.9942
   8523SM  H16T11364   2.317   6.018  10.991 -0.5967 -0.6462  1.0698
   8523SM  C17S11365   2.171   6.084  11.126  0.2184  0.2480  0.0535
   8523SM  H17S11366   2.241   6.066  11.210  0.5178 -1.5520 -0.5272
   8523SM  H17T11367   2.097   6.001  11.122 -1.9764  2.1473 -0.6952
   8523SM  C18S11368   2.094   6.214  11.170  0.6947  0.3034 -0.7984
   8523SM  H18S11369   2.023   6.207  11.255 -1.2550  3.7211 -1.9642
   8523SM  H18T11370   2.039   6.251  11.081 -0.2797  4.0151  1.1846
   8523SM  H18U11371   2.176   6.284  11.195 -0.6815  2.0255 -0.9403
   8523SM   C1F11372   2.205   5.492   9.556  0.2396 -0.0683 -0.1813
   8523SM    OF11373   2.279   5.501   9.457  0.6274  0.3596 -0.3515
   8523SM   C2F11374   2.244   5.400   9.664 -0.3388  0.2410 -0.5470
   8523SM   H2F11375   2.306   5.321   9.617  1.3417  0.9390  0.4061
   8523SM   H2G11376   2.154   5.346   9.702  0.6239 -1.6416 -0.8108
   8523SM   C3F11377   2.320   5.468   9.781 -0.9131  0.0446 -0.4556
   8523SM   H3F11378   2.415   5.502   9.734 -1.4905 -0.8784 -2.3878
   8523SM   H3G11379   2.338   5.382   9.849  1.2743 -1.0553 -2.2728
   8523SM   C4F11380   2.249   5.587   9.838  0.3425 -0.1212 -0.6047
   8523SM   H4F11381   2.141   5.570   9.858  0.1947  2.8475  1.8371
   8523SM   H4G11382   2.260   5.674   9.770 -1.6120  0.1012 -0.6921
   8523SM   C5F11383   2.320   5.640   9.965 -0.2156 -0.8021  1.0788
   8523SM   H5F11384   2.265   5.726  10.008  0.8864  1.6667 -2.0748
   8523SM   H5G11385   2.424   5.675   9.945 -0.6027  1.1041  2.1441
   8523SM   C6F11386   2.320   5.549  10.089  0.0665  0.2769  0.1747
   8523SM   H6F11387   2.377   5.455  10.077  0.5795  0.1629  2.9098
   8523SM   H6G11388   2.214   5.524  10.114 -0.0910  1.6529  0.9684
   8523SM   C7F11389   2.366   5.632  10.214  0.5295 -0.2977 -0.2711
   8523SM   H7F11390   2.305   5.722  10.234  3.3883  1.9512 -0.9677
   8523SM   H7G11391   2.464   5.675  10.184  0.6078  0.4545  1.0135
   8523SM   C8F11392   2.402   5.555  10.343 -0.7389  0.2642  0.7551
   8523SM   H8F11393   2.493   5.496  10.320 -1.1311  0.1906 -0.7630
   8523SM   H8G11394   2.321   5.480  10.353  2.0461 -3.4370 -1.5343
   8523SM   C9F11395   2.430   5.648  10.461 -0.5757 -0.5324 -0.5204
   8523SM   H9F11396   2.339   5.706  10.490 -1.0610 -0.3806 -2.2242
   8523SM   H9G11397   2.509   5.719  10.429  0.5684 -1.3577  0.4120
   8523SM  C10F11398   2.488   5.579  10.588  0.6058 -0.1122 -0.5053
   8523SM  H10F11399   2.587   5.537  10.560  0.5037  0.2354 -1.4303
   8523SM  H10G11400   2.421   5.499  10.626  2.0402 -0.3849  1.6393
   8523SM  C11F11401   2.514   5.686  10.702  0.0709 -0.2404  0.1321
   8523SM  H11F11402   2.421   5.736  10.738  1.4556  0.5958  2.7877
   8523SM  H11G11403   2.582   5.758  10.652  0.2622  0.2635  1.1001
   8523SM  C12F11404   2.572   5.625  10.819 -0.0862  0.2805  0.1725
   8523SM  H12F11405   2.654   5.562  10.779 -0.6595  0.1929 -0.9045
   8523SM  H12G11406   2.507   5.550  10.869 -0.5816 -0.1909 -1.1441
   8523SM  C13F11407   2.634   5.725  10.909 -0.3687  0.3248  0.1869
   8523SM  H13F11408   2.559   5.785  10.964 -2.0552 -1.7811  0.2804
   8523SM  H13G11409   2.696   5.790  10.843  2.5183 -1.7195  0.6635
   8523SM  C14F11410   2.731   5.661  11.012  0.2148 -0.4517  0.3182
   8523SM  H14F11411   2.807   5.602  10.957  1.6464  2.2842 -0.8621
   8523SM  H14G11412   2.666   5.595  11.073 -2.0216 -1.1790 -2.5913
   8523SM  C15F11413   2.797   5.767  11.104  0.2520 -0.5001 -0.6164
   8523SM  H15F11414   2.869   5.825  11.041 -0.4939  0.9189 -0.2063
   8523SM  H15G11415   2.841   5.704  11.184  2.2484  0.5385 -0.8176
   8523SM  C16F11416   2.683   5.856  11.179 -0.1564 -0.0288  0.2491
   8523SM  H16F11417   2.620   5.784  11.234  1.2578  0.3047  2.4141
   8523SM  H16G11418   2.635   5.913  11.096 -1.7685 -0.6335  0.7291
   8523SM  C17F11419   2.734   5.949  11.293 -0.6698 -0.0914  0.2371
   8523SM  H17F11420   2.813   6.015  11.251 -1.4555  0.8775  0.2421
   8523SM  H17G11421   2.794   5.897  11.371  1.4058 -0.1740 -1.3333
   8523SM  C18F11422   2.617   6.033  11.360 -0.9607  0.8461 -0.2050
   8523SM  H18F11423   2.549   5.959  11.407  0.3321 -0.4568 -0.3113
   8523SM  H18G11424   2.555   6.079  11.280  0.1399  1.4312 -0.7470
   8523SM  C19F11425   2.663   6.128  11.471 -0.3586  0.1133  0.2870
   8523SM  H19F11426   2.734   6.199  11.424  0.1956 -1.0018 -0.5936
   8523SM  H19G11427   2.711   6.086  11.562  1.9189 -2.2930 -1.8955
   8523SM  C20F11428   2.539   6.209  11.508  0.3628 -0.4167 -0.0295
   8523SM  H20F11429   2.485   6.234  11.414  0.1390  0.6961  0.3758
   8523SM  H20G11430   2.579   6.298  11.562  0.8604 -0.3870 -0.4319
   8523SM  C21F11431   2.448   6.161  11.622  0.5467  0.5910  0.4435
   8523SM  H21F11432   2.416   6.239  11.694  2.6632 -0.4512  2.6953
   8523SM  H21G11433   2.499   6.079  11.677 -1.3037 -0.5395  0.5661
   8523SM  C22F11434   2.317   6.093  11.570  0.3243 -0.0916 -0.1807
   8523SM  H22F11435   2.333   6.014  11.493 -1.2009 -0.6261  0.0194
   8523SM  H22G11436   2.255   6.169  11.518 -0.2192 -0.5413 -0.1970
   8523SM  C23F11437   2.237   6.038  11.685  0.6579 -0.2960 -0.6533
   8523SM  H23F11438   2.240   6.110  11.769 -1.4461 -1.4897  0.5334
   8523SM  H23G11439   2.262   5.938  11.727 -0.6147  0.2370  1.5125
   8523SM  H23H11440   2.128   6.037  11.665  0.5888  0.4866 -0.3345
   8623SM     N11441   0.699   4.274   9.210  0.1142  0.4905  0.4866
   8623SM   C1511442   0.826   4.208   9.182 -0.4282 -0.1647  0.1580
   8623SM  H15A11443   0.894   4.262   9.117  0.1727  0.4647  1.2772
   8623SM  H15B11444   0.805   4.111   9.140  0.2960 -0.7596  1.1203
   8623SM  H15C11445   0.888   4.193   9.270 -1.2957  0.4908  0.8960
   8623SM   C1411446   0.625   4.200   9.312 -0.4361  0.5555 -0.4021
   8623SM  H14A11447   0.687   4.186   9.400 -0.5775 -2.2671 -0.6874
   8623SM  H14B11448   0.596   4.102   9.279  1.1361  0.1289 -0.5929
   8623SM  H14C11449   0.534   4.252   9.340 -0.1907  1.0500 -0.5035
   8623SM   C1311450   0.735   4.405   9.262  0.3121 -0.1149 -0.2472
   8623SM  H13A11451   0.644   4.461   9.275 -1.8473 -2.8177 -2.5017
   8623SM  H13B11452   0.813   4.455   9.206  1.9844 -1.6273  0.6292
   8623SM  H13C11453   0.786   4.394   9.357  1.4997  1.2064 -0.6848
   8623SM   C1211454   0.612   4.290   9.086 -0.1132  0.3295  0.1133
   8623SM  H12A11455   0.661   4.359   9.019  0.4625  0.6460  0.8343
   8623SM  H12B11456   0.520   4.339   9.113 -1.3239 -1.4010 -0.7576
   8623SM   C1111457   0.585   4.161   9.001  0.2535 -0.0610 -0.3494
   8623SM  H11A11458   0.512   4.194   8.924  0.9661  0.9142 -0.6205
   8623SM  H11B11459   0.534   4.086   9.066 -0.9089  1.0865  0.1170
   8623SM     P11460   0.688   3.971   8.873  0.5199 -0.4749 -0.3542
   8623SM   O1311461   0.552   3.961   8.811 -0.0404 -0.5498 -0.1968
   8623SM   O1411462   0.798   3.949   8.777  0.1642 -0.1793  0.6586
   8623SM   O1111463   0.689   3.869   8.988  0.7689  0.0288 -0.3709
   8623SM   O1211464   0.710   4.108   8.945  0.4545  0.1924  0.1364
   8623SM   C1S11465   0.602   3.752   8.994 -0.2197  0.1413 -0.2538
   8623SM   H1S11466   0.629   3.685   8.910 -0.6643 -0.8857  0.3910
   8623SM   H1T11467   0.494   3.775   8.988 -0.4092  0.1477  2.1462
   8623SM    NF11468   0.560   3.550   9.129  0.2876  0.2097 -0.3997
   8623SM   HNF11469   0.474   3.553   9.179  0.1507 -1.2294 -0.5215
   8623SM   C2S11470   0.627   3.679   9.130 -0.0470  0.0274  0.8016
   8623SM   H2S11471   0.735   3.653   9.123  0.0429  0.7509 -1.6703
   8623SM   C3S11472   0.596   3.778   9.251 -0.3049 -0.2289  0.4073
   8623SM   H3S11473   0.488   3.801   9.254 -0.0239  1.0387  2.0074
   8623SM    O311474   0.678   3.896   9.258  0.2549 -0.4037  0.2806
   8623SM   HO311475   0.710   3.896   9.168 -0.7632 -3.6169 -0.2053
   8623SM   C4S11476   0.623   3.701   9.379  0.0259  0.3394  0.4705
   8623SM   H4S11477   0.719   3.650   9.394 -0.3430 -0.1231  1.3089
   8623SM   C5S11478   0.530   3.686   9.479 -0.0793  0.2486 -0.2632
   8623SM   H5S11479   0.434   3.741   9.480  0.3205  1.0402  2.2114
   8623SM   C6S11480   0.563   3.610   9.608  0.5427 -0.4794  0.9072
   8623SM   H6S11481   0.665   3.566   9.606 -0.3823 -2.8141 -0.6312
   8623SM   H6T11482   0.497   3.520   9.605 -0.0028 -0.0822 -2.0796
   8623SM   C7S11483   0.558   3.689   9.742  0.2711  0.3367  0.3546
   8623SM   H7S11484   0.476   3.764   9.742  0.1978  0.2606 -0.1912
   8623SM   H7T11485   0.652   3.749   9.745  0.3135  0.2347  1.4395
   8623SM   C8S11486   0.557   3.595   9.858  0.0330 -0.1400  0.0131
   8623SM   H8S11487   0.648   3.533   9.870 -0.1240 -0.3497  0.1170
   8623SM   H8T11488   0.473   3.524   9.840  1.1223 -1.2338 -0.8986
   8623SM   C9S11489   0.531   3.676   9.983  0.0285  0.0585 -0.9522
   8623SM   H9S11490   0.468   3.760   9.948 -1.2695 -0.5868 -0.2347
   8623SM   H9T11491   0.618   3.737  10.017 -0.0834 -0.5076  0.3800
   8623SM  C10S11492   0.472   3.593  10.100 -0.0219  0.2975 -0.0380
   8623SM  H10S11493   0.548   3.539  10.159  2.0241  0.1834 -2.6089
   8623SM  H10T11494   0.406   3.516  10.054 -0.4791  0.0182  1.0578
   8623SM  C11S11495   0.387   3.683  10.190  0.2172  0.2259 -0.3218
   8623SM  H11S11496   0.312   3.733  10.125  0.3089 -0.1580 -0.7315
   8623SM  H11T11497   0.459   3.766  10.204 -0.6624  0.7847  1.1149
   8623SM  C12S11498   0.322   3.610  10.314 -0.4384  0.2755  0.0288
   8623SM  H12S11499   0.297   3.505  10.288 -1.1220  0.4533 -0.0478
   8623SM  H12T11500   0.232   3.666  10.348  0.6856  1.8853  0.4243
   8623SM  C13S11501   0.408   3.602  10.432 -0.1047  0.0551 -0.2447
   8623SM  H13S11502   0.465   3.694  10.458  1.0897 -1.1300  1.6269
   8623SM  H13T11503   0.476   3.516  10.412 -2.1435 -1.4231 -1.2373
   8623SM  C14S11504   0.321   3.584  10.566 -0.9584  0.3965  0.4973
   8623SM  H14S11505   0.270   3.485  10.568 -0.4881  0.0578 -1.7043
   8623SM  H14T11506   0.234   3.651  10.577 -2.7458 -1.0813 -3.2211
   8623SM  C15S11507   0.414   3.587  10.687 -0.4988 -0.0811 -0.8403
   8623SM  H15S11508   0.465   3.685  10.698 -0.3770 -0.1591 -0.7010
   8623SM  H15T11509   0.495   3.511  10.683  0.5719  0.9654  0.3860
   8623SM  C16S11510   0.334   3.568  10.817  0.1027  0.4331  0.3418
   8623SM  H16S11511   0.295   3.465  10.818  0.5259  0.2657  1.1571
   8623SM  H16T11512   0.251   3.641  10.823  0.1371  0.9331 -3.3543
   8623SM  C17S11513   0.422   3.583  10.936  0.3855 -0.0791 -0.1983
   8623SM  H17S11514   0.451   3.690  10.939  3.0317 -0.6969 -0.9946
   8623SM  H17T11515   0.520   3.531  10.925  1.2200  1.2874  0.5122
   8623SM  C18S11516   0.352   3.544  11.065 -0.6465  0.2364  1.0530
   8623SM  H18S11517   0.261   3.602  11.090  1.0475  2.9351  1.3003
   8623SM  H18T11518   0.418   3.544  11.154 -0.2408 -0.0334  0.7550
   8623SM  H18U11519   0.312   3.440  11.060 -0.0907  0.0739 -2.3803
   8623SM   C1F11520   0.578   3.443   9.042 -0.8189  0.1496 -0.5408
   8623SM    OF11521   0.670   3.438   8.957 -0.0755  0.0845  0.3308
   8623SM   C2F11522   0.477   3.333   9.047 -0.1807  0.1909 -0.3953
   8623SM   H2F11523   0.494   3.278   8.952  0.0514  2.3606 -1.6754
   8623SM   H2G11524   0.371   3.368   9.049  0.2835  1.6649  2.2687
   8623SM   C3F11525   0.502   3.233   9.158 -0.6179 -0.4929  0.2649
   8623SM   H3F11526   0.607   3.197   9.163 -0.4125  0.2282  1.5167
   8623SM   H3G11527   0.435   3.144   9.149 -1.2545 -0.6374  4.4051
   8623SM   C4F11528   0.461   3.281   9.299 -0.0731 -0.4095  0.1053
   8623SM   H4F11529   0.373   3.349   9.312 -0.9727 -1.5533  0.1744
   8623SM   H4G11530   0.547   3.337   9.341  0.6404 -0.7185 -0.9001
   8623SM   C5F11531   0.454   3.152   9.396  0.0995  0.2024 -0.2792
   8623SM   H5F11532   0.549   3.095   9.388 -1.4708 -2.6878  0.4499
   8623SM   H5G11533   0.370   3.091   9.356  0.4025 -0.6585  0.3743
   8623SM   C6F11534   0.428   3.197   9.540 -0.0150 -0.1060  0.3453
   8623SM   H6F11535   0.349   3.275   9.541  2.0829  2.1589  0.5798
   8623SM   H6G11536   0.519   3.249   9.576  1.9801 -2.0679 -1.5483
   8623SM   C7F11537   0.387   3.080   9.631  0.5899  0.2168 -0.6482
   8623SM   H7F11538   0.487   3.036   9.654  0.8917  0.4195 -1.5220
   8623SM   H7G11539   0.312   3.008   9.592 -0.5050  0.4217  1.0174
   8623SM   C8F11540   0.339   3.153   9.762 -0.1585 -0.0523  0.7345
   8623SM   H8F11541   0.259   3.226   9.739 -1.9866 -2.2225 -0.2200
   8623SM   H8G11542   0.421   3.213   9.807  0.9251 -1.5535  0.8410
   8623SM   C9F11543   0.278   3.057   9.865  0.2819 -0.7088  0.1472
   8623SM   H9F11544   0.335   2.964   9.884 -0.0797 -0.8197  0.7147
   8623SM   H9G11545   0.179   3.021   9.830 -1.6110  2.5387  1.6967
   8623SM  C10F11546   0.257   3.117  10.008 -0.4731 -0.3171  0.0804
   8623SM  H10F11547   0.211   3.216   9.988  0.4712 -0.2309 -1.8727
   8623SM  H10G11548   0.356   3.128  10.058  0.2248  0.7229 -1.4680
   8623SM  C11F11549   0.181   3.037  10.109  0.2469 -0.0382 -0.6390
   8623SM  H11F11550   0.217   2.932  10.113 -1.1486 -0.5391 -0.7584
   8623SM  H11G11551   0.072   3.040  10.089  0.4309  0.5359 -1.6557
   8623SM  C12F11552   0.201   3.092  10.248 -0.5264  0.6138  0.0349
   8623SM  H12F11553   0.159   3.194  10.262  0.9194  1.1885  0.3062
   8623SM  H12G11554   0.311   3.091  10.262 -0.1897  0.9379 -2.1412
   8623SM  C13F11555   0.137   3.010  10.361  0.1773  0.5142  0.1006
   8623SM  H13F11556   0.187   2.912  10.348 -0.6015  0.2787 -1.3071
   8623SM  H13G11557   0.027   3.010  10.349  0.2493  0.1402 -0.5859
   8623SM  C14F11558   0.189   3.043  10.499 -0.2665  0.0907  0.1685
   8623SM  H14F11559   0.162   3.149  10.515 -0.8150 -0.1353  0.8177
   8623SM  H14G11560   0.300   3.041  10.505 -0.1139 -0.3178 -1.9071
   8623SM  C15F11561   0.105   2.979  10.617  0.1404 -0.3321 -0.3980
   8623SM  H15F11562   0.096   2.869  10.604  1.1504 -0.3354 -1.1895
   8623SM  H15G11563  -0.002   3.008  10.603  0.9015  2.2523 -1.5527
   8623SM  C16F11564   0.166   3.029  10.746  0.0183 -0.0529 -0.4648
   8623SM  H16F11565   0.166   3.140  10.743  1.0293  0.0636  1.9798
   8623SM  H16G11566   0.271   2.992  10.747  0.3856  0.8194 -2.4171
   8623SM  C17F11567   0.092   2.976  10.872 -0.0090 -0.0708 -0.4243
   8623SM  H17F11568   0.066   2.869  10.861 -2.8048  0.7322 -3.3877
   8623SM  H17G11569   0.000   3.035  10.896  1.5090  1.3760  2.3950
   8623SM  C18F11570   0.181   2.976  11.001 -0.3468  0.1339  0.0605
   8623SM  H18F11571   0.224   3.078  11.001 -0.7302  0.3039  0.8629
   8623SM  H18G11572   0.261   2.899  10.997 -1.7155 -1.3310 -0.5498
   8623SM  C19F11573   0.107   2.966  11.138 -0.0914  0.1276 -0.6827
   8623SM  H19F11574   0.092   2.860  11.169  1.0074  0.7445  2.2712
   8623SM  H19G11575   0.012   3.021  11.122  0.1885  0.1511 -2.4457
   8623SM  C20F11576   0.175   3.036  11.265  0.2763  1.1198 -0.0127
   8623SM  H20F11577   0.279   3.002  11.283 -0.1495 -1.7688 -2.2263
   8623SM  H20G11578   0.115   3.020  11.357  0.8345 -0.1277  0.1632
   8623SM  C21F11579   0.177   3.192  11.254  0.5772  0.1281  0.0024
   8623SM  H21F11580   0.072   3.227  11.254  0.0419 -1.3913 -0.4893
   8623SM  H21G11581   0.215   3.235  11.158  0.2692 -1.1730 -0.7201
   8623SM  C22F11582   0.255   3.254  11.377  0.5605  0.0543  0.3374
   8623SM  H22F11583   0.358   3.214  11.360  1.1207  2.1888 -1.8888
   8623SM  H22G11584   0.218   3.211  11.473  0.3130 -0.0899  0.1782
   8623SM  C23F11585   0.265   3.398  11.399 -0.1732 -0.2955 -0.3750
   8623SM  H23F11586   0.331   3.447  11.324 -0.5285  2.8328  1.1652
   8623SM  H23G11587   0.320   3.416  11.494  0.7740 -2.5155 -0.4609
   8623SM  H23H11588   0.170   3.456  11.393  0.6432  1.3583  1.5095
   8723SM     N11589   1.349   2.697   8.636 -0.3694  0.5101  1.1863
   8723SM   C1511590   1.216   2.661   8.583  0.6667  0.5123 -0.2087
   8723SM  H15A11591   1.191   2.716   8.493 -0.9954 -2.2885 -1.5863
   8723SM  H15B11592   1.138   2.692   8.651  0.8898  1.8250 -0.5102
   8723SM  H15C11593   1.216   2.558   8.551  1.4039  1.0634 -2.1519
   8723SM   C1411594   1.396   2.625   8.754  0.0210  0.4690  0.1961
   8723SM  H14A11595   1.327   2.626   8.837 -0.6892 -1.3408 -0.3398
   8723SM  H14B11596   1.497   2.653   8.780  0.5487 -0.0772 -1.1518
   8723SM  H14C11597   1.394   2.520   8.730 -1.0781  0.4863  0.1710
   8723SM   C1311598   1.448   2.662   8.523  0.2810 -0.0498 -0.4619
   8723SM  H13A11599   1.552   2.685   8.538  0.2084  0.8499 -1.2164
   8723SM  H13B11600   1.431   2.713   8.429 -1.0492  0.6726  0.1434
   8723SM  H13C11601   1.440   2.557   8.502  0.3902 -0.6159  2.0147
   8723SM   C1211602   1.348   2.842   8.667  0.4518  0.8959  0.2854
   8723SM  H12A11603   1.327   2.893   8.574  1.3684  0.9313  0.0935
   8723SM  H12B11604   1.447   2.870   8.697  0.6318  0.7610 -0.1737
   8723SM   C1111605   1.249   2.888   8.772  0.5622  0.2896 -0.2319
   8723SM  H11A11606   1.289   2.980   8.819  2.3022 -1.1633  1.2553
   8723SM  H11B11607   1.237   2.811   8.850  3.7116 -1.3915 -1.2435
   8723SM     P11608   1.090   3.049   8.624 -0.1313  0.5221 -0.0127
   8723SM   O1311609   1.195   3.061   8.515 -0.1230 -0.4674  0.0856
   8723SM   O1411610   0.946   3.060   8.594  0.6836  0.1782 -0.8441
   8723SM   O1111611   1.108   3.160   8.737  1.0791 -0.0464  0.0463
   8723SM   O1211612   1.123   2.919   8.712  0.1805  0.1744 -0.2144
   8723SM   C1S11613   1.011   3.181   8.840  0.0435 -0.2473 -0.6970
   8723SM   H1S11614   1.029   3.111   8.924 -1.5788 -1.2809 -1.1572
   8723SM   H1T11615   0.904   3.165   8.813  0.3072 -0.9073 -1.3777
   8723SM    NF11616   0.928   3.335   9.010  0.3290 -0.0487  0.2415
   8723SM   HNF11617   0.849   3.396   9.007  0.3346 -0.0649 -0.4941
   8723SM   C2S11618   1.016   3.326   8.895  0.6550 -0.7784 -0.0089
   8723SM   H2S11619   1.121   3.345   8.926  0.7074 -1.0936  0.0085
   8723SM   C3S11620   0.989   3.430   8.779  0.0877  0.8045  0.1175
   8723SM   H3S11621   0.886   3.405   8.746 -0.4387  0.1761  2.0963
   8723SM    O311622   1.066   3.423   8.661 -0.4320  0.2410  0.0841
   8723SM   HO311623   1.124   3.346   8.665  0.2379  0.6615 -0.9244
   8723SM   C4S11624   0.982   3.573   8.832  0.4808  1.2033  0.3766
   8723SM   H4S11625   0.878   3.587   8.866  0.0710 -0.1474 -0.2278
   8723SM   C5S11626   1.076   3.671   8.838 -0.1229 -0.1678 -0.7608
   8723SM   H5S11627   1.178   3.644   8.807 -0.1012 -1.8053  0.5794
   8723SM   C6S11628   1.052   3.801   8.904  0.0149 -0.3856  0.3464
   8723SM   H6S11629   0.942   3.813   8.915  0.1232  2.4631 -0.8283
   8723SM   H6T11630   1.078   3.887   8.837 -1.5752  2.0818  2.6929
   8723SM   C7S11631   1.123   3.820   9.039 -0.3787  0.0953  0.4751
   8723SM   H7S11632   1.135   3.930   9.043 -0.3357  0.1288 -0.3006
   8723SM   H7T11633   1.221   3.773   9.057 -0.9595 -1.5956 -0.5499
   8723SM   C8S11634   1.032   3.746   9.140 -0.2011 -0.8377  0.2104
   8723SM   H8S11635   1.020   3.637   9.125 -2.6964 -0.5266 -0.5139
   8723SM   H8T11636   0.930   3.789   9.136  0.6225  1.4807  2.0651
   8723SM   C9S11637   1.080   3.777   9.280 -0.1663  0.3162 -0.1240
   8723SM   H9S11638   1.066   3.885   9.301  0.1239  0.2642  0.3470
   8723SM   H9T11639   1.184   3.741   9.293 -0.6769 -1.1045  0.3222
   8723SM  C10S11640   1.000   3.712   9.393 -0.2693  0.1714  0.1957
   8723SM  H10S11641   0.992   3.601   9.386 -2.0153  0.3043 -0.3963
   8723SM  H10T11642   0.902   3.762   9.379 -0.4907 -0.3628 -0.2082
   8723SM  C11S11643   1.051   3.728   9.531 -0.4162 -1.1262 -0.1992
   8723SM  H11S11644   1.101   3.827   9.536 -0.2759 -1.2333  1.0951
   8723SM  H11T11645   1.119   3.645   9.563  0.1554 -0.3990  0.5213
   8723SM  C12S11646   0.945   3.726   9.644  0.2503  0.1060  0.1288
   8723SM  H12S11647   0.885   3.635   9.628  0.7102  0.1157 -1.8836
   8723SM  H12T11648   0.868   3.804   9.624 -1.1664 -0.2848  3.3981
   8723SM  C13S11649   1.011   3.715   9.780 -0.2597  0.1644  0.1752
   8723SM  H13S11650   1.066   3.809   9.798 -0.7486  0.1496  1.8904
   8723SM  H13T11651   1.086   3.633   9.778 -0.5797 -0.1799 -2.6314
   8723SM  C14S11652   0.907   3.689   9.892  0.3256  0.7261 -0.6947
   8723SM  H14S11653   0.862   3.590   9.870 -1.3024  0.7251  2.1818
   8723SM  H14T11654   0.824   3.763   9.894  0.0528  0.6503  4.5265
   8723SM  C15S11655   0.968   3.684  10.029  0.2994 -0.4732  0.3987
   8723SM  H15S11656   1.024   3.780  10.032 -1.1893  0.5436 -1.7233
   8723SM  H15T11657   1.024   3.589  10.033 -0.1004 -0.7283  0.0519
   8723SM  C16S11658   0.862   3.684  10.130  0.1388 -0.1542 -0.4601
   8723SM  H16S11659   0.780   3.612  10.106 -1.7953  1.8898 -0.3063
   8723SM  H16T11660   0.815   3.785  10.133  2.6245  1.0628 -0.3932
   8723SM  C17S11661   0.918   3.642  10.267 -0.5908 -0.0659 -0.1346
   8723SM  H17S11662   1.025   3.671  10.273  0.2224 -3.0047  1.7827
   8723SM  H17T11663   0.914   3.531  10.273 -1.2078 -0.0735 -0.5841
   8723SM  C18S11664   0.839   3.697  10.385 -0.1911 -0.4964 -1.0154
   8723SM  H18S11665   0.734   3.661  10.382 -1.9744  3.8254  1.0907
   8723SM  H18T11666   0.827   3.807  10.388  1.2483 -0.3409 -0.4723
   8723SM  H18U11667   0.894   3.662  10.476 -0.4103  0.5655 -0.4576
   8723SM   C1F11668   0.959   3.276   9.118 -0.3470 -0.4859 -0.3073
   8723SM    OF11669   1.074   3.245   9.130 -0.3213 -0.1111  0.0441
   8723SM   C2F11670   0.860   3.265   9.228  0.7080  0.0385  0.3781
   8723SM   H2F11671   0.794   3.178   9.210 -1.3933  1.1912  2.0162
   8723SM   H2G11672   0.795   3.355   9.238  1.2935  0.6080 -0.8433
   8723SM   C3F11673   0.912   3.256   9.376 -0.4116  0.1104 -0.2704
   8723SM   H3F11674   0.964   3.354   9.381 -1.0468  0.4841 -0.7165
   8723SM   H3G11675   0.997   3.186   9.389 -0.9653 -0.2113  2.1042
   8723SM   C4F11676   0.800   3.250   9.486 -0.2741 -0.2447 -0.2911
   8723SM   H4F11677   0.739   3.157   9.474 -1.5811  0.5184  0.2094
   8723SM   H4G11678   0.730   3.334   9.466 -1.7994 -0.5272  3.1700
   8723SM   C5F11679   0.856   3.259   9.628 -0.5766 -0.3883 -0.2913
   8723SM   H5F11680   0.904   3.359   9.642 -2.7326  0.4991  1.3794
   8723SM   H5G11681   0.941   3.191   9.649 -0.1580  0.0837 -0.4200
   8723SM   C6F11682   0.747   3.240   9.731  0.0035 -0.9037 -0.4127
   8723SM   H6F11683   0.708   3.137   9.720 -0.2043 -0.8086 -0.5717
   8723SM   H6G11684   0.665   3.313   9.719  1.6855  0.8339 -2.1435
   8723SM   C7F11685   0.805   3.263   9.880  0.0090 -0.3999  0.4520
   8723SM   H7F11686   0.863   3.358   9.878  0.8665 -0.9107 -1.2872
   8723SM   H7G11687   0.871   3.177   9.906  0.1205 -0.2114  0.7926
   8723SM   C8F11688   0.696   3.252   9.989 -0.1329 -0.0878  0.3113
   8723SM   H8F11689   0.644   3.154   9.983 -0.2109 -0.0384  0.1762
   8723SM   H8G11690   0.620   3.329   9.966 -2.6041 -2.8306 -1.5342
   8723SM   C9F11691   0.750   3.259  10.131 -0.0337  0.1917 -0.0988
   8723SM   H9F11692   0.786   3.360  10.160  0.6355 -0.6675  2.3380
   8723SM   H9G11693   0.829   3.181  10.135  0.1961  0.4617  0.8109
   8723SM  C10F11694   0.646   3.211  10.229 -0.6579 -0.9797 -0.4163
   8723SM  H10F11695   0.638   3.101  10.217  2.1827 -1.7161  2.8742
   8723SM  H10G11696   0.555   3.270  10.206 -0.5413 -0.6587 -0.0670
   8723SM  C11F11697   0.691   3.253  10.370 -0.3832 -0.5028  0.2906
   8723SM  H11F11698   0.705   3.363  10.377 -2.9312 -0.1850  1.6967
   8723SM  H11G11699   0.784   3.197  10.393 -1.3245 -1.5101  1.8332
   8723SM  C12F11700   0.593   3.220  10.479  0.5870 -0.7779  0.4635
   8723SM  H12F11701   0.541   3.123  10.463 -1.6168  0.4814 -0.5143
   8723SM  H12G11702   0.515   3.300  10.480  3.2106  2.0258 -1.0131
   8723SM  C13F11703   0.644   3.228  10.624 -0.3465 -0.1667  0.4583
   8723SM  H13F11704   0.678   3.333  10.635  0.2073 -0.3463  0.5081
   8723SM  H13G11705   0.730   3.158  10.627 -0.6916 -0.7163 -1.2724
   8723SM  C14F11706   0.538   3.203  10.740  0.2503  0.5666  0.7030
   8723SM  H14F11707   0.498   3.100  10.737 -1.0077  1.0686 -0.9513
   8723SM  H14G11708   0.452   3.273  10.727  0.4475  0.5436 -0.8534
   8723SM  C15F11709   0.616   3.242  10.867 -0.2512  0.4047 -0.5787
   8723SM  H15F11710   0.624   3.352  10.852 -0.4894  0.6129  0.7021
   8723SM  H15G11711   0.714   3.191  10.860 -0.1514  0.0115  2.4617
   8723SM  C16F11712   0.536   3.206  10.999  0.2777  0.1765 -0.1156
   8723SM  H16F11713   0.438   3.258  11.001  0.4481  0.5200 -0.6218
   8723SM  H16G11714   0.586   3.252  11.088  0.1371  0.9283 -0.4179
   8723SM  C17F11715   0.506   3.060  11.021  0.5206  0.6037 -0.4504
   8723SM  H17F11716   0.439   3.036  10.936  1.0824 -3.4769  0.0621
   8723SM  H17G11717   0.443   3.057  11.112  1.1838  0.1028  0.0088
   8723SM  C18F11718   0.627   2.968  11.061 -0.5793 -0.2360  0.0254
   8723SM  H18F11719   0.681   3.019  11.142 -1.1976  2.9851 -1.4258
   8723SM  H18G11720   0.696   2.970  10.973  0.8832 -1.6407  1.0925
   8723SM  C19F11721   0.602   2.824  11.107 -1.0397  0.3997 -0.5767
   8723SM  H19F11722   0.550   2.751  11.042 -1.9704 -1.3829  2.0185
   8723SM  H19G11723   0.535   2.823  11.196  0.1859 -2.9373  0.4244
   8723SM  C20F11724   0.726   2.757  11.163  0.2158 -0.5028  0.2119
   8723SM  H20F11725   0.776   2.830  11.231  1.4073  0.5814 -1.7256
   8723SM  H20G11726   0.795   2.738  11.078 -1.5615  4.1263 -2.6698
   8723SM  C21F11727   0.694   2.624  11.233  0.4338  0.2951  0.1405
   8723SM  H21F11728   0.584   2.616  11.236  0.5345 -1.1924  0.7473
   8723SM  H21G11729   0.715   2.622  11.342  1.1255 -1.4007  0.0148
   8723SM  C22F11730   0.747   2.499  11.174 -0.7365 -0.0971 -0.6351
   8723SM  H22F11731   0.852   2.490  11.209 -0.9036  0.0452 -0.0803
   8723SM  H22G11732   0.748   2.511  11.064  0.0351  0.4263 -0.5828
   8723SM  C23F11733   0.666   2.374  11.217 -0.2117  0.1352  0.7648
   8723SM  H23F11734   0.723   2.283  11.188  0.6296  1.0828 -0.7336
   8723SM  H23G11735   0.567   2.369  11.167 -0.4787 -1.5402  1.4139
   8723SM  H23H11736   0.643   2.364  11.325 -0.5592 -0.6038  0.6274
   8823SM     N11737   4.147   4.204   9.017 -0.7813 -0.6897  0.0173
   8823SM   C1511738   4.060   4.306   8.961  0.8154 -0.2611  0.3953
   8823SM  H15A11739   4.007   4.278   8.871  0.7390 -0.6503  0.5611
   8823SM  H15B11740   4.115   4.395   8.935  1.5208 -0.6434  0.5480
   8823SM  H15C11741   3.989   4.330   9.039 -0.4186 -1.5501 -0.2848
   8823SM   C1411742   4.068   4.080   9.028 -0.2256  0.2091  0.0381
   8823SM  H14A11743   4.031   4.061   8.929  2.0609 -2.5903 -0.3932
   8823SM  H14B11744   3.985   4.085   9.097 -0.7192 -0.7295 -0.4683
   8823SM  H14C11745   4.130   4.000   9.065  0.3367 -0.0018 -1.3049
   8823SM   C1311746   4.254   4.180   8.916 -0.7633 -0.7263 -0.2146
   8823SM  H13A11747   4.211   4.157   8.819 -0.5876  1.9926 -1.0236
   8823SM  H13B11748   4.309   4.093   8.947  0.1752  0.4901  1.7597
   8823SM  H13C11749   4.316   4.267   8.901 -2.2976  1.0165  2.6922
   8823SM   C1211750   4.217   4.258   9.146  0.6133  0.3587 -0.1696
   8823SM  H12A11751   4.138   4.294   9.211  1.6155  0.2270  1.1689
   8823SM  H12B11752   4.269   4.352   9.134  0.4059  0.6035  0.7890
   8823SM   C1111753   4.307   4.166   9.233 -0.1871  0.5826  0.0966
   8823SM  H11A11754   4.370   4.230   9.299  0.2747 -1.2008  1.4865
   8823SM  H11B11755   4.380   4.109   9.171  0.8583 -1.2039  2.7618
   8823SM     P11756   4.148   4.120   9.437  0.3293 -0.2107  0.1842
   8823SM   O1311757   4.053   4.222   9.388 -0.1280 -0.9994 -0.1909
   8823SM   O1411758   4.098   4.002   9.508  0.3805  0.0009  0.7088
   8823SM   O1111759   4.253   4.194   9.522 -0.1053 -0.3532 -0.4676
   8823SM   O1211760   4.227   4.076   9.307  0.0960 -0.5283  0.3971
   8823SM   C1S11761   4.378   4.133   9.568  0.5845  0.1379 -0.4610
   8823SM   H1S11762   4.451   4.147   9.486  0.5547  1.6917 -0.2500
   8823SM   H1T11763   4.374   4.024   9.590  1.3974  0.1922 -0.0510
   8823SM    NF11764   4.544   4.166   9.744 -0.0904 -0.6480  0.1139
   8823SM   HNF11765   4.548   4.124   9.834 -0.0963 -1.5484 -0.2970
   8823SM   C2S11766   4.419   4.215   9.698 -0.5916 -0.0064  0.5171
   8823SM   H2S11767   4.434   4.320   9.665 -1.1813  0.0523  0.4364
   8823SM   C3S11768   4.307   4.224   9.810  0.4881 -0.0839  0.1282
   8823SM   H3S11769   4.306   4.124   9.858  0.1353  0.0067  0.3125
   8823SM    O311770   4.175   4.256   9.760  0.1518 -0.4423  0.6169
   8823SM   HO311771   4.182   4.234   9.667  0.4075 -0.8191  0.7214
   8823SM   C4S11772   4.343   4.332   9.912 -0.4173  0.5026  0.5811
   8823SM   H4S11773   4.319   4.436   9.887 -1.3177  0.3576  0.8056
   8823SM   C5S11774   4.371   4.311  10.036 -0.1450 -0.2390 -0.1963
   8823SM   H5S11775   4.364   4.213  10.086 -1.2197  0.4859  1.1691
   8823SM   C6S11776   4.380   4.420  10.145 -0.1475 -0.3442  0.0189
   8823SM   H6S11777   4.401   4.524  10.113  3.2330 -0.5017  1.3119
   8823SM   H6T11778   4.473   4.405  10.204 -1.2063 -0.3919  1.7491
   8823SM   C7S11779   4.267   4.417  10.244 -0.0304  0.6934 -0.9901
   8823SM   H7S11780   4.259   4.311  10.277  1.4594  0.1507 -2.2516
   8823SM   H7T11781   4.179   4.448  10.184 -0.2332  1.8845 -0.1180
   8823SM   C8S11782   4.277   4.510  10.368 -0.2536  0.3305 -0.0869
   8823SM   H8S11783   4.175   4.515  10.411 -0.3947  2.0022 -0.5705
   8823SM   H8T11784   4.297   4.614  10.336  0.0419  0.6108  1.0018
   8823SM   C9S11785   4.365   4.470  10.490  0.3364  0.5825  0.5541
   8823SM   H9S11786   4.326   4.535  10.571 -0.1611 -0.6805  1.3689
   8823SM   H9T11787   4.459   4.515  10.451 -0.4473  1.7212 -0.0724
   8823SM  C10S11788   4.375   4.325  10.543  0.1606  0.0656 -0.3290
   8823SM  H10S11789   4.391   4.272  10.447 -2.7241  2.1906 -2.1693
   8823SM  H10T11790   4.272   4.287  10.559  0.2128  0.2652  0.5059
   8823SM  C11S11791   4.482   4.290  10.653 -0.1624 -0.2087  0.1622
   8823SM  H11S11792   4.586   4.302  10.616 -0.2306  2.0118  0.5575
   8823SM  H11T11793   4.459   4.185  10.682 -2.0012 -0.0989 -0.7302
   8823SM  C12S11794   4.467   4.386  10.773 -0.1319  0.5740  0.5876
   8823SM  H12S11795   4.487   4.492  10.746 -3.7239  1.2150 -0.0341
   8823SM  H12T11796   4.529   4.340  10.853  0.4967 -0.3409 -0.4132
   8823SM  C13S11797   4.321   4.386  10.834 -0.5186 -0.4827  0.5022
   8823SM  H13S11798   4.273   4.285  10.835 -1.8081  0.0964 -0.1561
   8823SM  H13T11799   4.267   4.457  10.769  3.3366  1.4043 -0.9419
   8823SM  C14S11800   4.328   4.425  10.981 -0.2615 -0.4438  0.2617
   8823SM  H14S11801   4.364   4.530  10.991 -1.9635  0.0959  1.0953
   8823SM  H14T11802   4.406   4.365  11.031  1.0555  1.1730  0.2552
   8823SM  C15S11803   4.192   4.427  11.055 -0.7904  0.1800 -0.1589
   8823SM  H15S11804   4.136   4.334  11.030 -0.1201  0.0149 -1.0742
   8823SM  H15T11805   4.132   4.506  11.005  0.0169  1.0080  0.1548
   8823SM  C16S11806   4.212   4.447  11.203  0.0339  1.0195  0.8062
   8823SM  H16S11807   4.136   4.520  11.237  0.8278  1.9110  0.7161
   8823SM  H16T11808   4.308   4.495  11.232  1.7007 -1.7983  0.3511
   8823SM  C17S11809   4.193   4.313  11.282 -0.3816  0.5610 -0.8534
   8823SM  H17S11810   4.249   4.232  11.231  0.4344  0.7159 -0.2188
   8823SM  H17T11811   4.088   4.280  11.267  0.3615 -1.8642 -1.0379
   8823SM  C18S11812   4.239   4.343  11.422  0.0376 -0.1929  0.3346
   8823SM  H18S11813   4.347   4.366  11.417 -0.4439  2.0453 -1.2574
   8823SM  H18T11814   4.221   4.262  11.496 -1.3114  0.3685  0.6623
   8823SM  H18U11815   4.183   4.431  11.459 -0.3282 -1.4663  3.1335
   8823SM   C1F11816   4.657   4.158   9.675  0.1868 -0.4882 -0.3585
   8823SM    OF11817   4.664   4.210   9.563 -0.5685 -0.2995  0.3824
   8823SM   C2F11818   4.772   4.083   9.741  0.3025 -0.5331  0.0673
   8823SM   H2F11819   4.731   3.984   9.769 -0.0113 -0.2013  0.8033
   8823SM   H2G11820   4.817   4.138   9.826 -3.0681  1.9451  0.4769
   8823SM   C3F11821   4.895   4.059   9.649 -0.2172 -0.1253 -0.0276
   8823SM   H3F11822   4.935   4.156   9.610  1.8309  0.2448  2.6544
   8823SM   H3G11823   4.870   3.994   9.563  1.2570 -1.2720  0.3717
   8823SM   C4F11824   5.013   4.002   9.725 -0.6003  0.5322 -0.3028
   8823SM   H4F11825   5.032   4.063   9.815 -0.9632  0.6717 -0.3165
   8823SM   H4G11826   5.108   4.000   9.667 -0.4081 -0.9359  0.0243
   8823SM   C5F11827   4.986   3.859   9.773 -0.4772  0.6351  0.3355
   8823SM   H5F11828   4.952   3.787   9.697 -0.2041 -1.7608  2.3435
   8823SM   H5G11829   4.906   3.863   9.851 -0.7965 -1.7551  0.1882
   8823SM   C6F11830   5.107   3.799   9.849 -0.0991  0.4618  0.4069
   8823SM   H6F11831   5.170   3.882   9.886  0.1810  0.6987 -0.5675
   8823SM   H6G11832   5.160   3.740   9.771 -3.0377 -1.1406 -0.5430
   8823SM   C7F11833   5.068   3.714   9.968  0.0313  0.3002 -0.6068
   8823SM   H7F11834   4.992   3.638   9.938  0.5280 -0.5492  0.2359
   8823SM   H7G11835   5.011   3.747  10.058 -1.0876 -5.0796  1.0331
   8823SM   C8F11836   5.175   3.618  10.026 -0.9918  0.5070  0.0085
   8823SM   H8F11837   5.264   3.684  10.030 -2.5233  2.6578 -0.0671
   8823SM   H8G11838   5.192   3.532   9.957  1.7784  1.5150 -0.6870
   8823SM   C9F11839   5.146   3.564  10.168  0.2715  0.0686  0.2551
   8823SM   H9F11840   5.216   3.479  10.186 -0.3425 -0.2667  1.1052
   8823SM   H9G11841   5.038   3.539  10.164 -0.1108  1.7172 -0.6348
   8823SM  C10F11842   5.181   3.674  10.270 -0.5937 -0.1631 -0.0306
   8823SM  H10F11843   5.103   3.753  10.261  1.9578  2.4836 -0.2795
   8823SM  H10G11844   5.279   3.720  10.249 -1.3032  2.4421  1.8547
   8823SM  C11F11845   5.191   3.612  10.415  0.3688 -0.4056 -0.3862
   8823SM  H11F11846   5.249   3.518  10.424  0.3989 -0.7381 -3.1832
   8823SM  H11G11847   5.086   3.591  10.442  0.5153  1.5704  2.0931
   8823SM  C12F11848   5.244   3.714  10.524  0.3211  0.4908 -0.5482
   8823SM  H12F11849   5.204   3.817  10.514 -0.0108  0.9384  3.5258
   8823SM  H12G11850   5.355   3.712  10.515  0.4609  0.7769  0.7735
   8823SM  C13F11851   5.223   3.669  10.670  0.2236 -0.2106  0.8860
   8823SM  H13F11852   5.234   3.558  10.675  1.6565 -0.2112 -1.1684
   8823SM  H13G11853   5.123   3.700  10.709 -0.2112  1.7352 -1.5709
   8823SM  C14F11854   5.314   3.730  10.772 -0.1715  0.8581 -0.0016
   8823SM  H14F11855   5.267   3.821  10.815  0.6636  0.6330  1.4654
   8823SM  H14G11856   5.415   3.753  10.732 -0.7391  2.4063 -0.6353
   8823SM  C15F11857   5.342   3.634  10.883 -0.0754  0.5122 -0.1480
   8823SM  H15F11858   5.368   3.537  10.837  0.6778 -0.6100  2.4437
   8823SM  H15G11859   5.256   3.627  10.954  0.7392 -2.4484  0.6831
   8823SM  C16F11860   5.445   3.691  10.981 -0.1887  0.7344 -0.0337
   8823SM  H16F11861   5.408   3.793  11.005 -0.7955  0.5956 -0.3598
   8823SM  H16G11862   5.548   3.696  10.938  0.6675  2.7085  2.0391
   8823SM  C17F11863   5.458   3.604  11.106  0.1885  0.4966  0.0768
   8823SM  H17F11864   5.481   3.498  11.082  0.6229  0.1271  1.9819
   8823SM  H17G11865   5.357   3.610  11.154 -0.5510  0.7984 -1.4500
   8823SM  C18F11866   5.554   3.660  11.209 -0.1109 -0.2882  0.2009
   8823SM  H18F11867   5.517   3.758  11.246  1.7610  0.0047  1.4492
   8823SM  H18G11868   5.653   3.676  11.160 -0.2100 -1.7313 -0.5444
   8823SM  C19F11869   5.559   3.582  11.337 -0.2135  0.0862 -0.1093
   8823SM  H19F11870   5.620   3.491  11.319  0.0685  0.0486  0.9774
   8823SM  H19G11871   5.458   3.545  11.367 -0.2356 -0.8661 -1.2746
   8823SM  C20F11872   5.628   3.658  11.455 -0.0637 -0.2968 -0.1854
   8823SM  H20F11873   5.617   3.605  11.552 -0.3870  0.0678 -0.0213
   8823SM  H20G11874   5.582   3.759  11.470  0.7334 -0.0167  0.4463
   8823SM  C21F11875   5.775   3.683  11.433 -0.2772  0.0371  0.1374
   8823SM  H21F11876   5.801   3.754  11.351 -1.4733 -0.4068 -0.6588
   8823SM  H21G11877   5.815   3.581  11.417  0.2737  0.2028  0.4336
   8823SM  C22F11878   5.839   3.725  11.561 -0.0091 -0.5176 -0.4886
   8823SM  H22F11879   5.803   3.672  11.651 -0.0582  0.2457 -0.0443
   8823SM  H22G11880   5.813   3.832  11.579 -0.9779 -0.9181  0.6209
   8823SM  C23F11881   5.991   3.722  11.540 -0.0621  0.4407 -0.2500
   8823SM  H23F11882   6.027   3.726  11.645  1.4767 -2.8757 -0.5234
   8823SM  H23G11883   6.031   3.793  11.464 -3.3498  0.4450 -2.1492
   8823SM  H23H11884   6.017   3.620  11.505  1.3635  0.8139 -0.3387
   8923SM     N11885   1.833   4.079   8.952  0.5669  0.3238  0.1600
   8923SM   C1511886   1.961   3.994   8.968  0.3488 -0.2827 -0.1752
   8923SM  H15A11887   1.941   3.897   9.011  3.2693 -0.1532  1.7924
   8923SM  H15B11888   2.026   4.048   9.035  0.4866  0.7730 -1.1222
   8923SM  H15C11889   2.002   3.990   8.868  1.0104 -1.5250  0.1317
   8923SM   C1411890   1.873   4.212   8.906 -0.4916  0.4308  0.5026
   8923SM  H14A11891   1.917   4.202   8.807 -1.6911 -0.9006  0.0706
   8923SM  H14B11892   1.956   4.247   8.966  3.0370 -0.8510 -3.1433
   8923SM  H14C11893   1.797   4.289   8.915 -1.9658 -0.8842 -0.2125
   8923SM   C1311894   1.740   4.015   8.856  0.9501  0.4118  0.1211
   8923SM  H13A11895   1.785   4.022   8.759  0.0079 -2.4423 -0.6432
   8923SM  H13B11896   1.642   4.060   8.852  0.5869 -0.4823 -2.0024
   8923SM  H13C11897   1.730   3.909   8.875 -1.7770  0.5062 -0.3715
   8923SM   C1211898   1.768   4.083   9.085  0.3304 -0.5134  0.0964
   8923SM  H12A11899   1.714   3.989   9.086  1.7167 -1.4539 -2.7260
   8923SM  H12B11900   1.686   4.154   9.089  2.1118  1.5836  1.2745
   8923SM   C1111901   1.845   4.103   9.218 -0.4551  0.4521 -0.6547
   8923SM  H11A11902   1.890   4.006   9.249 -1.0288  0.3678 -0.0607
   8923SM  H11B11903   1.770   4.127   9.296 -2.2697 -2.1968 -1.4357
   8923SM     P11904   1.945   4.348   9.274 -0.1906  0.0205  0.4637
   8923SM   O1311905   2.076   4.411   9.256 -0.2008 -0.1689  0.1745
   8923SM   O1411906   1.830   4.421   9.222  0.0036  0.4748 -0.3138
   8923SM   O1111907   1.920   4.324   9.426 -0.1397  0.3687 -0.2967
   8923SM   O1211908   1.946   4.200   9.210  0.9030 -0.6396 -0.7590
   8923SM   C1S11909   1.972   4.225   9.514  1.4713  0.2696  0.0599
   8923SM   H1S11910   2.078   4.256   9.527  0.5918  2.3251  3.6473
   8923SM   H1T11911   1.967   4.125   9.466  1.0594  0.4078 -0.1920
   8923SM    NF11912   1.998   4.197   9.757  0.2555 -0.6843  0.3665
   8923SM   HNF11913   1.994   4.102   9.788  0.3149 -0.2121  1.9129
   8923SM   C2S11914   1.901   4.230   9.649 -0.1906  0.2214  0.0709
   8923SM   H2S11915   1.878   4.338   9.661  0.6734  0.7555 -2.3890
   8923SM   C3S11916   1.772   4.151   9.646 -0.5727  0.1815  0.4391
   8923SM   H3S11917   1.799   4.045   9.625  1.4961  1.3083 -3.5940
   8923SM    O311918   1.679   4.201   9.547  0.2481  0.1319 -0.6387
   8923SM   HO311919   1.718   4.285   9.519 -1.1681  1.2259  0.5023
   8923SM   C4S11920   1.702   4.167   9.772 -0.6130  0.3674  0.1739
   8923SM   H4S11921   1.666   4.271   9.784 -1.3921  0.2473 -0.9542
   8923SM   C5S11922   1.665   4.071   9.856  0.7652 -0.3433 -0.5786
   8923SM   H5S11923   1.702   3.969   9.836  1.8845  0.0000 -0.3700
   8923SM   C6S11924   1.586   4.098   9.980  0.1698  0.3713 -0.0553
   8923SM   H6S11925   1.483   4.057   9.972 -0.0936  1.0852 -0.3982
   8923SM   H6T11926   1.574   4.205  10.004 -0.4609  0.1065  0.8590
   8923SM   C7S11927   1.665   4.058  10.111  0.0036 -0.4270  0.4409
   8923SM   H7S11928   1.754   4.123  10.128 -0.3419  0.0741  0.3532
   8923SM   H7T11929   1.694   3.951  10.102  0.2662 -0.2413 -1.2315
   8923SM   C8S11930   1.574   4.070  10.238  0.2474  0.0006  0.6800
   8923SM   H8S11931   1.469   4.043  10.213 -0.1172  0.9355  1.1376
   8923SM   H8T11932   1.571   4.175  10.273  1.2307  0.0643  0.5845
   8923SM   C9S11933   1.628   3.998  10.358  0.4144  0.3310  0.2869
   8923SM   H9S11934   1.732   4.030  10.380 -0.7934  3.2271  2.3863
   8923SM   H9T11935   1.626   3.891  10.328  1.3407  1.3783 -4.2316
   8923SM  C10S11936   1.548   4.000  10.490  0.5453  0.0098 -0.9742
   8923SM  H10S11937   1.443   3.967  10.478  0.4266 -0.0578  0.1941
   8923SM  H10T11938   1.532   4.106  10.519 -2.5711 -1.0069  1.6148
   8923SM  C11S11939   1.605   3.926  10.610 -0.3128  0.6153 -0.6416
   8923SM  H11S11940   1.716   3.918  10.604 -0.1241 -0.0840  2.3444
   8923SM  H11T11941   1.562   3.824  10.604 -0.0337  0.4589 -0.0247
   8923SM  C12S11942   1.545   3.979  10.745 -0.0599  0.1943 -0.6014
   8923SM  H12S11943   1.436   3.998  10.733  0.4769  3.0002 -1.7977
   8923SM  H12T11944   1.596   4.075  10.766  1.2151 -0.1527 -1.9127
   8923SM  C13S11945   1.560   3.870  10.859  0.3766 -0.1816 -0.0912
   8923SM  H13S11946   1.668   3.849  10.847  0.1558 -1.8100  0.5092
   8923SM  H13T11947   1.510   3.773  10.836 -1.0844 -0.1052  2.3807
   8923SM  C14S11948   1.519   3.913  10.998 -0.2980  0.3498  0.0641
   8923SM  H14S11949   1.409   3.926  10.989 -0.1815  2.0830  0.7393
   8923SM  H14T11950   1.551   4.017  11.020 -0.8237  0.1302  2.0940
   8923SM  C15S11951   1.561   3.809  11.104 -1.0050 -0.1779 -0.2091
   8923SM  H15S11952   1.671   3.819  11.101 -1.2739  4.1134 -1.9263
   8923SM  H15T11953   1.525   3.707  11.078  1.3283 -0.9863 -0.5272
   8923SM  C16S11954   1.523   3.844  11.253  0.9091  0.1493  0.2966
   8923SM  H16S11955   1.523   3.760  11.327 -0.5718  1.1441  1.4978
   8923SM  H16T11956   1.419   3.882  11.242  0.7149 -0.7300 -1.2096
   8923SM  C17S11957   1.595   3.972  11.305 -0.4244  0.7108 -0.1377
   8923SM  H17S11958   1.541   4.010  11.395 -2.1970  1.2542 -1.3688
   8923SM  H17T11959   1.586   4.053  11.229  1.5176 -2.3482 -3.9678
   8923SM  C18S11960   1.745   3.943  11.331  0.3568 -0.2058 -0.1017
   8923SM  H18S11961   1.802   3.942  11.236 -1.8160  1.6236 -1.5582
   8923SM  H18T11962   1.748   3.840  11.372 -2.8175 -0.1684  0.4643
   8923SM  H18U11963   1.787   4.018  11.402  1.7307  0.6807 -1.7428
   8923SM   C1F11964   2.096   4.279   9.793  0.2855  0.2976 -0.3757
   8923SM    OF11965   2.083   4.396   9.763  0.0571  0.6052  0.0759
   8923SM   C2F11966   2.213   4.218   9.867 -0.1651  0.8521  0.0335
   8923SM   H2F11967   2.261   4.139   9.806 -1.8882 -0.6832  0.5901
   8923SM   H2G11968   2.169   4.180   9.962 -1.8169  0.7121 -0.7641
   8923SM   C3F11969   2.313   4.328   9.900  0.0414 -0.1253  0.7851
   8923SM   H3F11970   2.276   4.375   9.993  0.2574 -2.0137  1.8826
   8923SM   H3G11971   2.344   4.385   9.810  2.6947 -1.2830  0.8770
   8923SM   C4F11972   2.446   4.257   9.937  0.0297 -0.3180 -0.6055
   8923SM   H4F11973   2.514   4.338   9.970 -0.0628  0.0485 -1.2954
   8923SM   H4G11974   2.500   4.216   9.849  0.7090  1.5316 -1.1025
   8923SM   C5F11975   2.454   4.148  10.047  0.4895  0.5091 -0.2926
   8923SM   H5F11976   2.555   4.102  10.054  1.1196  1.9847  0.7650
   8923SM   H5G11977   2.383   4.070  10.013 -0.3889 -0.6726  3.7372
   8923SM   C6F11978   2.410   4.183  10.188  0.3114 -0.4288 -0.6618
   8923SM   H6F11979   2.303   4.207  10.199 -0.0045 -1.7221 -0.7140
   8923SM   H6G11980   2.477   4.258  10.236 -0.5544  0.6197 -1.0504
   8923SM   C7F11981   2.427   4.059  10.277 -0.6670 -0.1823 -0.6001
   8923SM   H7F11982   2.522   4.006  10.254  0.5754  0.8393  1.7449
   8923SM   H7G11983   2.345   3.984  10.272 -2.7356  1.8852  0.5030
   8923SM   C8F11984   2.446   4.108  10.429  0.2787 -0.8414  0.1026
   8923SM   H8F11985   2.360   4.177  10.438  1.6173  1.1611 -1.4671
   8923SM   H8G11986   2.535   4.173  10.443 -1.8471  2.6530 -1.1189
   8923SM   C9F11987   2.432   3.991  10.526 -0.3822 -0.3452 -0.1159
   8923SM   H9F11988   2.517   3.921  10.507 -0.9694 -0.3470 -3.2017
   8923SM   H9G11989   2.344   3.926  10.507 -0.8931  0.4631 -0.5577
   8923SM  C10F11990   2.427   4.034  10.673 -0.6136  0.4848  0.2821
   8923SM  H10F11991   2.377   4.133  10.669  1.5270  1.6010 -0.4292
   8923SM  H10G11992   2.528   4.064  10.709  0.0403 -1.9049  0.6083
   8923SM  C11F11993   2.364   3.936  10.771 -0.4029 -0.6367  0.6078
   8923SM  H11F11994   2.394   3.833  10.740  0.1932 -0.3099  0.0755
   8923SM  H11G11995   2.254   3.934  10.788 -0.4923 -1.2960 -0.0165
   8923SM  C12F11996   2.412   3.957  10.913  0.9767 -0.1023 -0.0148
   8923SM  H12F11997   2.389   4.055  10.959 -1.1371 -0.1605 -0.8728
   8923SM  H12G11998   2.522   3.938  10.917  0.8344 -1.0217 -0.1224
   8923SM  C13F11999   2.341   3.852  10.998  0.2690  0.1878  0.0684
   8923SM  H13F12000   2.348   3.750  10.955 -1.6590  0.4277 -0.9183
   8923SM  H13G12001   2.232   3.874  10.998  0.6812  2.5601 -0.1766
   8923SM  C14F12002   2.394   3.844  11.150  0.1098 -0.8621  0.3335
   8923SM  H14F12003   2.368   3.949  11.177  0.1302 -0.5065 -0.9492
   8923SM  H14G12004   2.504   3.834  11.157  0.2245  0.4857  0.7788
   8923SM  C15F12005   2.314   3.749  11.244  0.1833 -0.1493  0.5517
   8923SM  H15F12006   2.204   3.753  11.230  0.3759  2.1097 -0.9220
   8923SM  H15G12007   2.342   3.769  11.350  0.3152  0.8732  0.3318
   8923SM  C16F12008   2.351   3.601  11.214 -0.0718 -0.9497 -0.2566
   8923SM  H16F12009   2.462   3.607  11.203 -0.1717  1.0051 -0.6024
   8923SM  H16G12010   2.305   3.573  11.117 -2.5481  1.5719  0.0697
   8923SM  C17F12011   2.320   3.490  11.322  0.5178  0.1757  0.9238
   8923SM  H17F12012   2.371   3.518  11.416  0.1094  0.8689  0.9444
   8923SM  H17G12013   2.372   3.401  11.281 -1.5267 -0.5400 -0.2883
   8923SM  C18F12014   2.170   3.450  11.324  0.6382  0.1926 -0.3065
   8923SM  H18F12015   2.135   3.423  11.222 -0.6173 -0.7536  0.3364
   8923SM  H18G12016   2.111   3.541  11.352 -1.6747 -1.0961 -0.7454
   8923SM  C19F12017   2.135   3.339  11.428 -0.0267 -0.6449  0.3927
   8923SM  H19F12018   2.146   3.367  11.535  0.7740  1.1580 -0.1388
   8923SM  H19G12019   2.228   3.278  11.429  0.5512  0.2275  0.4984
   8923SM  C20F12020   2.017   3.241  11.397  0.5230 -0.1292 -0.0967
   8923SM  H20F12021   1.927   3.304  11.380 -1.4108 -1.6381  3.5213
   8923SM  H20G12022   1.998   3.175  11.483 -1.2460 -2.1423 -1.9196
   8923SM  C21F12023   2.040   3.155  11.276  0.7495 -0.5547  0.3149
   8923SM  H21F12024   2.144   3.117  11.268  0.3648 -1.2594 -1.7462
   8923SM  H21G12025   2.023   3.223  11.190 -1.7643  0.4533  1.4906
   8923SM  C22F12026   1.943   3.035  11.267 -0.0235  0.0049 -0.4685
   8923SM  H22F12027   1.838   3.064  11.248 -0.6480 -1.4487  0.5861
   8923SM  H22G12028   1.941   2.984  11.366 -1.2627  1.5191  0.3315
   8923SM  C23F12029   1.983   2.931  11.159  0.5596 -0.4717 -0.4396
   8923SM  H23F12030   2.077   2.875  11.178  0.3323 -0.4041  0.9610
   8923SM  H23G12031   1.993   2.983  11.061  1.8262 -0.0926 -0.1270
   8923SM  H23H12032   1.900   2.858  11.154 -0.9228  0.9952  1.3968
   9023SM     N12033   1.088   4.289   8.582  0.2438 -0.0058  0.1217
   9023SM   C1512034   1.036   4.237   8.444  0.5344 -0.3386 -0.0684
   9023SM  H15A12035   0.930   4.222   8.434  0.6397 -1.9782  1.0156
   9023SM  H15B12036   1.070   4.136   8.425  2.3947  0.6679 -2.8592
   9023SM  H15C12037   1.074   4.290   8.357  1.2817 -3.2991 -1.6837
   9023SM   C1412038   1.235   4.306   8.567  0.1663  0.4606 -0.2700
   9023SM  H14A12039   1.285   4.211   8.558 -0.2761  0.2796 -0.8846
   9023SM  H14B12040   1.278   4.349   8.656 -1.5138  0.2304  0.6921
   9023SM  H14C12041   1.264   4.376   8.490  0.0025  0.4492 -0.3441
   9023SM   C1312042   1.022   4.422   8.615 -0.0077  0.5746 -0.2204
   9023SM  H13A12043   0.915   4.416   8.604 -0.2094  1.7874  0.8296
   9023SM  H13B12044   1.051   4.500   8.547 -1.3946  1.2649 -0.0447
   9023SM  H13C12045   1.055   4.457   8.712 -0.5414 -2.9718  1.4021
   9023SM   C1212046   1.052   4.184   8.685  0.0231  0.4697 -0.2613
   9023SM  H12A12047   1.097   4.089   8.659 -2.2154 -1.0034  0.8582
   9023SM  H12B12048   0.945   4.171   8.679  0.2361 -0.7054 -3.4440
   9023SM   C1112049   1.089   4.210   8.839  0.0223  0.6230  0.4266
   9023SM  H11A12050   1.198   4.231   8.838 -0.1663  1.6672  0.5260
   9023SM  H11B12051   1.064   4.115   8.891 -1.4428  0.2609 -0.8378
   9023SM     P12052   1.096   4.409   9.004 -0.4932  0.0009 -0.1493
   9023SM   O1312053   1.186   4.504   8.936  0.0360  0.7046 -0.0112
   9023SM   O1412054   0.994   4.472   9.082 -0.9036 -0.1036 -0.1653
   9023SM   O1112055   1.173   4.310   9.096  0.1152  0.1058 -0.8840
   9023SM   O1212056   1.024   4.322   8.889  0.2272  0.3510 -0.4883
   9023SM   C1S12057   1.197   4.331   9.236 -0.3041 -0.1517  0.1447
   9023SM   H1S12058   1.107   4.374   9.285  1.0221  0.3126  2.3007
   9023SM   H1T12059   1.287   4.389   9.265 -0.4319  0.6152 -0.8975
   9023SM    NF12060   1.217   4.178   9.427 -0.2511 -0.0068 -0.6054
   9023SM   HNF12061   1.302   4.187   9.478 -0.5859  0.7738 -0.1609
   9023SM   C2S12062   1.231   4.189   9.288  0.2586 -1.3477  0.7037
   9023SM   H2S12063   1.164   4.114   9.240 -0.1150 -1.6656  1.6891
   9023SM   C3S12064   1.375   4.151   9.230  0.3211  0.2535  0.3729
   9023SM   H3S12065   1.447   4.220   9.278 -0.4679  1.0890  0.3697
   9023SM    O312066   1.386   4.161   9.087 -0.5793 -0.1919 -0.5705
   9023SM   HO312067   1.337   4.238   9.059  0.1925  0.0454 -1.3164
   9023SM   C4S12068   1.414   4.007   9.263  0.0516  0.1719 -0.4483
   9023SM   H4S12069   1.349   3.926   9.227  0.2574  0.6220 -1.8984
   9023SM   C5S12070   1.523   3.977   9.338 -0.0627 -0.4766  0.6542
   9023SM   H5S12071   1.588   4.053   9.385  2.4837 -0.2598 -2.8335
   9023SM   C6S12072   1.566   3.841   9.382 -0.0697  0.0131 -0.9517
   9023SM   H6S12073   1.676   3.825   9.379 -0.2541 -1.5991  0.0008
   9023SM   H6T12074   1.514   3.751   9.343 -1.9383  0.3564  0.5702
   9023SM   C7S12075   1.546   3.837   9.535  0.1639 -0.0297  0.1412
   9023SM   H7S12076   1.595   3.923   9.586 -0.0200 -0.5515  1.2339
   9023SM   H7T12077   1.586   3.743   9.580 -2.5051 -0.8845  0.9767
   9023SM   C8S12078   1.396   3.840   9.578  0.4259 -0.1807  0.1594
   9023SM   H8S12079   1.350   3.746   9.541  2.7876 -1.7563  0.9956
   9023SM   H8T12080   1.342   3.925   9.532 -0.3628 -0.8378 -0.1612
   9023SM   C9S12081   1.373   3.850   9.729  0.2847  1.1762  0.2800
   9023SM   H9S12082   1.263   3.843   9.740  0.4789 -3.4235  0.9177
   9023SM   H9T12083   1.416   3.943   9.772  0.3547  1.1826  0.1966
   9023SM  C10S12084   1.427   3.732   9.803 -0.6520  0.4018  0.3187
   9023SM  H10S12085   1.538   3.734   9.798 -0.5680  1.2694  1.8865
   9023SM  H10T12086   1.394   3.634   9.763 -0.7345  0.7755 -0.5540
   9023SM  C11S12087   1.384   3.739   9.946 -0.3664  0.2922  0.1505
   9023SM  H11S12088   1.277   3.713   9.962 -0.1551  0.0115  1.2288
   9023SM  H11T12089   1.392   3.847   9.973 -1.6997  0.6899 -0.8935
   9023SM  C12S12090   1.476   3.652  10.038  0.1323 -0.2747 -0.0473
   9023SM  H12S12091   1.575   3.703  10.029 -0.2747  0.6544  0.5563
   9023SM  H12T12092   1.483   3.549   9.997  0.6768 -0.8709  1.4940
   9023SM  C13S12093   1.426   3.639  10.179  0.5361 -1.0113  0.7703
   9023SM  H13S12094   1.331   3.581  10.172 -0.4519  0.7376 -1.3899
   9023SM  H13T12095   1.414   3.744  10.213  0.2415 -0.5455 -0.6899
   9023SM  C14S12096   1.526   3.571  10.274  0.1475  0.2686  0.4731
   9023SM  H14S12097   1.625   3.620  10.270 -0.5663  1.8210  1.0228
   9023SM  H14T12098   1.538   3.474  10.222  0.8261  0.5376  0.1235
   9023SM  C15S12099   1.466   3.565  10.410  0.0624  0.5828  0.2131
   9023SM  H15S12100   1.367   3.515  10.399  1.0263 -1.4283  0.1917
   9023SM  H15T12101   1.443   3.668  10.445 -2.8835  0.4615 -1.0455
   9023SM  C16S12102   1.544   3.491  10.513  0.1658 -0.4238  0.2028
   9023SM  H16S12103   1.655   3.503  10.510  0.0022  1.5097 -2.6262
   9023SM  H16T12104   1.531   3.381  10.505 -2.3772 -0.1390 -0.1168
   9023SM  C17S12105   1.497   3.527  10.659  0.0002  0.3126  0.3300
   9023SM  H17S12106   1.391   3.494  10.672 -0.5503  1.0940 -1.7520
   9023SM  H17T12107   1.490   3.636  10.678  1.8747  0.0921  2.7138
   9023SM  C18S12108   1.581   3.468  10.771 -0.5092 -0.2780 -0.0302
   9023SM  H18S12109   1.556   3.504  10.874  1.1509 -0.1156  0.3429
   9023SM  H18T12110   1.686   3.504  10.768 -0.5286  0.0849  1.9426
   9023SM  H18U12111   1.586   3.357  10.770  1.2491 -0.2350  0.8597
   9023SM   C1F12112   1.103   4.198   9.493 -0.7470  0.0893  0.1571
   9023SM    OF12113   0.998   4.178   9.434 -0.0143  0.7351  0.4419
   9023SM   C2F12114   1.101   4.243   9.632  1.0968 -0.5615 -0.2773
   9023SM   H2F12115   0.997   4.281   9.645  1.1081 -0.0382 -1.6043
   9023SM   H2G12116   1.181   4.319   9.645  0.8796 -0.1087 -1.4482
   9023SM   C3F12117   1.117   4.123   9.726 -0.5306 -0.8640  0.1127
   9023SM   H3F12118   1.211   4.070   9.699 -0.7514 -0.2038 -2.1405
   9023SM   H3G12119   1.033   4.051   9.721 -2.1305  0.9541 -0.3947
   9023SM   C4F12120   1.127   4.170   9.879  0.9220 -0.3048  0.2396
   9023SM   H4F12121   1.023   4.198   9.904  0.0173 -1.4612 -1.9302
   9023SM   H4G12122   1.194   4.259   9.884 -0.8482  1.2831 -2.1256
   9023SM   C5F12123   1.172   4.059   9.980 -0.2962  0.0760  0.0365
   9023SM   H5F12124   1.277   4.031   9.954 -0.2551  1.4457 -1.4693
   9023SM   H5G12125   1.112   3.968   9.959  0.1377 -0.2418  0.1556
   9023SM   C6F12126   1.156   4.098  10.128 -0.2932 -0.8616  0.1504
   9023SM   H6F12127   1.055   4.146  10.130  1.1021  2.5353 -1.7226
   9023SM   H6G12128   1.228   4.177  10.157 -1.7715 -0.0543  1.8228
   9023SM   C7F12129   1.156   3.993  10.242 -0.4386 -0.3405 -0.0838
   9023SM   H7F12130   1.251   3.935  10.243  1.0992  1.8631 -2.7802
   9023SM   H7G12131   1.072   3.924  10.221 -0.1275 -0.7045 -0.1556
   9023SM   C8F12132   1.134   4.055  10.381  0.2992 -0.6216  0.0631
   9023SM   H8F12133   1.048   4.126  10.380  0.5883 -0.1680  2.3933
   9023SM   H8G12134   1.225   4.117  10.399 -0.6230  0.8343 -0.1136
   9023SM   C9F12135   1.119   3.950  10.490  0.7020  0.0708  0.0697
   9023SM   H9F12136   1.198   3.872  10.496  0.0080 -0.5285  2.2185
   9023SM   H9G12137   1.023   3.900  10.465  1.2074  0.8472 -4.1557
   9023SM  C10F12138   1.120   4.016  10.624 -0.2316 -0.6326 -0.6442
   9023SM  H10F12139   1.027   4.069  10.655  0.2787 -0.1784  0.1485
   9023SM  H10G12140   1.208   4.080  10.647 -1.7635  0.6656  2.1181
   9023SM  C11F12141   1.121   3.916  10.742  0.9180  0.5136  0.4280
   9023SM  H11F12142   1.201   3.841  10.727  0.4421  0.2263 -0.7628
   9023SM  H11G12143   1.025   3.863  10.760  0.7719  0.4580 -0.4938
   9023SM  C12F12144   1.153   3.980  10.882 -0.5007  0.3058  0.1317
   9023SM  H12F12145   1.096   4.074  10.900  1.1309  1.3186  0.1380
   9023SM  H12G12146   1.258   4.014  10.888 -0.1210 -0.5219 -1.3973
   9023SM  C13F12147   1.105   3.893  10.998 -0.0967 -0.6644  0.4720
   9023SM  H13F12148   1.157   3.795  10.996 -0.4387 -0.8460  0.4293
   9023SM  H13G12149   0.999   3.870  10.972 -0.3225  1.0684 -0.3012
   9023SM  C14F12150   1.111   3.964  11.135  0.2855 -0.0015  0.1735
   9023SM  H14F12151   1.051   4.057  11.124  0.5926  0.4220  1.7872
   9023SM  H14G12152   1.215   3.997  11.156  0.2955 -0.2803  0.5822
   9023SM  C15F12153   1.050   3.885  11.253  0.4736 -0.4450  0.7340
   9023SM  H15F12154   1.103   3.788  11.261 -0.8471 -1.4116 -1.3095
   9023SM  H15G12155   0.945   3.863  11.222  0.4199  1.1645 -0.3400
   9023SM  C16F12156   1.058   3.955  11.392 -0.3736 -0.4572 -0.3845
   9023SM  H16F12157   0.992   4.044  11.392  0.8114  0.4431 -0.5574
   9023SM  H16G12158   1.160   3.997  11.407 -1.3152  1.8982 -0.2035
   9023SM  C17F12159   1.009   3.864  11.503  0.2372  0.6345 -0.1862
   9023SM  H17F12160   0.913   3.813  11.478 -0.9337  2.3678  0.6135
   9023SM  H17G12161   0.979   3.933  11.584 -1.6500 -0.1575 -0.1529
   9023SM  C18F12162   1.109   3.749  11.552 -0.5789  0.3307 -0.2901
   9023SM  H18F12163   1.111   3.657  11.490  1.5778 -0.1304  0.3915
   9023SM  H18G12164   1.070   3.724  11.653  1.9845 -0.0731  0.6867
   9023SM  C19F12165   1.250   3.805  11.565 -1.0006 -0.0628 -0.1868
   9023SM  H19F12166   1.240   3.895  11.629  0.4575 -0.4550  0.6418
   9023SM  H19G12167   1.296   3.822  11.466  1.5592  0.9875  1.0939
   9023SM  C20F12168   1.346   3.706  11.636 -0.2390  0.1168  0.4937
   9023SM  H20F12169   1.352   3.621  11.566  0.5642  0.1931  0.4669
   9023SM  H20G12170   1.312   3.662  11.733 -1.1886 -0.6149 -0.1549
   9023SM  C21F12171   1.494   3.750  11.636  0.0325 -0.7471  0.4621
   9023SM  H21F12172   1.502   3.846  11.692 -0.4256 -0.9392  0.8630
   9023SM  H21G12173   1.522   3.766  11.529  0.1210 -0.6314  0.5026
   9023SM  C22F12174   1.606   3.654  11.692 -0.2539  0.1060 -0.2706
   9023SM  H22F12175   1.584   3.631  11.799 -1.7388  2.2739 -0.0527
   9023SM  H22G12176   1.707   3.700  11.690  0.0460 -0.4411  0.9777
   9023SM  C23F12177   1.639   3.530  11.610 -0.4056  0.3909 -0.1099
   9023SM  H23F12178   1.554   3.463  11.587 -0.7919  0.2352  1.6080
   9023SM  H23G12179   1.707   3.464  11.669 -0.6367 -0.1685 -0.4704
   9023SM  H23H12180   1.698   3.556  11.520 -1.1716  1.3492 -0.3517
   9123SM     N12181   3.623   6.391   8.222 -0.3872 -0.2596  0.5361
   9123SM   C1512182   3.729   6.479   8.285 -0.6221 -0.1834  0.8531
   9123SM  H15A12183   3.809   6.490   8.214 -0.6857  0.0982  0.8257
   9123SM  H15B12184   3.752   6.433   8.380 -0.0860 -1.4694  0.1412
   9123SM  H15C12185   3.693   6.578   8.308 -3.1715 -1.0826  1.1435
   9123SM   C1412186   3.579   6.436   8.088  0.1609  0.8373 -0.4804
   9123SM  H14A12187   3.656   6.432   8.011  0.8577 -0.1015  0.2315
   9123SM  H14B12188   3.551   6.540   8.092  3.5797  2.0246 -2.7881
   9123SM  H14C12189   3.492   6.382   8.054 -0.6840  1.6665  0.3273
   9123SM   C1312190   3.683   6.253   8.208 -0.4764 -0.2747  0.0356
   9123SM  H13A12191   3.722   6.220   8.303 -0.9303 -1.9337 -0.3296
   9123SM  H13B12192   3.761   6.251   8.133 -0.8712  0.9505 -0.4387
   9123SM  H13C12193   3.603   6.185   8.184 -2.6575  2.0009  0.4003
   9123SM   C1212194   3.497   6.384   8.313 -0.3874  0.1620  0.8275
   9123SM  H12A12195   3.426   6.319   8.262 -1.1947  1.7937 -0.2275
   9123SM  H12B12196   3.449   6.479   8.295  0.0950  0.0710 -1.2666
   9123SM   C1112197   3.513   6.340   8.456 -0.2303 -0.1512 -0.0253
   9123SM  H11A12198   3.411   6.343   8.500 -0.2541 -0.2428 -0.0728
   9123SM  H11B12199   3.575   6.416   8.506  1.9693 -1.1190 -1.1267
   9123SM     P12200   3.676   6.183   8.599 -0.1325 -0.6366 -0.1327
   9123SM   O1312201   3.660   6.049   8.653  0.0383 -0.3384  0.6040
   9123SM   O1412202   3.813   6.206   8.553 -0.1562  0.0774 -0.2733
   9123SM   O1112203   3.636   6.284   8.711  0.2009 -0.3967  0.6567
   9123SM   O1212204   3.573   6.215   8.479 -0.0136  0.0575 -0.1218
   9123SM   C1S12205   3.550   6.235   8.815  0.1060 -0.2654 -0.0386
   9123SM   H1S12206   3.599   6.150   8.867  1.1451  0.6686  0.5663
   9123SM   H1T12207   3.446   6.210   8.784 -0.5874  0.4793  1.5625
   9123SM    NF12208   3.467   6.285   9.036  0.4642  0.4575 -0.1551
   9123SM   HNF12209   3.369   6.303   9.036  0.0566 -1.4577 -1.1551
   9123SM   C2S12210   3.530   6.343   8.926 -0.6392  0.6173  0.6033
   9123SM   H2S12211   3.635   6.368   8.951 -0.5012  1.0701 -0.3508
   9123SM   C3S12212   3.472   6.469   8.869  0.0574  0.4421 -0.4501
   9123SM   H3S12213   3.370   6.443   8.832 -0.2599 -1.3836  1.4918
   9123SM    O312214   3.548   6.530   8.763  0.3631  0.8593  0.1979
   9123SM   HO312215   3.569   6.453   8.710 -2.2539  0.4840 -0.4315
   9123SM   C4S12216   3.458   6.567   8.975 -0.5199  0.0414  0.6179
   9123SM   H4S12217   3.557   6.580   9.019  0.4541 -4.3140  0.1597
   9123SM   C5S12218   3.357   6.644   9.012  0.1872 -0.4580  0.2096
   9123SM   H5S12219   3.260   6.614   8.968  0.8475 -1.6621 -0.4680
   9123SM   C6S12220   3.332   6.740   9.118  0.6755 -0.1001 -0.3384
   9123SM   H6S12221   3.312   6.842   9.079  1.1656  1.4924  3.2099
   9123SM   H6T12222   3.427   6.749   9.176 -0.4851  0.7366  1.5354
   9123SM   C7S12223   3.225   6.693   9.225 -0.5739  0.8414 -0.0519
   9123SM   H7S12224   3.249   6.586   9.243 -0.4497  0.4170 -2.4566
   9123SM   H7T12225   3.121   6.687   9.188  0.8179  0.6047 -4.5294
   9123SM   C8S12226   3.234   6.773   9.354 -0.0079 -0.8455  0.3567
   9123SM   H8S12227   3.323   6.739   9.411  0.4962 -1.9808 -1.0549
   9123SM   H8T12228   3.140   6.746   9.407 -0.5517 -4.0710 -1.9844
   9123SM   C9S12229   3.253   6.922   9.334  0.4218 -0.0808  0.6611
   9123SM   H9S12230   3.199   6.944   9.240  2.1649 -0.9225 -0.5820
   9123SM   H9T12231   3.358   6.944   9.303 -0.0370 -0.6914 -1.4696
   9123SM  C10S12232   3.219   7.008   9.453  0.1494 -0.1501  0.9988
   9123SM  H10S12233   3.110   6.996   9.470  0.1704 -1.7424  0.1890
   9123SM  H10T12234   3.245   7.112   9.424 -0.0370 -0.5538 -0.7276
   9123SM  C11S12235   3.299   6.977   9.579  0.0502 -0.1493  0.0281
   9123SM  H11S12236   3.292   6.869   9.602  0.2676 -0.0307  0.6702
   9123SM  H11T12237   3.255   7.042   9.657 -1.3805  0.0908 -0.9485
   9123SM  C12S12238   3.447   7.012   9.590  0.1620 -0.2681  0.3385
   9123SM  H12S12239   3.447   7.123   9.589 -0.0043 -0.2703 -0.2860
   9123SM  H12T12240   3.494   6.971   9.498 -1.1111 -0.9252 -0.0512
   9123SM  C13S12241   3.516   6.952   9.711  0.2973  0.3095  0.0350
   9123SM  H13S12242   3.471   6.993   9.804 -0.2006 -0.8664  0.3390
   9123SM  H13T12243   3.618   6.996   9.702  0.0353  0.9906  0.3622
   9123SM  C14S12244   3.526   6.798   9.714 -0.6454 -0.1066 -0.4774
   9123SM  H14S12245   3.590   6.766   9.629 -0.1327 -2.0367  0.5786
   9123SM  H14T12246   3.423   6.756   9.715 -0.4774 -0.5066 -0.0428
   9123SM  C15S12247   3.597   6.757   9.847  0.1303  0.2120 -0.5208
   9123SM  H15S12248   3.705   6.785   9.845  0.3995 -0.4726  1.7116
   9123SM  H15T12249   3.612   6.648   9.838 -2.1657 -0.1083 -0.8300
   9123SM  C16S12250   3.527   6.811   9.975 -0.1906 -0.1531  0.3185
   9123SM  H16S12251   3.550   6.920   9.978  0.6978 -0.3191 -0.1960
   9123SM  H16T12252   3.582   6.760  10.057  1.2370  0.4684 -0.2255
   9123SM  C17S12253   3.379   6.780   9.976  0.8800 -0.0040 -0.4867
   9123SM  H17S12254   3.359   6.672   9.960 -2.7297  0.3890  0.6027
   9123SM  H17T12255   3.337   6.837   9.891 -0.7550 -0.2285  0.1458
   9123SM  C18S12256   3.310   6.834  10.104 -0.1493  0.0623 -0.0076
   9123SM  H18S12257   3.345   6.767  10.185 -1.0597 -1.0180 -0.4756
   9123SM  H18T12258   3.201   6.814  10.113 -0.2908  1.6606  3.6988
   9123SM  H18U12259   3.327   6.942  10.121 -3.6690  0.6589  0.4201
   9123SM   C1F12260   3.521   6.201   9.121  0.0390  0.3843 -0.3074
   9123SM    OF12261   3.633   6.160   9.107  0.2653 -0.3046 -0.2002
   9123SM   C2F12262   3.436   6.149   9.234 -0.3296 -0.5467  0.2395
   9123SM   H2F12263   3.360   6.081   9.190  0.1958 -1.1982  0.3390
   9123SM   H2G12264   3.394   6.239   9.284 -0.8176 -0.8526  0.3863
   9123SM   C3F12265   3.512   6.068   9.344  0.0626  0.5243  0.0775
   9123SM   H3F12266   3.581   6.131   9.404  0.4445 -1.4250  1.7987
   9123SM   H3G12267   3.577   5.989   9.299  1.6171  1.1428  1.1679
   9123SM   C4F12268   3.416   5.992   9.432  0.3642 -0.0366 -0.3873
   9123SM   H4F12269   3.384   5.897   9.383  0.2430 -1.9903  3.1506
   9123SM   H4G12270   3.332   6.061   9.457 -0.5425 -0.1979 -2.7268
   9123SM   C5F12271   3.479   5.950   9.564 -0.0833  0.3519 -0.0936
   9123SM   H5F12272   3.529   6.040   9.605 -0.8076  1.0678 -0.7702
   9123SM   H5G12273   3.554   5.871   9.542 -0.4149  0.2751 -0.9866
   9123SM   C6F12274   3.369   5.895   9.661 -0.4076 -0.1107  0.0439
   9123SM   H6F12275   3.307   5.814   9.616 -0.6270 -0.7665  1.4917
   9123SM   H6G12276   3.305   5.982   9.687  0.8442  0.3360  1.7452
   9123SM   C7F12277   3.444   5.842   9.782  0.0456  0.6418  0.3373
   9123SM   H7F12278   3.524   5.767   9.764 -0.2288 -0.0836  1.9572
   9123SM   H7G12279   3.361   5.799   9.842  0.8618  0.4832  1.3732
   9123SM   C8F12280   3.485   5.948   9.885 -0.5617  0.0659  0.3146
   9123SM   H8F12281   3.403   6.019   9.909 -1.1677 -0.0576 -1.2726
   9123SM   H8G12282   3.562   6.006   9.830 -2.4360  0.2424 -2.3275
   9123SM   C9F12283   3.545   5.893  10.015  0.5759  0.1944  0.5221
   9123SM   H9F12284   3.613   5.809   9.987 -1.2564 -1.0835 -0.3430
   9123SM   H9G12285   3.465   5.839  10.070  2.4478 -1.5209  1.7214
   9123SM  C10F12286   3.599   5.998  10.097 -1.0623  0.3558  0.0785
   9123SM  H10F12287   3.550   6.097  10.088 -3.4282 -0.5193  2.1727
   9123SM  H10G12288   3.704   6.016  10.064 -2.5698  2.0317 -4.5296
   9123SM  C11F12289   3.613   5.976  10.249  0.1443 -0.0491  0.1361
   9123SM  H11F12290   3.693   5.899  10.247  0.7445  0.5794 -0.4988
   9123SM  H11G12291   3.517   5.929  10.280 -0.8198 -0.0515 -2.5427
   9123SM  C12F12292   3.647   6.098  10.332 -0.2860 -0.2884  0.8368
   9123SM  H12F12293   3.564   6.168  10.353  0.8349  2.6817 -3.2739
   9123SM  H12G12294   3.706   6.171  10.272 -1.1866 -1.0556 -1.0777
   9123SM  C13F12295   3.727   6.053  10.452  0.8649  0.7843 -0.6060
   9123SM  H13F12296   3.813   5.997  10.410  0.5473  0.4877 -0.8531
   9123SM  H13G12297   3.664   5.976  10.502 -2.1219  3.5494  0.2392
   9123SM  C14F12298   3.763   6.171  10.542 -0.0299  0.5914 -0.5971
   9123SM  H14F12299   3.684   6.249  10.547 -0.1560  0.4326 -0.0690
   9123SM  H14G12300   3.844   6.213  10.480 -2.0896  2.8814 -1.8999
   9123SM  C15F12301   3.803   6.125  10.682  0.1668  0.0055  0.1731
   9123SM  H15F12302   3.885   6.052  10.665  0.5228  0.2991  0.6250
   9123SM  H15G12303   3.717   6.067  10.722  0.5411 -0.3995  0.3979
   9123SM  C16F12304   3.863   6.231  10.774 -0.3069  0.3512  0.6412
   9123SM  H16F12305   3.784   6.295  10.818 -0.8625 -0.4608  0.8549
   9123SM  H16G12306   3.940   6.288  10.718 -1.2887  0.9181 -0.1568
   9123SM  C17F12307   3.938   6.166  10.897 -0.3583  0.4856 -0.5345
   9123SM  H17F12308   3.999   6.242  10.951  0.3056 -1.0598  0.9656
   9123SM  H17G12309   4.008   6.085  10.867  0.5226  0.0663  2.3326
   9123SM  C18F12310   3.848   6.108  11.008  0.5011  0.6796 -0.2572
   9123SM  H18F12311   3.817   6.012  10.962  2.4636 -0.4514  0.6757
   9123SM  H18G12312   3.761   6.176  11.023  0.1543  0.3837 -0.8860
   9123SM  C19F12313   3.919   6.081  11.143  0.8848  0.5682  0.4553
   9123SM  H19F12314   3.961   6.179  11.174  0.4966  0.7970  0.2741
   9123SM  H19G12315   4.009   6.023  11.118  1.0250  1.1962 -0.5647
   9123SM  C20F12316   3.839   6.007  11.240 -0.1527 -0.0210 -0.0082
   9123SM  H20F12317   3.901   5.967  11.323 -2.4665  0.0217  1.8473
   9123SM  H20G12318   3.783   5.929  11.184 -1.9183  0.7927  0.5418
   9123SM  C21F12319   3.733   6.096  11.303 -0.1385  0.3312 -0.0566
   9123SM  H21F12320   3.661   6.140  11.230 -2.2951 -0.2520  1.6161
   9123SM  H21G12321   3.785   6.185  11.344 -0.4014 -0.6425  2.5687
   9123SM  C22F12322   3.641   6.025  11.412 -0.8496  0.0864 -0.4355
   9123SM  H22F12323   3.702   5.966  11.485  0.5045 -0.8109 -2.1922
   9123SM  H22G12324   3.587   5.943  11.359 -2.2772  1.3697 -1.0335
   9123SM  C23F12325   3.531   6.114  11.476  0.4707 -0.5121  0.6200
   9123SM  H23F12326   3.481   6.158  11.387  2.7540 -0.3621 -0.6717
   9123SM  H23G12327   3.559   6.192  11.549 -1.2796 -0.3098  1.1132
   9123SM  H23H12328   3.460   6.053  11.535  1.3502 -1.1461  1.0440
   9223SM     N12329   1.547   3.556   8.382  0.3090 -0.4237  0.3131
   9223SM   C1512330   1.424   3.496   8.326  0.2002  0.1498  0.2699
   9223SM  H15A12331   1.438   3.472   8.222  0.4247  0.6139  0.1932
   9223SM  H15B12332   1.345   3.569   8.314 -1.7852 -2.0362 -0.8996
   9223SM  H15C12333   1.378   3.413   8.380 -4.0001  0.2681 -2.6192
   9223SM   C1412334   1.661   3.466   8.363 -0.6488 -0.4402  0.4631
   9223SM  H14A12335   1.758   3.508   8.384 -0.6783 -0.2392  0.1995
   9223SM  H14B12336   1.659   3.426   8.263  1.8470 -2.2975  1.0678
   9223SM  H14C12337   1.650   3.374   8.418  1.2471 -1.2053 -0.3656
   9223SM   C1312338   1.592   3.680   8.306 -0.0453 -0.6094 -0.2728
   9223SM  H13A12339   1.633   3.652   8.210 -0.7608 -1.5091 -0.3249
   9223SM  H13B12340   1.670   3.723   8.368 -1.1957 -0.2923  1.0089
   9223SM  H13C12341   1.514   3.752   8.286  0.3258 -0.0845  0.1286
   9223SM   C1212342   1.523   3.588   8.531  0.2833  0.8697 -0.3026
   9223SM  H12A12343   1.463   3.678   8.531  1.2862  1.5764 -1.2378
   9223SM  H12B12344   1.617   3.605   8.582  0.7394 -0.7364 -0.5648
   9223SM   C1112345   1.446   3.481   8.608 -0.5929  0.4952  0.3525
   9223SM  H11A12346   1.353   3.448   8.556  0.2428 -1.3721 -0.0589
   9223SM  H11B12347   1.416   3.516   8.709 -0.5100 -0.7344  0.8238
   9223SM     P12348   1.638   3.375   8.736 -0.2137 -0.3725  0.0175
   9223SM   O1312349   1.714   3.242   8.748 -0.4496  0.6211  0.6344
   9223SM   O1412350   1.727   3.488   8.715  0.5777 -0.6203  0.2455
   9223SM   O1112351   1.556   3.396   8.865  0.0527  0.3506 -0.5308
   9223SM   O1212352   1.527   3.361   8.618 -0.6410 -0.3303 -0.1916
   9223SM   C1S12353   1.429   3.324   8.887 -0.7966  0.1079 -0.1551
   9223SM   H1S12354   1.447   3.226   8.839  1.4517 -0.9499  2.5904
   9223SM   H1T12355   1.341   3.386   8.857 -0.7317  1.6825  2.4915
   9223SM    NF12356   1.336   3.208   9.080  0.1789 -0.0780  0.1071
   9223SM   HNF12357   1.244   3.234   9.108 -0.3510  0.1992 -1.7584
   9223SM   C2S12358   1.422   3.314   9.035 -0.0857 -0.0722 -0.8415
   9223SM   H2S12359   1.525   3.288   9.068 -0.1161  1.3906  0.5325
   9223SM   C3S12360   1.395   3.452   9.106 -0.0428 -0.2491 -0.1258
   9223SM   H3S12361   1.298   3.496   9.075  0.1360  0.7175  0.6205
   9223SM    O312362   1.498   3.545   9.072  0.0677  0.1787  0.3926
   9223SM   HO312363   1.554   3.500   9.008  0.9304 -0.7063  1.6877
   9223SM   C4S12364   1.398   3.438   9.259 -0.4640  0.1552 -0.3434
   9223SM   H4S12365   1.499   3.446   9.303 -1.4256  2.0051  1.6761
   9223SM   C5S12366   1.298   3.440   9.352  0.2037  0.1738  1.2279
   9223SM   H5S12367   1.196   3.461   9.317  0.1609 -0.9528  0.6287
   9223SM   C6S12368   1.323   3.429   9.496  0.7573 -0.0197 -0.3000
   9223SM   H6S12369   1.345   3.533   9.529 -1.3238  0.9097 -1.6089
   9223SM   H6T12370   1.409   3.364   9.520  0.6401  0.2266  0.8558
   9223SM   C7S12371   1.210   3.381   9.587  0.0722 -0.4223  0.6422
   9223SM   H7S12372   1.198   3.273   9.561  0.6904  0.0509 -1.8464
   9223SM   H7T12373   1.119   3.442   9.569 -0.1594 -1.3746 -1.7306
   9223SM   C8S12374   1.256   3.407   9.735  0.3632  0.5682  0.2897
   9223SM   H8S12375   1.238   3.515   9.751  0.6596  0.3694  2.1887
   9223SM   H8T12376   1.366   3.397   9.740  0.3613  0.6824  0.6085
   9223SM   C9S12377   1.184   3.327   9.845 -0.2527 -0.8242 -0.1901
   9223SM   H9S12378   1.223   3.223   9.834  0.1687 -0.4773 -2.4367
   9223SM   H9T12379   1.080   3.328   9.807  0.4925 -0.6216 -2.3835
   9223SM  C10S12380   1.226   3.374   9.989 -0.3639 -0.3357  0.0602
   9223SM  H10S12381   1.210   3.479  10.021  0.5216 -0.0544 -0.3884
   9223SM  H10T12382   1.331   3.345  10.010  0.2718  0.9387 -1.1580
   9223SM  C11S12383   1.147   3.297  10.098  0.1892 -0.0222  0.0223
   9223SM  H11S12384   1.184   3.192  10.099 -2.7575 -1.2083 -1.6295
   9223SM  H11T12385   1.042   3.298  10.062  0.9784  0.0270 -2.5031
   9223SM  C12S12386   1.158   3.368  10.231 -1.0401  0.0814 -0.2823
   9223SM  H12S12387   1.126   3.473  10.214 -1.8779 -0.2921 -1.0687
   9223SM  H12T12388   1.265   3.367  10.261 -1.0806 -0.5159 -0.1352
   9223SM  C13S12389   1.064   3.313  10.337  0.2289  0.1417  0.5657
   9223SM  H13S12390   1.083   3.204  10.344  1.3485  0.3415  0.7964
   9223SM  H13T12391   0.958   3.323  10.305  0.2321  1.8246  0.9576
   9223SM  C14S12392   1.093   3.383  10.469 -0.6697 -0.0258  0.2883
   9223SM  H14S12393   1.062   3.490  10.462  0.3717  0.3736  1.4721
   9223SM  H14T12394   1.198   3.386  10.504  0.2164 -1.2334 -2.0457
   9223SM  C15S12395   1.008   3.326  10.593 -0.2760  0.7611 -0.1645
   9223SM  H15S12396   1.037   3.219  10.584 -1.8898  0.3409 -0.8670
   9223SM  H15T12397   0.899   3.336  10.572 -0.6647  1.1935  1.8485
   9223SM  C16S12398   1.046   3.390  10.728  0.3444  0.6033  0.6120
   9223SM  H16S12399   1.156   3.385  10.733  0.5706  0.2388 -2.4262
   9223SM  H16T12400   0.998   3.328  10.807 -1.8112  0.8391 -0.4258
   9223SM  C17S12401   1.014   3.530  10.734 -0.5738  0.9883 -0.0145
   9223SM  H17S12402   1.045   3.585  10.642  1.2110 -0.5735 -0.4098
   9223SM  H17T12403   1.072   3.583  10.813  1.1034 -0.4354 -0.2284
   9223SM  C18S12404   0.867   3.560  10.768  0.3209  0.1060  0.6217
   9223SM  H18S12405   0.849   3.669  10.752 -0.6705 -0.1433 -0.0580
   9223SM  H18T12406   0.839   3.540  10.874 -0.6341  0.9304  0.5541
   9223SM  H18U12407   0.800   3.500  10.703  0.1131 -1.1948  1.9768
   9223SM   C1F12408   1.358   3.079   9.056 -0.1125 -0.1556 -0.5025
   9223SM    OF12409   1.466   3.038   9.016 -0.2926 -0.4263  0.0528
   9223SM   C2F12410   1.253   2.980   9.093 -0.6808 -0.1184  0.3667
   9223SM   H2F12411   1.167   2.975   9.023  0.8410 -4.8378 -1.5847
   9223SM   H2G12412   1.207   3.003   9.192  1.6320  0.3093  1.4047
   9223SM   C3F12413   1.310   2.839   9.112 -0.1277 -0.0272  0.1447
   9223SM   H3F12414   1.367   2.835   9.208 -1.5519  0.8979  1.0524
   9223SM   H3G12415   1.379   2.826   9.026  0.1629  1.3244  0.1585
   9223SM   C4F12416   1.201   2.730   9.111 -0.0325  0.3780 -0.0142
   9223SM   H4F12417   1.145   2.726   9.015 -0.2569 -1.0487  0.1413
   9223SM   H4G12418   1.135   2.736   9.200  0.1657  0.4955  0.1258
   9223SM   C5F12419   1.251   2.579   9.126 -0.1548 -0.0389  0.2743
   9223SM   H5F12420   1.362   2.577   9.129 -0.1325 -3.6971  0.9525
   9223SM   H5G12421   1.214   2.521   9.039  0.1291 -0.1504  0.2280
   9223SM   C6F12422   1.211   2.533   9.265  0.3712 -0.0708 -0.2558
   9223SM   H6F12423   1.256   2.601   9.342 -0.5151  1.7683 -1.2824
   9223SM   H6G12424   1.267   2.439   9.280 -0.1619 -0.6329 -1.6568
   9223SM   C7F12425   1.063   2.504   9.285 -0.7128  0.4736 -0.2931
   9223SM   H7F12426   1.033   2.447   9.194  1.2926 -0.8621 -0.1772
   9223SM   H7G12427   1.012   2.600   9.308 -0.7731  0.4242 -0.2206
   9223SM   C8F12428   1.033   2.428   9.411  0.2910  0.7150 -0.2062
   9223SM   H8F12429   1.112   2.352   9.428 -2.2604 -1.8953  0.8971
   9223SM   H8G12430   0.940   2.370   9.391  0.0205  1.4746 -1.2419
   9223SM   C9F12431   1.026   2.511   9.545 -0.3711  0.4336  0.7554
   9223SM   H9F12432   0.950   2.592   9.539 -0.9237 -0.1593 -0.6314
   9223SM   H9G12433   1.133   2.540   9.552 -0.4430  0.6627  0.9297
   9223SM  C10F12434   1.007   2.405   9.658  0.3596 -0.4109 -0.1401
   9223SM  H10F12435   1.080   2.322   9.649  2.2180  1.0210  0.9237
   9223SM  H10G12436   0.909   2.359   9.636  0.6103 -0.7103 -0.6294
   9223SM  C11F12437   1.009   2.470   9.790 -0.4820 -0.0130 -0.9712
   9223SM  H11F12438   0.925   2.542   9.791  0.1577  0.7335 -0.6708
   9223SM  H11G12439   1.106   2.523   9.802 -0.9627  0.3428  2.0474
   9223SM  C12F12440   0.970   2.374   9.910 -0.3331 -0.4173  0.6619
   9223SM  H12F12441   1.044   2.291   9.919  1.0663  0.7476  0.1957
   9223SM  H12G12442   0.878   2.317   9.884 -0.6439  0.1537  0.4894
   9223SM  C13F12443   0.959   2.439  10.048 -0.3720  1.2332 -0.0483
   9223SM  H13F12444   0.864   2.490  10.073 -0.9955  0.1844 -0.2347
   9223SM  H13G12445   1.040   2.513  10.066 -0.9228  1.6390  0.8064
   9223SM  C14F12446   0.981   2.335  10.158  0.1120  0.6083  0.5693
   9223SM  H14F12447   1.084   2.292  10.155  0.4935  1.5025  0.5926
   9223SM  H14G12448   0.914   2.247  10.149  1.0322 -0.2285  1.7152
   9223SM  C15F12449   0.968   2.395  10.295  0.6561  0.0792 -0.1404
   9223SM  H15F12450   0.870   2.447  10.303  0.2850 -0.4755 -0.9293
   9223SM  H15G12451   1.055   2.459  10.319  0.0221  0.8246  0.2144
   9223SM  C16F12452   0.966   2.284  10.400 -0.0965 -0.4707 -0.1596
   9223SM  H16F12453   1.075   2.269  10.410 -0.3373 -2.2983  0.0487
   9223SM  H16G12454   0.908   2.196  10.363 -0.9205 -0.8353  1.8798
   9223SM  C17F12455   0.898   2.331  10.531 -0.5636 -0.3150  0.1423
   9223SM  H17F12456   0.794   2.364  10.511 -1.2110 -2.6507 -0.6194
   9223SM  H17G12457   0.956   2.414  10.576 -0.2973 -0.7188  0.5612
   9223SM  C18F12458   0.896   2.215  10.632 -0.3925  0.0230 -0.5538
   9223SM  H18F12459   0.998   2.171  10.642 -0.2052  0.3735 -0.9005
   9223SM  H18G12460   0.822   2.135  10.607 -1.1063  0.6967 -0.6297
   9223SM  C19F12461   0.858   2.275  10.770 -0.3368  0.1982  0.2654
   9223SM  H19F12462   0.757   2.320  10.756  0.0821  1.1427  0.2423
   9223SM  H19G12463   0.920   2.365  10.790 -1.3601  0.6222  1.6895
   9223SM  C20F12464   0.852   2.179  10.892 -0.0317  0.6172  0.4353
   9223SM  H20F12465   0.797   2.225  10.977 -1.8327  1.4856 -1.1366
   9223SM  H20G12466   0.950   2.155  10.939 -1.2322  1.9883  3.9493
   9223SM  C21F12467   0.780   2.044  10.864  0.2421 -0.1303 -0.6080
   9223SM  H21F12468   0.775   2.010  10.970  0.4393 -0.8221 -0.8181
   9223SM  H21G12469   0.836   1.971  10.801 -0.8784 -1.5472 -0.0101
   9223SM  C22F12470   0.633   2.055  10.809 -0.7905  0.0590  0.1834
   9223SM  H22F12471   0.638   2.081  10.701  3.0475 -1.4978 -0.1946
   9223SM  H22G12472   0.593   2.136  10.873 -0.7541  2.2229 -2.3270
   9223SM  C23F12473   0.555   1.927  10.834 -0.3045  0.1323 -0.0803
   9223SM  H23F12474   0.569   1.854  10.751  1.3852 -0.2346  0.4880
   9223SM  H23G12475   0.447   1.952  10.843 -0.4880 -0.8862  0.7401
   9223SM  H23H12476   0.588   1.880  10.929 -1.9763 -2.9014 -0.8866
   9323SM     N12477   2.655   5.381   8.961 -0.8876 -0.1282 -0.1125
   9323SM   C1512478   2.792   5.349   8.910 -0.2381 -0.0396  0.5703
   9323SM  H15A12479   2.828   5.436   8.858 -1.9091 -0.3346 -1.1806
   9323SM  H15B12480   2.785   5.260   8.850 -1.0576 -0.6138  1.4828
   9323SM  H15C12481   2.866   5.317   8.982  2.7436  1.2438 -1.7143
   9323SM   C1412482   2.572   5.430   8.847 -0.2928 -0.4026  0.1098
   9323SM  H14A12483   2.467   5.422   8.868  0.0686 -0.2360  2.1983
   9323SM  H14B12484   2.595   5.372   8.759  2.2508 -0.8764  1.0011
   9323SM  H14C12485   2.584   5.536   8.830  0.1545 -0.4867 -0.1281
   9323SM   C1312486   2.596   5.255   9.019  0.2769  0.4322 -0.4139
   9323SM  H13A12487   2.563   5.192   8.938  0.1476  1.2077 -0.9802
   9323SM  H13B12488   2.506   5.264   9.078  0.7169 -1.6372  0.6717
   9323SM  H13C12489   2.676   5.206   9.072 -0.8347 -1.3630 -0.3011
   9323SM   C1212490   2.653   5.485   9.072  0.4254 -0.0858 -0.5778
   9323SM  H12A12491   2.710   5.453   9.159  1.2204  1.8568 -0.3310
   9323SM  H12B12492   2.551   5.501   9.105  1.1107  3.1144  0.3569
   9323SM   C1112493   2.705   5.627   9.043 -0.0205 -0.8520  0.7438
   9323SM  H11A12494   2.801   5.618   8.986  1.3512 -1.6507  3.0716
   9323SM  H11B12495   2.742   5.672   9.138  1.0799  2.4531 -1.0587
   9323SM     P12496   2.626   5.807   8.855 -0.0504  0.3934  0.2552
   9323SM   O1312497   2.747   5.776   8.779 -1.2817 -0.3694  0.4116
   9323SM   O1412498   2.499   5.786   8.775 -0.1337  0.2649 -0.2463
   9323SM   O1112499   2.631   5.944   8.913  0.5776 -0.3764  0.4014
   9323SM   O1212500   2.603   5.711   8.984  0.3129 -0.1823 -0.0677
   9323SM   C1S12501   2.538   5.984   9.012  0.4740 -0.3194  0.2289
   9323SM   H1S12502   2.449   5.917   9.022  0.3699  0.1112  3.4526
   9323SM   H1T12503   2.497   6.085   8.992 -0.0862 -0.5924 -0.0467
   9323SM    NF12504   2.510   6.019   9.257  0.0472  0.1388 -0.0743
   9323SM   HNF12505   2.519   6.094   9.322 -0.8675 -0.9551  1.3650
   9323SM   C2S12506   2.608   5.997   9.156  0.7839  0.2358 -0.8456
   9323SM   H2S12507   2.658   5.898   9.168  0.6237  0.3493  1.0960
   9323SM   C3S12508   2.714   6.114   9.146 -0.1688  0.3883 -0.2689
   9323SM   H3S12509   2.671   6.216   9.140  1.1843  0.9943 -0.0679
   9323SM    O312510   2.809   6.124   9.034 -0.3254 -0.0582  0.1398
   9323SM   HO312511   2.774   6.054   8.979 -1.9643  0.6863  0.1733
   9323SM   C4S12512   2.787   6.101   9.278 -0.4241 -0.1438 -0.3732
   9323SM   H4S12513   2.850   6.011   9.283 -1.1806 -0.6279  0.9845
   9323SM   C5S12514   2.794   6.187   9.379  0.3802 -0.7968 -0.5711
   9323SM   H5S12515   2.728   6.274   9.387  0.9011 -0.4843  0.5868
   9323SM   C6S12516   2.869   6.159   9.506  0.2000 -0.1593  0.0028
   9323SM   H6S12517   2.805   6.163   9.596 -1.0343 -2.0064 -0.7429
   9323SM   H6T12518   2.950   6.235   9.518  0.7487 -0.5398 -1.1026
   9323SM   C7S12519   2.954   6.025   9.519 -0.2421  0.1611 -0.0058
   9323SM   H7S12520   3.028   6.027   9.436  2.1533  3.0954  1.9826
   9323SM   H7T12521   2.884   5.939   9.511 -0.0424  0.1450 -3.7813
   9323SM   C8S12522   3.045   6.020   9.639  0.1003  0.0556 -0.0948
   9323SM   H8S12523   3.120   6.102   9.635  0.0915  0.0568 -0.2214
   9323SM   H8T12524   3.096   5.921   9.642  0.2811  0.1052 -1.1322
   9323SM   C9S12525   2.980   6.026   9.775  1.0389 -0.1666  0.1236
   9323SM   H9S12526   2.910   5.941   9.794  1.0504 -0.1821  0.0965
   9323SM   H9T12527   2.913   6.113   9.791  2.3491  1.1808 -1.3309
   9323SM  C10S12528   3.090   6.032   9.888  0.0291 -0.0698 -0.6185
   9323SM  H10S12529   3.162   6.113   9.868  1.1766 -0.5655  1.2448
   9323SM  H10T12530   3.151   5.940   9.875  1.8811  0.7476  1.6173
   9323SM  C11S12531   3.040   6.036  10.038  0.0167  0.5425 -0.0615
   9323SM  H11S12532   2.969   5.954  10.064  0.3878 -0.0274 -0.8014
   9323SM  H11T12533   2.969   6.121  10.045  2.3915  2.6169  0.1665
   9323SM  C12S12534   3.150   6.038  10.144  1.3008  0.9951 -0.1170
   9323SM  H12S12535   3.222   6.121  10.128  0.2816  1.3914 -3.3643
   9323SM  H12T12536   3.198   5.937  10.139  0.0408  0.4220 -3.4422
   9323SM  C13S12537   3.093   6.039  10.290 -0.2224 -0.3612 -0.0929
   9323SM  H13S12538   3.006   5.971  10.306 -0.0827 -0.8558 -1.3029
   9323SM  H13T12539   3.057   6.142  10.310 -0.9652 -0.9559  1.8262
   9323SM  C14S12540   3.199   6.020  10.400  0.5572  0.3331 -0.1714
   9323SM  H14S12541   3.288   6.075  10.364  0.9010  1.0086  1.6050
   9323SM  H14T12542   3.229   5.913  10.407 -1.1885 -0.2674 -1.2157
   9323SM  C15S12543   3.174   6.104  10.534  0.2070  0.3892 -0.6253
   9323SM  H15S12544   3.162   6.210  10.503  1.0794  0.9315  0.8318
   9323SM  H15T12545   3.073   6.081  10.574  0.0265  0.6444 -0.9243
   9323SM  C16S12546   3.285   6.100  10.630 -0.0039  0.3231  0.4676
   9323SM  H16S12547   3.376   6.153  10.593 -1.0991 -0.0080 -3.0405
   9323SM  H16T12548   3.309   5.994  10.651 -1.6719 -0.0776  0.4437
   9323SM  C17S12549   3.248   6.167  10.770  0.0764  0.2423  0.4784
   9323SM  H17S12550   3.152   6.127  10.808  0.9421 -0.3548  2.1476
   9323SM  H17T12551   3.235   6.277  10.758 -0.0098  0.2775  0.8968
   9323SM  C18S12552   3.343   6.158  10.885 -0.2016 -0.9226 -0.2756
   9323SM  H18S12553   3.443   6.195  10.852  0.1917 -1.7086 -0.0085
   9323SM  H18T12554   3.353   6.054  10.924 -1.1616 -0.9139  0.0241
   9323SM  H18U12555   3.312   6.223  10.969  0.6491  1.4885 -1.7317
   9323SM   C1F12556   2.414   5.937   9.291 -0.5821 -0.7297  0.1179
   9323SM    OF12557   2.382   5.845   9.220 -0.1031  0.4877  0.0794
   9323SM   C2F12558   2.357   5.963   9.426 -0.3299 -0.1664  0.3787
   9323SM   H2F12559   2.246   5.968   9.429 -0.3917 -1.3862  0.7119
   9323SM   H2G12560   2.400   6.053   9.475  0.9222 -1.8013  2.4612
   9323SM   C3F12561   2.391   5.850   9.530 -0.2095 -0.2869  0.2362
   9323SM   H3F12562   2.363   5.751   9.488  0.5197 -0.5901  0.4512
   9323SM   H3G12563   2.333   5.850   9.625 -2.0166  0.6674 -0.8207
   9323SM   C4F12564   2.538   5.849   9.565  0.1654 -0.0338 -0.7217
   9323SM   H4F12565   2.599   5.854   9.472 -0.3521 -3.1928 -1.3352
   9323SM   H4G12566   2.570   5.752   9.608 -0.2813  0.0152 -0.2726
   9323SM   C5F12567   2.586   5.957   9.655 -0.7186 -0.1998  0.2156
   9323SM   H5F12568   2.544   6.055   9.624 -1.7369 -0.6956  0.0028
   9323SM   H5G12569   2.696   5.969   9.648 -0.5933 -1.1816  0.3939
   9323SM   C6F12570   2.534   5.937   9.801  0.4545  0.3847 -0.1265
   9323SM   H6F12571   2.546   5.828   9.821  0.7205  0.4823  0.2572
   9323SM   H6G12572   2.426   5.958   9.814  0.3269 -1.4399  2.7526
   9323SM   C7F12573   2.626   6.011   9.907 -0.4187  0.1044  0.1183
   9323SM   H7F12574   2.623   6.118   9.878  0.8751 -0.1516 -1.0989
   9323SM   H7G12575   2.731   5.978   9.886 -1.0615  0.0099 -3.7339
   9323SM   C8F12576   2.578   5.975  10.049  0.2028  0.3727 -0.6213
   9323SM   H8F12577   2.588   5.866  10.069 -1.9145 -0.0060 -1.4066
   9323SM   H8G12578   2.474   6.014  10.053  0.0367 -0.1475  0.7240
   9323SM   C9F12579   2.664   6.039  10.156  0.7391 -0.4277 -0.2016
   9323SM   H9F12580   2.678   6.143  10.119  1.0087 -0.5878 -0.5542
   9323SM   H9G12581   2.764   5.990  10.165 -0.2865 -2.7162 -0.5766
   9323SM  C10F12582   2.598   6.030  10.289  0.5292  0.0364 -0.3968
   9323SM  H10F12583   2.566   5.925  10.311  0.6027 -0.2643 -1.6655
   9323SM  H10G12584   2.507   6.093  10.289  0.4695  0.0039  1.6029
   9323SM  C11F12585   2.687   6.077  10.400  0.2382  0.1186  0.7187
   9323SM  H11F12586   2.729   6.177  10.376  2.8230 -1.2218 -0.7649
   9323SM  H11G12587   2.785   6.026  10.392  0.4160  0.4527  0.7483
   9323SM  C12F12588   2.627   6.064  10.542 -0.1003 -0.1152  0.4693
   9323SM  H12F12589   2.640   5.954  10.558  1.0916  0.2887  2.7420
   9323SM  H12G12590   2.528   6.114  10.548  1.2701  2.9513 -0.5329
   9323SM  C13F12591   2.709   6.132  10.653  0.1201 -0.2850 -0.5687
   9323SM  H13F12592   2.712   6.239  10.626  0.0394  0.3582  1.7581
   9323SM  H13G12593   2.810   6.085  10.650  0.3652  0.1362  0.5068
   9323SM  C14F12594   2.640   6.120  10.788  0.0941  0.6058  0.0231
   9323SM  H14F12595   2.653   6.019  10.833 -3.5035  0.0968  0.1679
   9323SM  H14G12596   2.532   6.132  10.769 -0.1795 -0.6938  0.6503
   9323SM  C15F12597   2.693   6.216  10.898  0.3374 -0.2392 -0.4365
   9323SM  H15F12598   2.612   6.237  10.972  0.4182  1.2471 -0.7477
   9323SM  H15G12599   2.701   6.309  10.839 -0.4029  0.0473 -0.1048
   9323SM  C16F12600   2.827   6.178  10.965  0.3081  0.3893 -0.2289
   9323SM  H16F12601   2.906   6.137  10.898  1.1736  0.6055  0.6228
   9323SM  H16G12602   2.789   6.101  11.035 -1.3402 -0.8180 -2.3397
   9323SM  C17F12603   2.879   6.297  11.053 -0.8516 -0.3166 -0.3661
   9323SM  H17F12604   2.803   6.323  11.129  0.6537 -0.8110  1.3617
   9323SM  H17G12605   2.901   6.392  10.999  0.7799  1.9419  3.8124
   9323SM  C18F12606   3.006   6.270  11.146  0.5264  0.4450 -0.0827
   9323SM  H18F12607   3.077   6.220  11.076 -2.8277 -2.0392 -1.9799
   9323SM  H18G12608   2.975   6.204  11.230  0.8796 -1.6379 -1.5104
   9323SM  C19F12609   3.065   6.396  11.206 -0.1468  0.2648 -0.7206
   9323SM  H19F12610   2.978   6.438  11.261  1.0489  0.1449  1.3789
   9323SM  H19G12611   3.090   6.481  11.141  0.3300  1.7771  1.3385
   9323SM  C20F12612   3.177   6.358  11.304  0.4394  0.2473  0.2241
   9323SM  H20F12613   3.254   6.298  11.250  1.7683 -0.1073  2.4100
   9323SM  H20G12614   3.134   6.286  11.377  1.7906 -0.6052  0.2286
   9323SM  C21F12615   3.248   6.479  11.358 -0.8852 -0.2502 -0.1917
   9323SM  H21F12616   3.170   6.548  11.398  0.0141  0.9260 -0.3872
   9323SM  H21G12617   3.310   6.544  11.292 -2.1058  1.6865  0.4595
   9323SM  C22F12618   3.337   6.448  11.491 -0.4853  0.7141  0.4428
   9323SM  H22F12619   3.402   6.367  11.453  0.4809  2.8854 -3.0492
   9323SM  H22G12620   3.275   6.409  11.574 -0.7354  1.0434  0.4156
   9323SM  C23F12621   3.416   6.564  11.556  0.6102  0.2138  0.0412
   9323SM  H23F12622   3.474   6.538  11.647 -1.5363 -0.7994  1.1978
   9323SM  H23G12623   3.357   6.654  11.587 -0.9606 -1.1959  1.3736
   9323SM  H23H12624   3.490   6.604  11.484  0.3184  0.3181 -0.2069
   9423SM     N12625   1.932   0.418   8.454 -0.1985  0.4011 -0.1288
   9423SM   C1512626   1.858   0.306   8.389 -0.3017 -0.5861  0.2304
   9423SM  H15A12627   1.768   0.296   8.448  1.3034  1.3412  3.2889
   9423SM  H15B12628   1.919   0.217   8.393  2.6603  1.3227  0.6798
   9423SM  H15C12629   1.832   0.323   8.286  0.4527  2.6690  0.4668
   9423SM   C1412630   2.071   0.419   8.400  0.1412  0.0444 -0.7019
   9423SM  H14A12631   2.059   0.428   8.293 -2.6553 -0.7469 -0.5525
   9423SM  H14B12632   2.117   0.326   8.433  1.5766  1.0475  0.2432
   9423SM  H14C12633   2.124   0.502   8.444  1.7063 -1.8620  1.2515
   9423SM   C1312634   1.869   0.552   8.432  0.2387  0.9338  0.5046
   9423SM  H13A12635   1.917   0.634   8.484  1.3197 -0.2394  1.4348
   9423SM  H13B12636   1.769   0.557   8.472  0.2510  1.6051  0.4698
   9423SM  H13C12637   1.846   0.560   8.327 -1.2702 -0.4691  0.6961
   9423SM   C1212638   1.930   0.382   8.601 -0.0382  0.5102  0.6876
   9423SM  H12A12639   2.001   0.438   8.660  2.6447 -2.6791  0.7803
   9423SM  H12B12640   1.966   0.281   8.611 -0.5828  0.1410 -0.8075
   9423SM   C1112641   1.802   0.396   8.686  0.2640 -0.2663 -0.4174
   9423SM  H11A12642   1.769   0.502   8.692  1.6909  0.2120 -0.6156
   9423SM  H11B12643   1.832   0.371   8.790  0.9286  1.1776 -0.2250
   9423SM     P12644   1.682   0.156   8.685 -0.0120 -0.1747 -0.1430
   9423SM   O1312645   1.580   0.100   8.595  0.3865 -0.9286  0.4818
   9423SM   O1412646   1.809   0.087   8.692  0.2553  0.1616 -0.1759
   9423SM   O1112647   1.622   0.159   8.833  0.3683  0.5834 -0.0438
   9423SM   O1212648   1.696   0.306   8.643  0.0679 -0.2723  0.4894
   9423SM   C1S12649   1.533   0.261   8.875 -0.0564  0.1180  0.2345
   9423SM   H1S12650   1.439   0.258   8.815  0.8543  0.5726 -1.2603
   9423SM   H1T12651   1.583   0.359   8.862 -0.6429  0.7314  2.1685
   9423SM    NF12652   1.407   0.341   9.074 -0.4512  0.3865 -0.6327
   9423SM   HNF12653   1.437   0.424   9.121  2.8849 -0.9802 -0.0589
   9423SM   C2S12654   1.506   0.245   9.031 -0.2277  0.6867  0.2930
   9423SM   H2S12655   1.467   0.143   9.050  1.6368 -0.6071 -2.2670
   9423SM   C3S12656   1.637   0.260   9.109 -0.5817  0.2400  0.3636
   9423SM   H3S12657   1.675   0.362   9.086 -1.7984  0.4603 -0.8129
   9423SM    O312658   1.748   0.179   9.064 -0.1078  0.1747 -0.2254
   9423SM   HO312659   1.713   0.141   8.983  1.7543 -0.3216 -0.8693
   9423SM   C4S12660   1.624   0.256   9.257 -0.1004  0.2634  0.7662
   9423SM   H4S12661   1.590   0.155   9.285 -0.7462  0.5148  0.9189
   9423SM   C5S12662   1.655   0.346   9.345  0.5941 -0.1213  0.1067
   9423SM   H5S12663   1.706   0.436   9.308  1.3550 -0.8948 -0.7719
   9423SM   C6S12664   1.637   0.334   9.492  0.4025  0.2030 -0.4295
   9423SM   H6S12665   1.567   0.414   9.525  1.7320  1.2749 -0.0902
   9423SM   H6T12666   1.729   0.356   9.550  0.7113 -1.5070 -0.2377
   9423SM   C7S12667   1.590   0.199   9.545 -0.0256  0.1721 -0.4992
   9423SM   H7S12668   1.660   0.121   9.508 -0.6079 -1.5806  1.8231
   9423SM   H7T12669   1.486   0.170   9.522 -0.3128  1.6761 -1.2182
   9423SM   C8S12670   1.604   0.183   9.703 -0.0685  0.4437 -0.2707
   9423SM   H8S12671   1.517   0.234   9.748 -2.8308 -3.3789 -0.7832
   9423SM   H8T12672   1.695   0.235   9.740  1.1869 -1.2020 -0.9547
   9423SM   C9S12673   1.596   0.035   9.742 -0.9685  1.3531 -0.3799
   9423SM   H9S12674   1.676  -0.028   9.697 -1.1680  1.3966 -0.8022
   9423SM   H9T12675   1.499  -0.010   9.712 -0.1224  0.5092 -2.0147
   9423SM  C10S12676   1.612   0.014   9.897 -0.5309 -0.0679 -0.0113
   9423SM  H10S12677   1.574  -0.088   9.917 -0.6336 -0.2382 -1.0296
   9423SM  H10T12678   1.536   0.085   9.936 -0.8399 -0.2291 -0.3161
   9423SM  C11S12679   1.757   0.040   9.950  0.2193 -0.8643  0.2432
   9423SM  H11S12680   1.797   0.144   9.943  1.1665 -1.1966  0.4707
   9423SM  H11T12681   1.834  -0.029   9.908  0.4642 -0.0169 -0.7252
   9423SM  C12S12682   1.758   0.020  10.102  0.0664  0.0360  0.1994
   9423SM  H12S12683   1.745  -0.086  10.133 -3.0300  0.4336  0.5278
   9423SM  H12T12684   1.676   0.085  10.139  0.9145  1.0421  0.3567
   9423SM  C13S12685   1.886   0.072  10.171 -0.4140 -0.3179 -0.4010
   9423SM  H13S12686   1.902   0.179  10.148 -1.2283  0.4038  2.0266
   9423SM  H13T12687   1.966   0.005  10.134 -1.2844 -0.9941 -1.1096
   9423SM  C14S12688   1.877   0.060  10.327  0.0299 -0.4131  0.0979
   9423SM  H14S12689   1.864  -0.045  10.363 -0.7110 -0.1740  0.5634
   9423SM  H14T12690   1.787   0.118  10.357 -1.2670 -1.6212 -1.2636
   9423SM  C15S12691   1.996   0.123  10.394 -0.2242  0.4584 -0.2869
   9423SM  H15S12692   2.009   0.231  10.370  0.5947  0.4190 -0.0435
   9423SM  H15T12693   2.095   0.089  10.356 -0.1073 -1.3603  1.4665
   9423SM  C16S12694   1.990   0.106  10.547  0.4134 -0.0056 -0.0034
   9423SM  H16S12695   1.965   0.004  10.581 -1.2347  0.6785  0.9966
   9423SM  H16T12696   1.906   0.170  10.583 -0.3923 -0.5165 -0.9008
   9423SM  C17S12697   2.114   0.148  10.623  0.3439  0.0883  0.4058
   9423SM  H17S12698   2.150   0.240  10.571 -0.7258  0.7632  0.8286
   9423SM  H17T12699   2.201   0.082  10.602  0.4659  0.0398  1.0564
   9423SM  C18S12700   2.101   0.161  10.772  0.4138 -0.3170  0.0138
   9423SM  H18S12701   2.163   0.232  10.830 -1.1828  1.5619 -0.4951
   9423SM  H18T12702   2.099   0.056  10.809  0.4778 -0.2654  0.1628
   9423SM  H18U12703   1.999   0.204  10.779  0.3897 -0.2714 -0.5197
   9423SM   C1F12704   1.278   0.333   9.030 -0.1406  1.0693 -0.2000
   9423SM    OF12705   1.236   0.231   8.971 -1.0335  0.1077 -0.7381
   9423SM   C2F12706   1.189   0.447   9.059  0.2325 -0.1941 -0.2510
   9423SM   H2F12707   1.147   0.474   8.960 -2.5907  0.7151  1.0742
   9423SM   H2G12708   1.246   0.531   9.103 -0.5198  0.9891 -1.4505
   9423SM   C3F12709   1.070   0.419   9.152 -0.0738  0.4224  0.0093
   9423SM   H3F12710   1.011   0.345   9.095  0.5254 -0.0357 -0.0195
   9423SM   H3G12711   1.013   0.513   9.172 -3.3737 -1.7503  1.6797
   9423SM   C4F12712   1.117   0.356   9.280  0.6281 -0.3932 -0.2722
   9423SM   H4F12713   1.195   0.421   9.325 -0.6867  0.7562  0.4393
   9423SM   H4G12714   1.165   0.256   9.272  0.1505 -0.5915 -0.6851
   9423SM   C5F12715   1.006   0.344   9.386 -0.9060  0.8784  0.2935
   9423SM   H5F12716   0.946   0.255   9.356  0.8021 -0.2464  0.0850
   9423SM   H5G12717   0.961   0.445   9.391  0.2332  1.3814  0.7624
   9423SM   C6F12718   1.073   0.322   9.530  0.3923 -0.1628  0.6789
   9423SM   H6F12719   1.054   0.412   9.592 -0.1238  0.4231 -0.3250
   9423SM   H6G12720   1.180   0.307   9.506  0.4755 -0.0079  0.9434
   9423SM   C7F12721   1.009   0.203   9.598 -0.0977  0.6595  0.9759
   9423SM   H7F12722   1.015   0.112   9.536 -0.7490  1.0963  0.2576
   9423SM   H7G12723   0.903   0.230   9.618 -1.0519 -1.6593 -0.5489
   9423SM   C8F12724   1.070   0.143   9.728 -1.3466  0.3848 -0.3044
   9423SM   H8F12725   1.168   0.093   9.709 -0.4438  1.6232  0.8998
   9423SM   H8G12726   1.002   0.063   9.765  0.8140 -0.2762  2.5829
   9423SM   C9F12727   1.084   0.254   9.834  0.2670  0.4572 -0.5287
   9423SM   H9F12728   0.984   0.294   9.861 -0.5400 -0.8690 -1.4520
   9423SM   H9G12729   1.151   0.339   9.812  0.9472  0.8220  2.4897
   9423SM  C10F12730   1.159   0.205   9.965 -0.0429  0.4182  0.4419
   9423SM  H10F12731   1.179   0.304  10.010  2.4071  1.5149 -2.6033
   9423SM  H10G12732   1.261   0.165   9.943  0.0715  0.5085  0.8103
   9423SM  C11F12733   1.090   0.117  10.058  0.0811  0.0289 -0.7632
   9423SM  H11F12734   1.094   0.010  10.028 -0.7478 -0.1984 -0.0971
   9423SM  H11G12735   0.990   0.165  10.060  0.9497  1.9217 -0.0644
   9423SM  C12F12736   1.143   0.115  10.206  0.3946  0.0061 -0.1564
   9423SM  H12F12737   1.070   0.056  10.266  2.1319  1.1368  3.3260
   9423SM  H12G12738   1.147   0.220  10.243  0.2351  0.1740 -0.5935
   9423SM  C13F12739   1.288   0.057  10.207  0.1016  0.0833 -0.6578
   9423SM  H13F12740   1.362   0.121  10.155 -1.2936  0.7507 -1.9082
   9423SM  H13G12741   1.282  -0.043  10.158 -3.1454  0.0950 -0.5311
   9423SM  C14F12742   1.331   0.036  10.353  0.4729 -0.9415 -0.3936
   9423SM  H14F12743   1.261  -0.016  10.421 -0.0852  1.1751  0.7498
   9423SM  H14G12744   1.349   0.135  10.400  1.5248 -0.9608 -0.7341
   9423SM  C15F12745   1.447  -0.061  10.367  0.1185  0.4552  0.0385
   9423SM  H15F12746   1.501  -0.071  10.271  0.0136 -1.0759  0.1070
   9423SM  H15G12747   1.417  -0.164  10.397 -0.4900  0.3831 -0.7796
   9423SM  C16F12748   1.550  -0.014  10.471 -1.3726  0.2137 -0.1294
   9423SM  H16F12749   1.574   0.093  10.455 -0.5735 -0.2028 -2.0074
   9423SM  H16G12750   1.643  -0.074  10.466  0.2209  2.5056  0.7246
   9423SM  C17F12751   1.484  -0.033  10.614 -0.1519 -0.0754 -0.2458
   9423SM  H17F12752   1.443  -0.135  10.630  2.0801 -0.8140  1.1835
   9423SM  H17G12753   1.397   0.033  10.634  1.8993  1.9557  3.0099
   9423SM  C18F12754   1.578  -0.021  10.735 -0.2412  0.2077 -0.6499
   9423SM  H18F12755   1.638   0.072  10.739  0.5560 -0.3037  2.9456
   9423SM  H18G12756   1.656  -0.099  10.716  0.7566  0.9266  0.3701
   9423SM  C19F12757   1.510  -0.039  10.870  0.1790 -0.8108 -0.1043
   9423SM  H19F12758   1.431  -0.116  10.858 -1.1823 -0.0438  3.0300
   9423SM  H19G12759   1.454   0.050  10.904  1.6663  0.2545 -0.3561
   9423SM  C20F12760   1.613  -0.065  10.975 -0.8754 -0.0016  0.2844
   9423SM  H20F12761   1.698   0.007  10.967  0.6285 -1.4746  1.9574
   9423SM  H20G12762   1.665  -0.162  10.961  0.1995  0.5392  0.4079
   9423SM  C21F12763   1.565  -0.062  11.125  0.0708  0.1941 -0.3573
   9423SM  H21F12764   1.497  -0.149  11.138  1.2816 -0.5783  1.2101
   9423SM  H21G12765   1.505   0.030  11.143  0.2158  0.3808 -0.8162
   9423SM  C22F12766   1.680  -0.059  11.223  1.2971 -0.1733  0.5149
   9423SM  H22F12767   1.748   0.023  11.192  1.9708 -1.6082 -2.0185
   9423SM  H22G12768   1.746  -0.148  11.219  0.4032 -0.8116 -0.6077
   9423SM  C23F12769   1.640  -0.018  11.367 -0.9842  0.2579  0.3257
   9423SM  H23F12770   1.583  -0.094  11.425 -0.4926 -0.5160 -0.1997
   9423SM  H23G12771   1.577   0.074  11.361 -2.6430 -0.6723  2.3474
   9423SM  H23H12772   1.728   0.008  11.429 -1.3656 -0.8659  1.3815
   9523SM     N12773   3.790   3.680   9.148  0.4081  0.4830 -0.4236
   9523SM   C1512774   3.718   3.779   9.238  0.1729 -0.2387  0.1674
   9523SM  H15A12775   3.623   3.807   9.196  1.3337  2.9506 -0.6589
   9523SM  H15B12776   3.776   3.870   9.240 -0.5221  0.2246 -0.1881
   9523SM  H15C12777   3.711   3.733   9.335  4.1283 -1.4337  0.0516
   9523SM   C1412778   3.798   3.728   9.012  0.9087 -0.4470  0.6060
   9523SM  H14A12779   3.700   3.735   8.968  0.3819  2.5757  2.0279
   9523SM  H14B12780   3.857   3.668   8.944  0.0413  0.8235 -1.3565
   9523SM  H14C12781   3.840   3.827   9.012 -0.3054  0.1020 -0.7245
   9523SM   C1312782   3.925   3.654   9.205 -0.1470 -0.0469  0.0855
   9523SM  H13A12783   3.973   3.573   9.152 -1.4260 -0.6686 -0.1452
   9523SM  H13B12784   3.911   3.608   9.302 -0.2462  1.8204  1.0030
   9523SM  H13C12785   3.997   3.736   9.204  1.0434 -0.9473  2.4816
   9523SM   C1212786   3.705   3.556   9.157  0.1726  0.5169 -0.4117
   9523SM  H12A12787   3.618   3.569   9.095  0.8124  1.1871 -1.1867
   9523SM  H12B12788   3.659   3.551   9.255 -1.8459  0.2499 -1.3427
   9523SM   C1112789   3.771   3.417   9.117 -0.3575 -0.2379  0.7084
   9523SM  H11A12790   3.807   3.424   9.012  1.2971  0.0024  1.2606
   9523SM  H11B12791   3.690   3.341   9.108 -0.3173 -0.2876  0.7683
   9523SM     P12792   3.876   3.247   9.274 -0.1311  0.0060 -0.2526
   9523SM   O1312793   3.763   3.255   9.367  0.2665 -0.1087 -0.1384
   9523SM   O1412794   3.869   3.135   9.179 -0.1415  0.1280  0.7005
   9523SM   O1112795   4.019   3.234   9.336  0.3560 -0.3070 -0.2677
   9523SM   O1212796   3.883   3.381   9.198  0.1121 -0.2385  0.4573
   9523SM   C1S12797   4.068   3.300   9.445 -0.6308 -0.2029 -0.5707
   9523SM   H1S12798   4.013   3.395   9.465  1.7369  1.1150  0.1261
   9523SM   H1T12799   4.167   3.346   9.426 -0.8877  1.2998  1.3617
   9523SM    NF12800   4.095   3.295   9.689  0.0531 -0.1193 -0.0794
   9523SM   HNF12801   4.188   3.316   9.717  0.1458  0.6183 -0.9080
   9523SM   C2S12802   4.066   3.217   9.571 -0.5837 -0.6666 -0.3991
   9523SM   H2S12803   3.963   3.176   9.581 -0.8682 -0.0825 -0.8820
   9523SM   C3S12804   4.153   3.082   9.555 -0.4298  0.3574 -0.5384
   9523SM   H3S12805   4.252   3.122   9.524 -0.8930 -0.3880 -3.2429
   9523SM    O312806   4.123   3.013   9.436 -0.3758 -0.5488  0.0172
   9523SM   HO312807   4.061   3.075   9.397 -0.7033 -0.1506  1.1507
   9523SM   C4S12808   4.153   2.995   9.680  0.2774 -0.4680  0.0733
   9523SM   H4S12809   4.226   3.031   9.754  2.2011 -0.0653 -1.9305
   9523SM   C5S12810   4.070   2.890   9.710  0.1157 -0.1890 -0.0268
   9523SM   H5S12811   3.998   2.852   9.636 -0.3420 -2.0093  1.2817
   9523SM   C6S12812   4.066   2.813   9.842 -0.1138 -0.1796 -0.0163
   9523SM   H6S12813   4.119   2.716   9.846 -0.1275 -0.2043 -0.3936
   9523SM   H6T12814   3.959   2.786   9.860 -0.8098  3.2436  1.9514
   9523SM   C7S12815   4.113   2.915   9.949 -0.2941 -0.8612  0.1349
   9523SM   H7S12816   4.059   3.012   9.942  0.8331 -0.2407 -0.3566
   9523SM   H7T12817   4.221   2.930   9.925 -0.7725  0.1127 -1.6338
   9523SM   C8S12818   4.099   2.868  10.088  0.7191  0.4265  0.5762
   9523SM   H8S12819   4.161   2.777  10.102 -0.0791 -0.4683 -1.3721
   9523SM   H8T12820   3.994   2.847  10.114  0.9857 -0.3646  1.0362
   9523SM   C9S12821   4.143   2.973  10.194  0.2095 -0.4224  0.1510
   9523SM   H9S12822   4.087   3.068  10.178 -3.3953 -1.6938  3.5162
   9523SM   H9T12823   4.252   2.987  10.178  0.3017 -2.0478 -0.7961
   9523SM  C10S12824   4.120   2.927  10.338 -0.0998 -0.1169  0.5869
   9523SM  H10S12825   4.179   2.833  10.347 -2.0036 -1.3264  1.1524
   9523SM  H10T12826   4.012   2.901  10.336 -0.8995  2.8308  0.7661
   9523SM  C11S12827   4.156   3.033  10.432  0.0038 -0.2700 -1.0435
   9523SM  H11S12828   4.091   3.122  10.416 -0.3829  0.1813  2.1868
   9523SM  H11T12829   4.265   3.051  10.426 -0.1484  0.9867 -0.4420
   9523SM  C12S12830   4.127   3.003  10.580  0.2067  0.1120  0.1009
   9523SM  H12S12831   4.017   3.006  10.595  0.1733  1.8212 -0.2370
   9523SM  H12T12832   4.174   3.085  10.639  0.4953 -0.2847  0.4245
   9523SM  C13S12833   4.176   2.863  10.616 -0.2994 -0.2796 -0.4380
   9523SM  H13S12834   4.283   2.857  10.586  0.0495  0.8017  0.4931
   9523SM  H13T12835   4.129   2.784  10.555 -1.5226  0.5729 -0.6491
   9523SM  C14S12836   4.163   2.824  10.762  0.1058 -0.0192 -0.2865
   9523SM  H14S12837   4.237   2.879  10.824 -1.2460  0.6631  0.7689
   9523SM  H14T12838   4.178   2.717  10.784 -0.4703 -0.6512 -2.6387
   9523SM  C15S12839   4.024   2.848  10.819 -0.0001 -0.2374  0.4751
   9523SM  H15S12840   3.958   2.796  10.746 -0.1579  0.9857 -0.2902
   9523SM  H15T12841   4.011   2.957  10.803  2.3442 -0.2415 -2.3859
   9523SM  C16S12842   3.996   2.807  10.957  0.3723  0.8835 -0.4083
   9523SM  H16S12843   4.042   2.709  10.980 -0.1636  0.6176 -0.4387
   9523SM  H16T12844   3.889   2.787  10.982  0.7048 -0.0797  0.3074
   9523SM  C17S12845   4.040   2.918  11.057 -0.6069 -0.5926 -0.2485
   9523SM  H17S12846   3.973   2.908  11.145 -0.6118 -0.5911 -0.2531
   9523SM  H17T12847   4.034   3.020  11.013  0.5168 -1.8329 -3.6287
   9523SM  C18S12848   4.188   2.919  11.117 -0.1137  0.1937 -0.0733
   9523SM  H18S12849   4.201   2.828  11.179 -0.3453  0.6491  0.6567
   9523SM  H18T12850   4.211   3.011  11.174  0.0335  0.2809 -0.2742
   9523SM  H18U12851   4.266   2.911  11.038  1.2072  0.5189  1.1468
   9523SM   C1F12852   3.996   3.377   9.737 -0.2315  0.1128  0.4774
   9523SM    OF12853   3.877   3.372   9.704  0.0699 -0.6930  0.3135
   9523SM   C2F12854   4.049   3.478   9.826  0.0584  0.0741 -0.3339
   9523SM   H2F12855   4.065   3.574   9.772  2.0374 -0.7106 -1.2376
   9523SM   H2G12856   4.152   3.450   9.853  0.5562  1.2792 -0.8802
   9523SM   C3F12857   3.968   3.501   9.955  0.3836 -0.3821 -0.8210
   9523SM   H3F12858   3.948   3.405  10.008  1.0669  0.1088  0.3548
   9523SM   H3G12859   3.872   3.548   9.923  1.5801  0.7767 -2.9572
   9523SM   C4F12860   4.036   3.590  10.057 -0.9564 -0.1537  0.6957
   9523SM   H4F12861   3.968   3.611  10.142 -0.7640 -0.6886  0.9912
   9523SM   H4G12862   4.075   3.682  10.009 -1.2201  0.4780  1.6531
   9523SM   C5F12863   4.165   3.523  10.118 -0.5132  0.4446 -0.3591
   9523SM   H5F12864   4.256   3.539  10.057  1.6110  0.0661  2.5303
   9523SM   H5G12865   4.155   3.414  10.133 -1.1747  0.7014  1.2198
   9523SM   C6F12866   4.197   3.563  10.262  0.0755 -0.3099  0.0752
   9523SM   H6F12867   4.102   3.579  10.316  0.6245  2.3285  0.3862
   9523SM   H6G12868   4.255   3.658  10.256 -0.4951  0.0164 -0.4157
   9523SM   C7F12869   4.279   3.457  10.342 -0.6710  0.1310 -0.5951
   9523SM   H7F12870   4.386   3.450  10.313 -0.5833 -4.3955  0.0525
   9523SM   H7G12871   4.244   3.352  10.332  2.3547 -1.1747  1.0659
   9523SM   C8F12872   4.268   3.498  10.492 -0.3006 -0.2425  0.0676
   9523SM   H8F12873   4.170   3.548  10.506 -0.3079  0.2196 -1.4233
   9523SM   H8G12874   4.342   3.578  10.514  0.6312 -0.9887 -0.2656
   9523SM   C9F12875   4.295   3.384  10.588  0.4598  0.0139  0.1611
   9523SM   H9F12876   4.405   3.375  10.571  0.6166 -0.5819  1.4134
   9523SM   H9G12877   4.251   3.290  10.549  2.4673 -2.0221  2.4588
   9523SM  C10F12878   4.253   3.408  10.731 -0.2181 -0.3176 -0.8641
   9523SM  H10F12879   4.147   3.436  10.750  0.4879  0.1943  3.1379
   9523SM  H10G12880   4.312   3.492  10.774 -1.1881 -0.3381  0.5381
   9523SM  C11F12881   4.275   3.287  10.823  0.4359 -0.2394  0.3580
   9523SM  H11F12882   4.362   3.231  10.781 -0.4671 -1.1277 -0.3801
   9523SM  H11G12883   4.185   3.226  10.803  0.4876 -0.5499  1.0547
   9523SM  C12F12884   4.291   3.328  10.964 -0.6364  0.3348  0.2751
   9523SM  H12F12885   4.392   3.369  10.984 -0.9459  0.6807  1.1844
   9523SM  H12G12886   4.281   3.237  11.028  0.1745 -0.3667 -0.5619
   9523SM  C13F12887   4.189   3.427  11.015  0.3582 -0.3988 -0.0851
   9523SM  H13F12888   4.088   3.383  10.997  0.6245 -0.3291 -1.9423
   9523SM  H13G12889   4.199   3.510  10.942 -2.0623 -1.1709 -1.4165
   9523SM  C14F12890   4.211   3.494  11.151 -0.3215 -0.0969 -0.6177
   9523SM  H14F12891   4.304   3.555  11.160 -1.2614  1.4860 -1.2672
   9523SM  H14G12892   4.208   3.409  11.223  0.2511  1.2174  1.0352
   9523SM  C15F12893   4.095   3.581  11.187  0.4038  0.2808 -0.3461
   9523SM  H15F12894   4.007   3.520  11.216  0.4660 -0.3374 -1.3919
   9523SM  H15G12895   4.069   3.655  11.108  1.8614  0.9941 -0.2034
   9523SM  C16F12896   4.126   3.676  11.307 -0.0642  0.3592 -0.5529
   9523SM  H16F12897   4.038   3.738  11.334  0.9129  1.1114  1.0618
   9523SM  H16G12898   4.208   3.746  11.283 -0.1588  1.1198  1.1999
   9523SM  C17F12899   4.153   3.583  11.438 -0.2567 -0.6439  0.0629
   9523SM  H17F12900   4.253   3.536  11.428 -0.0199  0.1546 -1.8493
   9523SM  H17G12901   4.070   3.509  11.438  1.0421 -2.1795  1.4476
   9523SM  C18F12902   4.155   3.664  11.572  0.0764  0.1946 -0.0538
   9523SM  H18F12903   4.148   3.602  11.664  1.1659 -0.4504 -0.3783
   9523SM  H18G12904   4.070   3.735  11.571  0.2986  0.5914 -3.4351
   9523SM  C19F12905   4.293   3.741  11.589  0.5304 -0.8803 -0.4857
   9523SM  H19F12906   4.302   3.805  11.499 -2.0348 -0.2680 -0.3701
   9523SM  H19G12907   4.375   3.666  11.600 -0.7446 -2.0596  1.5401
   9523SM  C20F12908   4.294   3.846  11.706 -0.8472  0.0017 -0.4726
   9523SM  H20F12909   4.397   3.887  11.700 -1.0465  1.0881  2.0557
   9523SM  H20G12910   4.288   3.792  11.803  0.3975  0.2525 -0.2363
   9523SM  C21F12911   4.190   3.956  11.700  0.1369  0.3630  0.7743
   9523SM  H21F12912   4.090   3.921  11.736  0.2798 -0.7749  0.1121
   9523SM  H21G12913   4.177   3.974  11.591 -0.3561  1.3357  0.9816
   9523SM  C22F12914   4.221   4.076  11.779 -0.3858 -0.5646 -0.3452
   9523SM  H22F12915   4.310   4.128  11.738  0.5975 -1.6032  0.3830
   9523SM  H22G12916   4.246   4.043  11.882 -1.7725  3.2053  1.3636
   9523SM  C23F12917   4.106   4.180  11.795  0.1936  0.3274  0.2181
   9523SM  H23F12918   4.014   4.144  11.845 -0.1609  1.2507  0.2394
   9523SM  H23G12919   4.104   4.246  11.705 -2.2516  2.0714  1.4426
   9523SM  H23H12920   4.151   4.253  11.865  0.0076  1.3159 -0.6563
   9623SM     N12921   6.517   0.881   7.799  0.2400  0.2055 -0.3810
   9623SM   C1512922   6.531   0.914   7.652  0.2883 -0.0181  0.0126
   9623SM  H15A12923   6.543   0.824   7.595  1.1925  1.0863 -1.6060
   9623SM  H15B12924   6.621   0.973   7.638 -0.5139  2.1950  3.1055
   9623SM  H15C12925   6.445   0.963   7.609 -1.0618 -1.2561  1.1962
   9623SM   C1412926   6.422   0.769   7.824 -0.6983 -0.4216  0.2401
   9623SM  H14A12927   6.327   0.780   7.773 -0.2494 -0.5867 -0.6582
   9623SM  H14B12928   6.403   0.756   7.929  1.1696  0.1274  0.6780
   9623SM  H14C12929   6.454   0.674   7.784  1.0962  0.8986 -1.6801
   9623SM   C1312930   6.655   0.840   7.846 -0.4765  0.3269  0.4227
   9623SM  H13A12931   6.710   0.932   7.852 -0.1489  0.0574  1.9697
   9623SM  H13B12932   6.709   0.777   7.777  0.2816  3.3577 -1.9270
   9623SM  H13C12933   6.659   0.796   7.944  0.2700  0.6283  0.5319
   9623SM   C1212934   6.465   1.011   7.867 -0.1154 -0.0363  0.7357
   9623SM  H12A12935   6.365   1.030   7.831 -1.6312 -0.5063  4.2891
   9623SM  H12B12936   6.532   1.090   7.837  2.2324 -2.0157  0.4783
   9623SM   C1112937   6.448   1.012   8.014  0.1457  0.4396 -0.3071
   9623SM  H11A12938   6.388   0.922   8.038  0.3496 -0.0500 -1.5510
   9623SM  H11B12939   6.397   1.106   8.045  0.1531  0.5915 -0.7475
   9623SM     P12940   6.616   0.943   8.207 -0.4633 -0.2771 -0.0452
   9623SM   O1312941   6.529   0.823   8.233 -0.2469  0.0400  0.5620
   9623SM   O1412942   6.761   0.917   8.199 -0.0845 -0.0722  0.2137
   9623SM   O1112943   6.580   1.045   8.318  0.3369 -0.4206 -0.2375
   9623SM   O1212944   6.582   1.014   8.073  0.2574 -0.3169 -0.0706
   9623SM   C1S12945   6.451   1.077   8.367  1.0172  0.2385  0.2894
   9623SM   H1S12946   6.375   1.005   8.332  0.2234  1.7942 -1.3388
   9623SM   H1T12947   6.414   1.169   8.317 -3.3422 -2.2927 -1.7459
   9623SM    NF12948   6.311   1.143   8.558  0.0388  0.2452  0.1783
   9623SM   HNF12949   6.295   1.238   8.583  1.3473  0.1335  1.5495
   9623SM   C2S12950   6.446   1.112   8.520 -0.5462  0.3572  0.3282
   9623SM   H2S12951   6.483   1.020   8.570 -1.3727  0.3807  1.0125
   9623SM   C3S12952   6.545   1.224   8.554  0.1619 -0.1631 -0.3989
   9623SM   H3S12953   6.500   1.316   8.512  1.0046  0.2381 -0.4509
   9623SM    O312954   6.671   1.222   8.489  0.2030 -0.6697 -0.1667
   9623SM   HO312955   6.664   1.144   8.433  0.5472 -0.0512 -1.0970
   9623SM   C4S12956   6.563   1.233   8.702  0.2554  0.3786  0.3045
   9623SM   H4S12957   6.506   1.317   8.744 -0.4986 -0.4009  0.8727
   9623SM   C5S12958   6.650   1.158   8.776  0.0882 -0.0644  0.3334
   9623SM   H5S12959   6.710   1.081   8.725 -2.2648 -1.4921 -0.4772
   9623SM   C6S12960   6.675   1.177   8.919  0.0606  0.1412  0.0551
   9623SM   H6S12961   6.590   1.209   8.983  0.2239  0.6158  0.0393
   9623SM   H6T12962   6.752   1.257   8.921  0.2986 -0.0513 -0.9190
   9623SM   C7S12963   6.722   1.045   8.984  0.4553  0.4516  0.1327
   9623SM   H7S12964   6.824   1.034   8.942  1.4089 -0.0892  2.4307
   9623SM   H7T12965   6.653   0.968   8.942  1.4489 -0.0668 -0.5742
   9623SM   C8S12966   6.716   1.042   9.135  0.2866  0.0561  0.3985
   9623SM   H8S12967   6.613   1.067   9.168  1.0079  4.0761  0.1987
   9623SM   H8T12968   6.784   1.118   9.180 -0.3964  0.8379  0.1300
   9623SM   C9S12969   6.757   0.904   9.194  0.3525 -0.1559  0.4986
   9623SM   H9S12970   6.855   0.879   9.149  0.6366 -1.9101  1.9611
   9623SM   H9T12971   6.684   0.823   9.169 -0.0996 -0.1044  1.5992
   9623SM  C10S12972   6.785   0.924   9.338  0.0802 -0.4786  0.0699
   9623SM  H10S12973   6.886   0.969   9.346  0.1092 -0.0650 -2.0475
   9623SM  H10T12974   6.790   0.825   9.388 -0.2258  0.1064  1.2969
   9623SM  C11S12975   6.690   1.018   9.418 -0.4824  0.0647  0.1917
   9623SM  H11S12976   6.591   1.001   9.370  0.5815 -0.3324 -2.0030
   9623SM  H11T12977   6.725   1.122   9.400 -1.8277  0.6344  0.7565
   9623SM  C12S12978   6.692   1.002   9.568  0.1245  0.7176 -1.1861
   9623SM  H12S12979   6.671   0.895   9.587  1.0167  0.7646  0.1534
   9623SM  H12T12980   6.612   1.066   9.612  0.3480  0.0908  0.1667
   9623SM  C13S12981   6.822   1.029   9.643  0.3656  0.0538 -0.0539
   9623SM  H13S12982   6.880   1.102   9.583  1.9153  0.9989  2.4582
   9623SM  H13T12983   6.872   0.930   9.647  1.3505  0.4393 -1.8798
   9623SM  C14S12984   6.814   1.096   9.780  0.6596 -0.9547  0.2888
   9623SM  H14S12985   6.769   1.034   9.859  0.5397 -0.1052  0.9066
   9623SM  H14T12986   6.739   1.176   9.763  1.2170 -0.2523  0.9812
   9623SM  C15S12987   6.942   1.161   9.823  0.2090 -0.4737  0.0248
   9623SM  H15S12988   7.006   1.193   9.738 -1.1878 -0.0770 -0.9184
   9623SM  H15T12989   7.007   1.104   9.892  1.7063 -0.2494 -1.1525
   9623SM  C16S12990   6.907   1.289   9.909  0.5186 -0.0238  1.0751
   9623SM  H16S12991   6.851   1.246   9.995 -1.6497  0.6566  0.0827
   9623SM  H16T12992   6.839   1.351   9.846 -1.1181 -2.5372  0.2463
   9623SM  C17S12993   7.027   1.361   9.966 -0.2326 -0.3640 -0.2879
   9623SM  H17S12994   7.091   1.392   9.881 -0.3840  1.9715  0.3952
   9623SM  H17T12995   7.099   1.291  10.014  0.3597  0.9259  0.7759
   9623SM  C18S12996   6.989   1.476  10.060  0.1272 -0.9229 -0.0117
   9623SM  H18S12997   6.930   1.433  10.144  1.7836 -1.7988  0.7451
   9623SM  H18T12998   6.926   1.548  10.003  2.1045 -0.0022 -1.1037
   9623SM  H18U12999   7.084   1.520  10.096  0.4773 -0.9398 -0.9084
   9623SM   C1F13000   6.205   1.050   8.548  0.4329 -0.6363  0.3780
   9623SM    OF13001   6.211   0.930   8.538  0.2848 -0.3368 -0.3518
   9623SM   C2F13002   6.070   1.114   8.557 -0.0447  0.4428 -0.6739
   9623SM   H2F13003   6.007   1.058   8.485  2.5318 -1.6177 -1.4796
   9623SM   H2G13004   6.068   1.221   8.527 -0.6397  0.6695  0.1280
   9623SM   C3F13005   6.008   1.105   8.700  0.2526 -0.2417  0.2805
   9623SM   H3F13006   6.028   1.004   8.742 -0.5820  0.0126  1.3391
   9623SM   H3G13007   5.897   1.113   8.695  0.3655  1.5239 -0.1595
   9623SM   C4F13008   6.060   1.204   8.800 -0.1423  0.1712 -0.1630
   9623SM   H4F13009   6.024   1.301   8.761 -1.4879 -0.7012 -1.2172
   9623SM   H4G13010   6.171   1.206   8.805 -0.1209 -1.1967  0.5483
   9623SM   C5F13011   6.016   1.197   8.947 -0.3820  0.8533  0.0713
   9623SM   H5F13012   6.063   1.108   8.993  1.6826  1.3446 -0.9747
   9623SM   H5G13013   5.905   1.203   8.946 -0.3239  2.3965 -0.6048
   9623SM   C6F13014   6.065   1.309   9.037  0.0805  0.5454 -0.1185
   9623SM   H6F13015   6.036   1.402   8.984 -0.6045  0.3950 -0.0130
   9623SM   H6G13016   6.175   1.304   9.053 -0.2644 -1.8936  2.0203
   9623SM   C7F13017   5.994   1.301   9.178  0.2948 -0.0991  0.4688
   9623SM   H7F13018   6.040   1.222   9.240 -0.1500  0.2576  1.2710
   9623SM   H7G13019   5.885   1.288   9.160 -0.0471 -1.5931  3.1093
   9623SM   C8F13020   6.003   1.438   9.251  0.1614  0.2561  0.7137
   9623SM   H8F13021   5.963   1.515   9.181  0.2661 -0.1213  0.2334
   9623SM   H8G13022   6.109   1.463   9.276  0.8791  0.1676 -1.8623
   9623SM   C9F13023   5.916   1.433   9.380  0.1048 -0.0933 -0.4729
   9623SM   H9F13024   5.954   1.348   9.440 -0.1041  1.3296  1.7975
   9623SM   H9G13025   5.808   1.425   9.356  0.3058 -1.3908 -1.0337
   9623SM  C10F13026   5.944   1.566   9.464  0.2510 -0.1073  0.5210
   9623SM  H10F13027   5.903   1.650   9.404  2.7051 -0.9535 -2.5791
   9623SM  H10G13028   6.054   1.570   9.471  0.4073 -0.9966 -0.9905
   9623SM  C11F13029   5.887   1.559   9.601 -0.1363  0.5559 -0.0873
   9623SM  H11F13030   5.916   1.464   9.651  0.9648 -1.0585 -3.5244
   9623SM  H11G13031   5.776   1.557   9.598 -0.2598  1.2516  2.1897
   9623SM  C12F13032   5.937   1.677   9.682 -0.6936 -0.3065 -0.3980
   9623SM  H12F13033   5.901   1.773   9.639 -0.4917  0.1885  0.5219
   9623SM  H12G13034   6.043   1.694   9.652 -1.2405  1.8463 -1.2984
   9623SM  C13F13035   5.911   1.690   9.833  0.0379  0.1183 -0.1264
   9623SM  H13F13036   5.803   1.675   9.854  0.2411  0.0882  0.9986
   9623SM  H13G13037   5.942   1.788   9.874 -0.8022  0.0103  0.8013
   9623SM  C14F13038   5.987   1.588   9.925  0.4382  0.2352 -0.2132
   9623SM  H14F13039   6.084   1.557   9.880  1.5170  2.2955  0.5646
   9623SM  H14G13040   5.915   1.504   9.934 -1.2959  1.6150 -0.6443
   9623SM  C15F13041   6.022   1.653  10.065  0.1976  0.4025 -0.3797
   9623SM  H15F13042   5.947   1.700  10.132  1.9109 -1.5305  3.2028
   9623SM  H15G13043   6.086   1.740  10.039 -1.0971  2.4737  2.7938
   9623SM  C16F13044   6.110   1.568  10.162 -0.3236 -0.0687 -0.1280
   9623SM  H16F13045   6.204   1.553  10.105  0.4802  3.1246  0.1406
   9623SM  H16G13046   6.055   1.475  10.187  2.6527 -1.8845  0.1444
   9623SM  C17F13047   6.162   1.642  10.288 -0.0518  1.0339  0.4319
   9623SM  H17F13048   6.078   1.702  10.330  0.3510  0.5698  1.9762
   9623SM  H17G13049   6.244   1.702  10.242  2.0331 -1.7121  0.2834
   9623SM  C18F13050   6.218   1.551  10.396  0.3216  0.3387  0.1439
   9623SM  H18F13051   6.285   1.469  10.361  1.0750  1.3355 -0.8036
   9623SM  H18G13052   6.126   1.503  10.435  1.2624 -2.5074 -0.8765
   9623SM  C19F13053   6.284   1.644  10.503 -0.2172 -0.2182  0.7626
   9623SM  H19F13054   6.214   1.726  10.528  0.8125  1.7149 -2.1817
   9623SM  H19G13055   6.372   1.688  10.451 -0.1671  0.3561  1.3257
   9623SM  C20F13056   6.338   1.579  10.624 -0.2990 -0.3593 -0.1909
   9623SM  H20F13057   6.417   1.506  10.593 -2.5978 -3.1900  0.2164
   9623SM  H20G13058   6.253   1.525  10.670  0.1361 -1.1725 -0.3180
   9623SM  C21F13059   6.416   1.679  10.707 -0.1721 -0.1529 -0.2436
   9623SM  H21F13060   6.348   1.758  10.745  1.2670  0.4546  1.1969
   9623SM  H21G13061   6.481   1.736  10.636 -0.8305  0.0836 -0.6712
   9623SM  C22F13062   6.491   1.613  10.826  0.6723  0.2348 -0.3094
   9623SM  H22F13063   6.564   1.539  10.787 -0.3133  0.5623 -2.9686
   9623SM  H22G13064   6.411   1.563  10.886  1.6121 -1.2937 -0.2825
   9623SM  C23F13065   6.565   1.718  10.900 -0.3576 -0.5052 -0.1219
   9623SM  H23F13066   6.515   1.816  10.884  1.8821  0.7828  0.4445
   9623SM  H23G13067   6.668   1.738  10.866 -0.5219 -1.1843 -1.0562
   9623SM  H23H13068   6.574   1.704  11.010  0.2396 -0.5479 -0.1714
   9723SM     N13069   6.368   6.699   8.392  0.0450  0.1048  0.7445
   9723SM   C1513070   6.471   6.646   8.490  0.2347  0.2793 -0.4094
   9723SM  H15A13071   6.430   6.627   8.588  0.0558 -2.1882 -0.9131
   9723SM  H15B13072   6.556   6.711   8.504  0.6071 -0.2735 -0.0848
   9723SM  H15C13073   6.509   6.555   8.446 -2.3905 -0.8538 -0.5095
   9723SM   C1413074   6.428   6.731   8.261  0.0240 -0.6907  0.2645
   9723SM  H14A13075   6.350   6.762   8.193 -0.5989 -1.2740  0.6971
   9723SM  H14B13076   6.487   6.651   8.218 -0.7509 -2.0590  1.6100
   9723SM  H14C13077   6.498   6.812   8.267  1.0802 -1.5623  0.0428
   9723SM   C1313078   6.265   6.605   8.381 -0.9760  0.7604 -0.3153
   9723SM  H13A13079   6.290   6.524   8.314  1.7709  3.3231 -2.7107
   9723SM  H13B13080   6.172   6.643   8.341 -0.5351  0.7230 -1.3977
   9723SM  H13C13081   6.240   6.561   8.477 -0.7273  0.2658 -0.4743
   9723SM   C1213082   6.295   6.824   8.444 -0.5373 -0.0364  0.5412
   9723SM  H12A13083   6.375   6.897   8.454  1.2332 -1.8063  0.0355
   9723SM  H12B13084   6.249   6.809   8.540  2.2524 -0.7764  1.8883
   9723SM   C1113085   6.191   6.884   8.344  0.1840 -0.4682 -0.2610
   9723SM  H11A13086   6.224   6.880   8.238  0.0447 -0.6978 -0.2984
   9723SM  H11B13087   6.186   6.992   8.365  0.7738 -0.4532 -0.1839
   9723SM     P13088   5.962   6.840   8.454  0.2153  0.2550 -0.3555
   9723SM   O1313089   5.863   6.931   8.395 -0.0001 -0.4860 -0.1617
   9723SM   O1413090   5.910   6.707   8.494  0.0217 -0.1181 -0.1672
   9723SM   O1113091   6.034   6.901   8.577 -0.0440 -0.1167  0.4820
   9723SM   O1213092   6.068   6.815   8.348 -0.2188 -0.2956  0.1068
   9723SM   C1S13093   6.034   7.036   8.623  0.7710  0.1738 -0.0025
   9723SM   H1S13094   5.930   7.072   8.609 -0.4594 -1.6700  3.0930
   9723SM   H1T13095   6.114   7.100   8.581  1.8127  0.3255  2.0598
   9723SM    NF13096   6.029   7.165   8.836 -0.0263 -0.8065 -0.6923
   9723SM   HNF13097   6.092   7.239   8.816 -1.3905  0.9024  0.8747
   9723SM   C2S13098   6.058   7.035   8.779 -0.5755 -1.0499 -0.0816
   9723SM   H2S13099   5.983   6.961   8.816 -1.2663 -0.4158 -0.2032
   9723SM   C3S13100   6.195   6.979   8.824  0.0980 -0.5539  0.4974
   9723SM   H3S13101   6.274   7.046   8.783  0.1353 -0.5526  0.5717
   9723SM    O313102   6.229   6.859   8.755  0.1681 -0.1428 -0.1980
   9723SM   HO313103   6.153   6.848   8.697  0.9164 -3.2711 -0.8151
   9723SM   C4S13104   6.223   6.963   8.973  0.0239  0.2188  0.3362
   9723SM   H4S13105   6.171   6.875   9.014  0.5395 -0.3424 -0.1999
   9723SM   C5S13106   6.291   7.042   9.058 -0.5459 -0.7604  0.1634
   9723SM   H5S13107   6.350   7.128   9.021 -0.0980 -1.2399 -0.2546
   9723SM   C6S13108   6.296   7.032   9.209 -0.2929 -0.0180  0.1589
   9723SM   H6S13109   6.222   7.100   9.254 -0.4029 -0.2303  0.3010
   9723SM   H6T13110   6.391   7.072   9.250  0.0348 -2.3106  1.8565
   9723SM   C7S13111   6.269   6.891   9.259  0.2332  0.6817 -0.1180
   9723SM   H7S13112   6.341   6.828   9.203  0.1855 -0.0558  0.6197
   9723SM   H7T13113   6.163   6.870   9.230  0.2650 -0.4966  0.5364
   9723SM   C8S13114   6.296   6.889   9.408  0.2054  0.3813  0.6018
   9723SM   H8S13115   6.389   6.945   9.428  1.6768 -2.1112  1.1522
   9723SM   H8T13116   6.312   6.785   9.445  0.0425 -0.1659 -0.7975
   9723SM   C9S13117   6.172   6.939   9.486 -0.9026  0.2102  0.1586
   9723SM   H9S13118   6.093   6.866   9.460 -2.5765  1.9588  0.1364
   9723SM   H9T13119   6.149   7.044   9.456 -0.0658  1.0394  2.2399
   9723SM  C10S13120   6.208   6.926   9.641 -0.4381 -0.4526  0.0258
   9723SM  H10S13121   6.305   6.971   9.671 -0.5383  1.4643 -2.2972
   9723SM  H10T13122   6.216   6.816   9.655 -0.5330 -0.8422 -2.5511
   9723SM  C11S13123   6.092   6.983   9.726 -0.0312 -0.3912  0.3777
   9723SM  H11S13124   5.992   6.947   9.694  0.5064 -0.0133 -1.8980
   9723SM  H11T13125   6.097   7.093   9.709  0.6826 -0.5885 -0.7664
   9723SM  C12S13126   6.112   6.947   9.873  1.0656  0.2798  0.7240
   9723SM  H12S13127   6.092   6.838   9.880 -1.6478  0.5312 -1.4058
   9723SM  H12T13128   6.025   6.989   9.928  0.5540 -0.4264  0.4783
   9723SM  C13S13129   6.243   6.985   9.938 -0.3191 -0.1022 -0.0607
   9723SM  H13S13130   6.270   7.088   9.909  0.3882  0.0039  0.9418
   9723SM  H13T13131   6.324   6.919   9.899 -0.9987 -1.3056  0.4915
   9723SM  C14S13132   6.237   6.964  10.096 -0.5480  0.0746 -0.0386
   9723SM  H14S13133   6.342   6.966  10.133 -0.7341  0.4969  0.4877
   9723SM  H14T13134   6.208   6.859  10.118 -0.0289 -0.3632 -1.3542
   9723SM  C15S13135   6.160   7.072  10.179 -0.0273  0.2005  0.5860
   9723SM  H15S13136   6.052   7.074  10.152 -0.0220  3.3549  0.4589
   9723SM  H15T13137   6.212   7.161  10.139  0.7949 -0.6481 -0.2889
   9723SM  C16S13138   6.176   7.069  10.332  0.5276  0.9229  0.2550
   9723SM  H16S13139   6.117   6.978  10.357 -0.1457  0.5198 -2.4555
   9723SM  H16T13140   6.134   7.162  10.375  0.6103  0.0084  2.4588
   9723SM  C17S13141   6.319   7.051  10.373 -0.1766 -0.2447 -0.0383
   9723SM  H17S13142   6.355   6.953  10.337 -1.3365 -0.2156 -1.3644
   9723SM  H17T13143   6.318   7.035  10.483 -1.0270 -0.3550 -0.0536
   9723SM  C18S13144   6.419   7.163  10.331 -0.1200 -0.4104 -0.2000
   9723SM  H18S13145   6.387   7.221  10.242  2.4935 -0.6794 -1.4269
   9723SM  H18T13146   6.518   7.117  10.308 -0.2407 -0.3089 -0.9460
   9723SM  H18U13147   6.443   7.235  10.412  3.1447  0.2363 -1.5858
   9723SM   C1F13148   5.906   7.218   8.847  0.6054 -0.5818 -0.5145
   9723SM    OF13149   5.805   7.159   8.817 -0.4366  0.1190  0.1412
   9723SM   C2F13150   5.899   7.372   8.877 -1.1567 -0.5159 -0.2443
   9723SM   H2F13151   5.946   7.415   8.786  1.5288  0.1082  1.3150
   9723SM   H2G13152   5.959   7.396   8.968 -0.1344  1.5040 -1.3855
   9723SM   C3F13153   5.754   7.418   8.903 -0.3370  0.1809  0.3553
   9723SM   H3F13154   5.719   7.374   8.999 -0.2060 -0.0982  0.2771
   9723SM   H3G13155   5.694   7.384   8.815  1.1893  0.6311 -0.9017
   9723SM   C4F13156   5.750   7.572   8.905 -0.2583  0.1825 -0.6556
   9723SM   H4F13157   5.644   7.590   8.934 -0.1432 -0.5075  0.2315
   9723SM   H4G13158   5.774   7.612   8.804 -1.4480 -2.8006 -2.2491
   9723SM   C5F13159   5.846   7.634   9.003  0.9642 -0.7099 -0.3363
   9723SM   H5F13160   5.818   7.742   9.009 -1.7056 -1.4015  1.4162
   9723SM   H5G13161   5.946   7.620   8.956  1.3592  1.9890 -0.4978
   9723SM   C6F13162   5.839   7.573   9.149 -0.4824  0.2554 -0.2466
   9723SM   H6F13163   5.886   7.473   9.143 -2.4596 -0.6793 -1.1681
   9723SM   H6G13164   5.734   7.544   9.172 -0.1216  1.1342  2.9212
   9723SM   C7F13165   5.888   7.673   9.257  0.1539  0.1671  0.4126
   9723SM   H7F13166   5.829   7.765   9.238 -0.7548 -0.4512  0.1694
   9723SM   H7G13167   5.985   7.715   9.222  0.3261 -1.1184 -0.7956
   9723SM   C8F13168   5.898   7.630   9.399 -0.2896  0.1100 -0.4984
   9723SM   H8F13169   5.976   7.554   9.417 -0.8853 -0.3871  0.0579
   9723SM   H8G13170   5.798   7.597   9.434  0.4384 -0.1622  1.4396
   9723SM   C9F13171   5.942   7.747   9.496  0.2919  0.3052 -0.1475
   9723SM   H9F13172   5.882   7.834   9.461  0.2196 -0.8246 -3.1420
   9723SM   H9G13173   6.048   7.773   9.473  1.0544 -1.9549  0.4838
   9723SM  C10F13174   5.932   7.728   9.650  0.0369  0.2536  0.0131
   9723SM  H10F13175   6.024   7.672   9.678  1.1886  2.1770  0.2896
   9723SM  H10G13176   5.842   7.667   9.670 -0.2240  1.0156  1.2802
   9723SM  C11F13177   5.927   7.856   9.732 -0.2647 -0.3808  0.4374
   9723SM  H11F13178   5.834   7.910   9.701  0.6547  0.3041 -1.2580
   9723SM  H11G13179   6.006   7.923   9.692 -0.4030  1.3414  2.8411
   9723SM  C12F13180   5.931   7.838   9.887  0.1790 -0.3093  0.6480
   9723SM  H12F13181   6.030   7.790   9.903 -0.0916 -0.8210  0.8043
   9723SM  H12G13182   5.841   7.778   9.913 -2.1522  2.4034 -0.6503
   9723SM  C13F13183   5.918   7.972   9.961 -0.6900 -0.2403 -0.2763
   9723SM  H13F13184   5.837   8.036   9.920  0.6038  0.8603 -1.2046
   9723SM  H13G13185   6.011   8.030   9.942 -0.7085  0.7155  2.0919
   9723SM  C14F13186   5.903   7.951  10.113  0.0306 -0.0197  0.6748
   9723SM  H14F13187   5.814   7.885  10.123 -0.4811  0.9709  3.8552
   9723SM  H14G13188   5.878   8.051  10.154 -0.9794 -0.5992  1.5649
   9723SM  C15F13189   6.026   7.880  10.176 -0.4068  0.2260  0.7323
   9723SM  H15F13190   6.120   7.935  10.157 -0.6892  1.1413  1.8329
   9723SM  H15G13191   6.041   7.785  10.120  0.1543 -0.0136  1.2816
   9723SM  C16F13192   6.008   7.858  10.326 -0.0889 -0.2191  0.7368
   9723SM  H16F13193   6.073   7.773  10.357  0.5283  0.3037  0.9122
   9723SM  H16G13194   5.901   7.841  10.350 -1.0534  0.3523 -2.5720
   9723SM  C17F13195   6.053   7.986  10.389  0.4693 -1.1932  0.6553
   9723SM  H17F13196   5.984   8.063  10.350 -0.7090 -2.4504  0.1989
   9723SM  H17G13197   6.158   8.007  10.359  0.0070 -0.5272 -0.5322
   9723SM  C18F13198   6.045   7.975  10.544  0.1589  0.5288  0.6985
   9723SM  H18F13199   5.941   7.943  10.564  0.1139  1.1057  1.4109
   9723SM  H18G13200   6.053   8.081  10.574 -0.2855  0.7346  0.1072
   9723SM  C19F13201   6.157   7.888  10.603  0.1142  0.1829  0.3222
   9723SM  H19F13202   6.258   7.930  10.583  0.3367 -1.0592 -1.3481
   9723SM  H19G13203   6.162   7.788  10.557 -2.3040 -0.3135  1.0132
   9723SM  C20F13204   6.144   7.887  10.757  0.6995 -0.5512 -0.6849
   9723SM  H20F13205   6.144   7.996  10.778 -0.8075 -0.3675 -1.4513
   9723SM  H20G13206   6.230   7.838  10.808  0.9466  2.7511  2.4818
   9723SM  C21F13207   6.005   7.820  10.804  0.0578  0.8773  0.5846
   9723SM  H21F13208   6.023   7.714  10.775  1.8985  1.3138  0.0101
   9723SM  H21G13209   5.912   7.850  10.751 -1.2693 -0.7653  1.8494
   9723SM  C22F13210   5.963   7.826  10.949 -0.4156  0.0528  1.2652
   9723SM  H22F13211   6.042   7.795  11.020  1.8461  1.6412 -0.4066
   9723SM  H22G13212   5.880   7.753  10.954 -0.3141 -0.3341 -1.2734
   9723SM  C23F13213   5.905   7.963  10.998  0.3902  0.6224  1.1054
   9723SM  H23F13214   5.844   7.946  11.090 -0.4998 -1.6765  0.1856
   9723SM  H23G13215   5.837   8.003  10.920  1.4247 -0.0374 -0.1709
   9723SM  H23H13216   5.981   8.044  11.001  0.7930  0.3841 -1.1694
   9823SM     N13217   0.805   1.762   8.097  0.3726  0.1278 -0.6494
   9823SM   C1513218   0.832   1.618   8.132  0.8232 -0.2434  0.1870
   9823SM  H15A13219   0.854   1.551   8.051  0.3009 -1.9833  1.4206
   9823SM  H15B13220   0.755   1.578   8.196 -1.5142  1.6209 -1.3068
   9823SM  H15C13221   0.927   1.608   8.183  0.7895  1.1061  0.5735
   9823SM   C1413222   0.922   1.824   8.033  0.1360  0.9484  0.2254
   9823SM  H14A13223   1.002   1.822   8.106 -0.1707 -2.3083  0.6179
   9823SM  H14B13224   0.904   1.922   7.991 -1.0479  0.5633 -0.1822
   9823SM  H14C13225   0.959   1.768   7.949  0.5280  1.9429 -0.2875
   9823SM   C1313226   0.692   1.766   8.004 -0.4973 -0.5722 -0.4366
   9823SM  H13A13227   0.616   1.727   8.070  0.6892  3.2641  3.6763
   9823SM  H13B13228   0.707   1.703   7.918 -0.2108 -1.3146  0.1506
   9823SM  H13C13229   0.672   1.868   7.974 -1.0609 -0.6627 -0.3832
   9823SM   C1213230   0.763   1.839   8.222 -0.2470  0.7425  0.6691
   9823SM  H12A13231   0.673   1.794   8.261 -1.6090  0.0222 -2.9324
   9823SM  H12B13232   0.736   1.939   8.191  1.9414  0.4533 -2.6001
   9823SM   C1113233   0.869   1.860   8.329 -0.3167 -0.7217  0.2128
   9823SM  H11A13234   0.934   1.771   8.345  2.5594  1.4606  1.4985
   9823SM  H11B13235   0.821   1.870   8.428  0.1274  1.6688  0.2279
   9823SM     P13236   0.904   2.111   8.316  0.2102  0.0711 -0.4367
   9823SM   O1313237   1.019   2.196   8.300 -0.1259 -0.0920  0.0532
   9823SM   O1413238   0.793   2.130   8.215 -0.4355 -0.3002  0.1718
   9823SM   O1113239   0.853   2.114   8.472 -0.1121  0.4330  0.0865
   9823SM   O1213240   0.956   1.969   8.300 -0.1748  0.2335 -0.0226
   9823SM   C1S13241   0.943   2.079   8.575 -0.3986  0.1937  0.6051
   9823SM   H1S13242   1.013   2.160   8.602 -0.4631 -0.0512  1.5552
   9823SM   H1T13243   1.010   1.995   8.547  0.2249  0.7896  0.2827
   9823SM    NF13244   0.966   2.013   8.810  0.1779 -0.8465 -0.1291
   9823SM   HNF13245   0.966   1.916   8.833  1.5394 -0.6857  0.6164
   9823SM   C2S13246   0.871   2.062   8.708 -0.2050  0.2189 -0.3276
   9823SM   H2S13247   0.834   2.163   8.736 -1.6237 -0.7565  1.4371
   9823SM   C3S13248   0.749   1.971   8.702  0.7994 -0.0411 -0.5781
   9823SM   H3S13249   0.792   1.871   8.677 -0.6574 -0.3206 -2.1117
   9823SM    O313250   0.648   2.000   8.604 -0.1718 -0.4977  0.2480
   9823SM   HO313251   0.677   2.083   8.566 -1.4527 -0.4089 -0.6080
   9823SM   C4S13252   0.689   1.965   8.845 -1.3194  0.1157  0.1368
   9823SM   H4S13253   0.696   1.867   8.893 -0.3029  0.0745 -0.0872
   9823SM   C5S13254   0.603   2.051   8.901  0.3445 -0.2151 -0.0579
   9823SM   H5S13255   0.561   2.136   8.846 -4.7895 -0.9308  2.1034
   9823SM   C6S13256   0.537   2.036   9.034  0.6854 -0.4145  0.5461
   9823SM   H6S13257   0.427   2.025   9.021  0.7960 -0.9250  0.0009
   9823SM   H6T13258   0.550   2.129   9.092  2.1379 -0.4309  0.2804
   9823SM   C7S13259   0.578   1.925   9.131  0.1561  0.0325  0.0989
   9823SM   H7S13260   0.673   1.956   9.179 -1.2000  1.6854  1.8259
   9823SM   H7T13261   0.585   1.830   9.073  0.9710  0.9232 -1.3318
   9823SM   C8S13262   0.476   1.910   9.245 -0.5824 -0.4346  0.8270
   9823SM   H8S13263   0.382   1.876   9.196  0.6160 -0.4156 -1.6785
   9823SM   H8T13264   0.464   2.018   9.269  0.5122 -0.3888  1.2480
   9823SM   C9S13265   0.502   1.837   9.371 -0.6269  0.7818 -0.8716
   9823SM   H9S13266   0.490   1.729   9.351 -2.1274  0.9940 -1.2239
   9823SM   H9T13267   0.415   1.853   9.439 -1.8679 -2.3057 -1.5863
   9823SM  C10S13268   0.638   1.881   9.441 -0.2750 -0.0814  0.1149
   9823SM  H10S13269   0.648   1.991   9.431 -0.9207 -0.0023  0.2589
   9823SM  H10T13270   0.717   1.822   9.390  0.3357  1.2504 -0.5193
   9823SM  C11S13271   0.656   1.864   9.589 -0.3437  0.1669  0.0279
   9823SM  H11S13272   0.660   1.755   9.609 -1.5339  0.5647  2.9043
   9823SM  H11T13273   0.574   1.922   9.636 -0.0612  1.8725 -1.4635
   9823SM  C12S13274   0.790   1.915   9.640 -0.0749 -0.0794 -0.1111
   9823SM  H12S13275   0.787   2.023   9.614  0.5803 -0.0863 -0.2310
   9823SM  H12T13276   0.870   1.866   9.582 -1.6170 -1.2259 -1.3523
   9823SM  C13S13277   0.801   1.897   9.794 -0.3139  0.4414 -0.2599
   9823SM  H13S13278   0.796   1.789   9.818 -0.7596  0.6925  0.8591
   9823SM  H13T13279   0.714   1.948   9.840  0.3136  1.2046  0.1007
   9823SM  C14S13280   0.925   1.961   9.856  0.5031  0.1261  0.7690
   9823SM  H14S13281   0.909   2.071   9.847  1.2994  0.1394 -0.7664
   9823SM  H14T13282   1.014   1.924   9.802  0.7316  0.5047  0.8840
   9823SM  C15S13283   0.954   1.923   9.999 -0.3026 -0.1253 -0.2055
   9823SM  H15S13284   1.043   1.977  10.038 -0.6285 -1.0908  2.0759
   9823SM  H15T13285   0.977   1.815  10.006  1.1359  0.2162  0.9255
   9823SM  C16S13286   0.832   1.952  10.093 -0.4692  0.6274 -0.5728
   9823SM  H16S13287   0.755   1.880  10.060  0.4512 -0.6124 -0.1213
   9823SM  H16T13288   0.802   2.059  10.087 -0.7392  0.5914  0.0732
   9823SM  C17S13289   0.874   1.915  10.238  0.0488  0.3058 -0.3949
   9823SM  H17S13290   0.958   1.979  10.270 -0.7027  2.0992 -1.8668
   9823SM  H17T13291   0.909   1.810  10.249  0.8262  0.6420  0.4232
   9823SM  C18S13292   0.762   1.936  10.338 -1.0650 -0.0316  0.0366
   9823SM  H18S13293   0.801   1.884  10.428  0.0496 -0.7506 -0.8403
   9823SM  H18T13294   0.664   1.903  10.296 -0.3950 -3.7568  1.0880
   9823SM  H18U13295   0.762   2.045  10.360 -0.7559  0.4191 -2.0010
   9823SM   C1F13296   1.057   2.083   8.875  0.5845  0.5711 -0.4230
   9823SM    OF13297   1.089   2.194   8.837  0.0934 -0.2544 -0.9057
   9823SM   C2F13298   1.120   2.031   9.006 -0.0315  0.3727 -0.0111
   9823SM   H2F13299   1.215   2.087   9.018 -0.7143  1.3367  1.1720
   9823SM   H2G13300   1.138   1.924   8.984 -2.5568  0.2049 -1.7317
   9823SM   C3F13301   1.025   2.043   9.127  0.2410 -0.1722  0.8111
   9823SM   H3F13302   0.928   1.989   9.120  0.2542 -0.0551 -0.6303
   9823SM   H3G13303   1.010   2.153   9.141 -2.9557 -0.5853  1.4615
   9823SM   C4F13304   1.091   2.002   9.261  0.0375 -0.3209 -0.4244
   9823SM   H4F13305   1.010   2.009   9.338  1.7103 -0.6275  1.4400
   9823SM   H4G13306   1.164   2.080   9.290 -1.1620  0.0443  1.9043
   9823SM   C5F13307   1.142   1.855   9.275 -0.7300  0.2563  0.6532
   9823SM   H5F13308   1.245   1.846   9.235 -0.5658  1.5571  0.7164
   9823SM   H5G13309   1.070   1.786   9.226  0.5245 -0.3444 -0.4288
   9823SM   C6F13310   1.164   1.828   9.420 -0.1338  0.5012 -0.9501
   9823SM   H6F13311   1.081   1.846   9.492 -0.5007 -1.4229 -0.8470
   9823SM   H6G13312   1.255   1.874   9.463  0.0492  0.7436 -1.5812
   9823SM   C7F13313   1.203   1.678   9.444 -0.2495  1.0594 -0.2906
   9823SM   H7F13314   1.290   1.642   9.385 -1.6927 -3.8104  0.1036
   9823SM   H7G13315   1.126   1.614   9.397 -1.0109  0.6853  1.3807
   9823SM   C8F13316   1.226   1.648   9.590  0.6299 -0.1640 -0.1632
   9823SM   H8F13317   1.138   1.691   9.643 -1.0407 -0.4977 -2.5226
   9823SM   H8G13318   1.318   1.704   9.616  0.4053  0.1223  0.0151
   9823SM   C9F13319   1.233   1.493   9.612  0.9466 -0.2922 -0.0495
   9823SM   H9F13320   1.317   1.452   9.552  0.8870  0.2241 -0.4962
   9823SM   H9G13321   1.135   1.446   9.587  0.9982  0.3834 -1.6003
   9823SM  C10F13322   1.268   1.450   9.761  0.3496  0.2461  0.2360
   9823SM  H10F13323   1.374   1.482   9.771  0.0320  0.7777  2.4503
   9823SM  H10G13324   1.266   1.339   9.765 -0.8077  0.2830  1.1483
   9823SM  C11F13325   1.185   1.517   9.872  0.3969  0.5247 -0.3999
   9823SM  H11F13326   1.079   1.489   9.856 -0.1538  1.1227  1.8340
   9823SM  H11G13327   1.187   1.626   9.854  0.8702  0.7372  0.8509
   9823SM  C12F13328   1.238   1.486  10.013  0.0748 -0.5386 -0.1974
   9823SM  H12F13329   1.332   1.545  10.010 -0.1105 -0.2148  0.2798
   9823SM  H12G13330   1.262   1.378  10.015  1.3174 -0.3167 -1.4972
   9823SM  C13F13331   1.152   1.515  10.136 -0.1809  0.0132  0.4837
   9823SM  H13F13332   1.065   1.447  10.146 -1.0871  1.2386  1.3723
   9823SM  H13G13333   1.109   1.618  10.127  0.4108  0.1681 -0.7614
   9823SM  C14F13334   1.230   1.528  10.272  1.1125  0.0240  0.2658
   9823SM  H14F13335   1.154   1.555  10.349 -1.4106  0.3785 -2.1926
   9823SM  H14G13336   1.300   1.614  10.262  0.3796  0.4690 -1.5936
   9823SM  C15F13337   1.306   1.394  10.298 -0.0285  0.1171 -0.0898
   9823SM  H15F13338   1.393   1.389  10.230 -2.0459 -0.8047 -2.8074
   9823SM  H15G13339   1.239   1.308  10.278 -0.1397 -0.4311  2.3317
   9823SM  C16F13340   1.359   1.391  10.438  0.4926 -0.3837 -0.7885
   9823SM  H16F13341   1.269   1.406  10.500  0.5169 -0.3383 -0.7653
   9823SM  H16G13342   1.433   1.473  10.448 -0.0329 -0.0458  0.3740
   9823SM  C17F13343   1.422   1.260  10.481 -0.0880 -0.6009 -0.0320
   9823SM  H17F13344   1.529   1.256  10.452 -0.1509  0.6218 -0.4895
   9823SM  H17G13345   1.363   1.185  10.424  1.6245 -1.0499 -1.2881
   9823SM  C18F13346   1.391   1.220  10.628  0.0326  0.2827 -0.3965
   9823SM  H18F13347   1.415   1.114  10.648  1.7214  0.8377  0.8250
   9823SM  H18G13348   1.283   1.242  10.641  0.2236  1.5131 -0.7485
   9823SM  C19F13349   1.474   1.308  10.727  0.8744 -0.4861 -0.5264
   9823SM  H19F13350   1.434   1.411  10.721 -0.4073 -0.6836  2.6136
   9823SM  H19G13351   1.584   1.311  10.711  1.2323  1.0884  1.7834
   9823SM  C20F13352   1.450   1.257  10.872  0.1041 -0.5697 -0.2636
   9823SM  H20F13353   1.515   1.167  10.887  0.4725 -0.3729 -0.6531
   9823SM  H20G13354   1.341   1.241  10.885  0.0853 -0.2563 -0.0178
   9823SM  C21F13355   1.489   1.353  10.990  0.3276 -0.0555 -0.3665
   9823SM  H21F13356   1.446   1.305  11.081  0.6965  0.7351  0.2338
   9823SM  H21G13357   1.444   1.452  10.969 -2.1949 -0.9551  0.4438
   9823SM  C22F13358   1.642   1.377  11.002  0.1288 -0.0438  0.0168
   9823SM  H22F13359   1.688   1.431  10.917  1.0652 -1.0979 -0.1781
   9823SM  H22G13360   1.688   1.276  10.992 -3.4422 -1.7244 -1.1993
   9823SM  C23F13361   1.692   1.446  11.128  0.6994  0.0652 -0.9609
   9823SM  H23F13362   1.678   1.556  11.120 -1.4483 -0.1926 -1.4879
   9823SM  H23G13363   1.801   1.425  11.132  0.9545  0.8213 -2.7373
   9823SM  H23H13364   1.651   1.399  11.220  0.0855  1.3048 -0.5749
   9923SM     N13365   3.754   1.255   8.295  0.1808  0.3651 -1.0917
   9923SM   C1513366   3.656   1.369   8.263 -0.3171  0.0115  0.0811
   9923SM  H15A13367   3.719   1.452   8.234 -0.7569  0.6006  0.7730
   9923SM  H15B13368   3.612   1.411   8.352  0.4645  0.7284  0.1505
   9923SM  H15C13369   3.582   1.337   8.192 -0.7771 -0.1690  0.6346
   9923SM   C1413370   3.795   1.193   8.161  0.0646  0.7343  0.5642
   9923SM  H14A13371   3.836   1.274   8.101 -0.0392  1.4067  1.3778
   9923SM  H14B13372   3.713   1.158   8.101  1.0279  0.6072 -0.7264
   9923SM  H14C13373   3.871   1.117   8.172  0.9322  1.7587  1.9576
   9923SM   C1313374   3.880   1.300   8.359 -0.0435  0.7188  0.1888
   9923SM  H13A13375   3.945   1.344   8.284 -2.2938  0.6217 -1.9369
   9923SM  H13B13376   3.936   1.224   8.412 -0.5651  0.1418 -0.0789
   9923SM  H13C13377   3.856   1.384   8.423 -0.1830 -0.1106  1.2450
   9923SM   C1213378   3.682   1.151   8.386  0.6662  0.0534  0.1749
   9923SM  H12A13379   3.744   1.062   8.391  1.3970  0.1760 -3.6426
   9923SM  H12B13380   3.591   1.131   8.331  0.0905  1.3897  0.6164
   9923SM   C1113381   3.636   1.196   8.524  0.5903 -0.7445 -0.1324
   9923SM  H11A13382   3.727   1.220   8.583 -0.5198  1.9141  0.6595
   9923SM  H11B13383   3.590   1.111   8.579  0.1520 -0.0941  0.5066
   9923SM     P13384   3.407   1.318   8.586 -0.0215 -0.2091  0.1641
   9923SM   O1313385   3.364   1.462   8.584  0.0253  0.0436  0.0892
   9923SM   O1413386   3.319   1.223   8.510  0.2826 -0.3537  0.5822
   9923SM   O1113387   3.422   1.259   8.728  0.3858  0.4137 -0.8626
   9923SM   O1213388   3.553   1.313   8.525  0.4084  0.4991 -0.2263
   9923SM   C1S13389   3.489   1.333   8.839  0.0843 -0.0867  0.3456
   9923SM   H1S13390   3.441   1.431   8.857  0.9030  0.2027  1.0173
   9923SM   H1T13391   3.595   1.342   8.805 -0.5360 -0.0769 -1.6824
   9923SM    NF13392   3.582   1.321   9.064  0.0384 -0.0929  0.1303
   9923SM   HNF13393   3.669   1.287   9.099 -0.5389 -0.3216  1.4259
   9923SM   C2S13394   3.514   1.246   8.969  0.1007  0.2947  0.3601
   9923SM   H2S13395   3.410   1.225   9.002 -0.1118  0.3260 -0.2577
   9923SM   C3S13396   3.576   1.106   8.941 -0.6030 -0.4290  0.2800
   9923SM   H3S13397   3.676   1.121   8.895 -1.3022 -0.2799 -1.2435
   9923SM    O313398   3.502   1.039   8.840 -0.0529 -0.1914 -0.2608
   9923SM   HO313399   3.458   1.112   8.797 -0.0779 -0.3878 -0.5715
   9923SM   C4S13400   3.587   1.021   9.068 -0.6037 -0.2659  0.5185
   9923SM   H4S13401   3.686   1.008   9.114 -0.3784  0.8404  0.3857
   9923SM   C5S13402   3.485   0.973   9.133  0.3640  0.3984  0.2291
   9923SM   H5S13403   3.380   1.000   9.112  0.2654  0.8852  1.2875
   9923SM   C6S13404   3.488   0.888   9.262  0.0506 -0.4000  0.3020
   9923SM   H6S13405   3.467   0.784   9.231 -0.2724 -0.1273 -0.4370
   9923SM   H6T13406   3.413   0.924   9.336 -0.8252  0.7501 -1.0716
   9923SM   C7S13407   3.619   0.907   9.343 -0.6840  0.6538 -0.3608
   9923SM   H7S13408   3.639   1.016   9.338  0.1749  0.6022  1.3298
   9923SM   H7T13409   3.697   0.850   9.288 -0.3383  2.0407 -1.3692
   9923SM   C8S13410   3.611   0.850   9.487  0.6806  0.8193  0.6470
   9923SM   H8S13411   3.525   0.893   9.542  1.3685  1.9369  0.8932
   9923SM   H8T13412   3.705   0.869   9.544  1.2420  0.0480  0.0115
   9923SM   C9S13413   3.600   0.688   9.486  0.7920  0.2866  0.0000
   9923SM   H9S13414   3.662   0.661   9.398  0.8508 -1.7617  0.6058
   9923SM   H9T13415   3.504   0.645   9.451  2.1898 -2.9017 -0.3173
   9923SM  C10S13416   3.652   0.623   9.612  0.3550 -0.1871  0.1499
   9923SM  H10S13417   3.658   0.514   9.590 -0.0308  0.2835 -2.6717
   9923SM  H10T13418   3.584   0.645   9.697  3.2272  0.5680  2.4096
   9923SM  C11S13419   3.792   0.664   9.640 -0.0472  0.3856  0.0136
   9923SM  H11S13420   3.776   0.750   9.709 -0.1791 -1.5504  2.5468
   9923SM  H11T13421   3.856   0.688   9.553  1.6535 -0.5940  0.9471
   9923SM  C12S13422   3.872   0.571   9.722  0.7181  0.8384 -0.6115
   9923SM  H12S13423   3.974   0.608   9.742  0.0072  1.3589  2.5572
   9923SM  H12T13424   3.879   0.470   9.675 -0.2750  0.1280  0.6818
   9923SM  C13S13425   3.808   0.554   9.864 -1.2097 -0.6794  0.4455
   9923SM  H13S13426   3.737   0.469   9.874 -2.0909 -0.3404 -2.0320
   9923SM  H13T13427   3.743   0.642   9.880  0.4945  1.0726 -1.5446
   9923SM  C14S13428   3.917   0.558   9.978  0.4450 -0.0231  0.0741
   9923SM  H14S13429   3.969   0.656   9.967 -1.2608  1.1884  1.8547
   9923SM  H14T13430   3.986   0.471   9.974 -1.4656 -1.5583 -1.9550
   9923SM  C15S13431   3.852   0.569  10.110  0.4902 -0.1102 -0.3957
   9923SM  H15S13432   3.804   0.470  10.130 -0.9974  1.1278  2.7903
   9923SM  H15T13433   3.768   0.640  10.121 -0.2556 -1.1300  0.8548
   9923SM  C16S13434   3.942   0.608  10.225  0.0188  0.0366  0.6009
   9923SM  H16S13435   4.036   0.556  10.196 -0.3079 -0.0511 -0.3088
   9923SM  H16T13436   3.889   0.561  10.310 -3.7498 -0.0981 -1.5991
   9923SM  C17S13437   3.957   0.758  10.239 -0.0634 -0.2053  0.4299
   9923SM  H17S13438   3.857   0.798  10.266  0.5458  0.1828  2.2500
   9923SM  H17T13439   3.968   0.795  10.135 -1.2684  1.2838  0.8004
   9923SM  C18S13440   4.062   0.807  10.335  0.4635  0.6038 -0.1844
   9923SM  H18S13441   4.021   0.798  10.438 -1.8507 -0.2820 -1.0980
   9923SM  H18T13442   4.092   0.913  10.326  1.6694  0.2745 -0.1867
   9923SM  H18U13443   4.152   0.744  10.325  0.4125  0.4029  0.5476
   9923SM   C1F13444   3.539   1.436   9.115 -0.3156  0.5150 -0.5839
   9923SM    OF13445   3.433   1.480   9.079 -0.2457  0.1619  0.6240
   9923SM   C2F13446   3.636   1.514   9.198  0.4516  0.1525 -0.0557
   9923SM   H2F13447   3.613   1.620   9.178  0.0053  0.6368  2.6515
   9923SM   H2G13448   3.741   1.489   9.172  0.2474 -1.5244  0.5774
   9923SM   C3F13449   3.592   1.491   9.347  0.1543 -0.7960  0.4025
   9923SM   H3F13450   3.596   1.383   9.372 -0.8475 -1.1194 -0.7778
   9923SM   H3G13451   3.485   1.517   9.351  0.1907 -0.7055  0.8794
   9923SM   C4F13452   3.676   1.573   9.440  0.1537  0.0755 -0.2635
   9923SM   H4F13453   3.663   1.679   9.408 -0.0490 -0.6442 -2.8060
   9923SM   H4G13454   3.784   1.547   9.442  0.1498  0.0732 -0.0662
   9923SM   C5F13455   3.630   1.572   9.592 -0.0820  0.0918 -0.3675
   9923SM   H5F13456   3.590   1.474   9.623  1.1272 -0.2489  0.1936
   9923SM   H5G13457   3.554   1.652   9.604  0.8619  0.8184  1.1576
   9923SM   C6F13458   3.743   1.601   9.690  0.1671 -0.3153 -0.0203
   9923SM   H6F13459   3.795   1.696   9.667 -0.1923  0.2354  1.3350
   9923SM   H6G13460   3.819   1.520   9.680 -2.1155 -2.8988  1.7668
   9923SM   C7F13461   3.686   1.595   9.835 -0.0757  0.7652 -0.4478
   9923SM   H7F13462   3.652   1.491   9.857  0.1244  0.8434  0.2462
   9923SM   H7G13463   3.600   1.665   9.846 -0.3576  0.0153  3.5537
   9923SM   C8F13464   3.774   1.630   9.956 -0.7141  0.9172  0.2814
   9923SM   H8F13465   3.814   1.732   9.943 -1.4149  1.4749  2.1624
   9923SM   H8G13466   3.864   1.564   9.961 -0.6526  1.0789  1.6122
   9923SM   C9F13467   3.700   1.615  10.095 -0.3510 -0.4983 -0.4418
   9923SM   H9F13468   3.632   1.527  10.094 -0.1297 -0.6710 -1.1613
   9923SM   H9G13469   3.630   1.700  10.110 -0.3917 -0.6936  0.4885
   9923SM  C10F13470   3.798   1.592  10.208 -0.3454  0.8408 -0.0747
   9923SM  H10F13471   3.873   1.674  10.214  0.7206 -0.0309 -1.2004
   9923SM  H10G13472   3.860   1.506  10.176  0.9101  1.5407  0.4188
   9923SM  C11F13473   3.721   1.562  10.339  0.1708  0.2926 -0.2534
   9923SM  H11F13474   3.771   1.473  10.382 -0.8921  0.0945  0.6316
   9923SM  H11G13475   3.620   1.517  10.326 -0.5164  1.7436 -0.1916
   9923SM  C12F13476   3.709   1.680  10.431  0.0583 -0.7302 -0.1032
   9923SM  H12F13477   3.673   1.769  10.374  2.3192 -1.4463 -2.8262
   9923SM  H12G13478   3.810   1.701  10.473  0.0162  3.0889 -1.5259
   9923SM  C13F13479   3.620   1.649  10.549 -0.7504  0.0311  0.2177
   9923SM  H13F13480   3.662   1.563  10.605  0.9369 -0.4087 -1.6066
   9923SM  H13G13481   3.522   1.617  10.508 -0.6759 -1.0450  0.8525
   9923SM  C14F13482   3.590   1.772  10.637  0.0572 -0.3386  0.0625
   9923SM  H14F13483   3.554   1.858  10.576 -0.4377  2.0801  3.4344
   9923SM  H14G13484   3.685   1.812  10.678  1.3661 -0.0738 -3.0200
   9923SM  C15F13485   3.482   1.758  10.746  0.4836  0.5008 -0.1627
   9923SM  H15F13486   3.524   1.681  10.814  2.5378  1.5169 -0.2011
   9923SM  H15G13487   3.387   1.734  10.694  0.1115 -1.3629  1.2983
   9923SM  C16F13488   3.462   1.883  10.831 -0.0153 -0.0556 -0.4086
   9923SM  H16F13489   3.390   1.879  10.916  2.3606 -0.5621  1.6904
   9923SM  H16G13490   3.452   1.977  10.771 -0.1516 -1.1207 -2.1180
   9923SM  C17F13491   3.590   1.915  10.916  0.1263 -0.0441 -0.2714
   9923SM  H17F13492   3.641   1.998  10.864 -1.9005  0.8941 -0.8701
   9923SM  H17G13493   3.648   1.821  10.930 -1.4251 -1.1463 -0.8810
   9923SM  C18F13494   3.561   1.968  11.054  0.4583  0.1208  0.0195
   9923SM  H18F13495   3.511   1.897  11.123 -1.1684  0.4098 -0.8180
   9923SM  H18G13496   3.493   2.056  11.053 -1.4581 -1.2815 -1.8995
   9923SM  C19F13497   3.699   1.998  11.118  0.4359 -0.6109  0.1221
   9923SM  H19F13498   3.751   2.085  11.073 -3.1966  2.9845  2.1856
   9923SM  H19G13499   3.757   1.904  11.130 -1.0353 -1.4300  1.2275
   9923SM  C20F13500   3.669   2.044  11.258  0.2002 -0.2898 -0.8848
   9923SM  H20F13501   3.763   2.072  11.308 -0.8233 -0.0492  0.9862
   9923SM  H20G13502   3.630   1.967  11.328 -0.9984  0.8622 -0.2264
   9923SM  C21F13503   3.575   2.168  11.289 -0.1771  0.3947  0.2507
   9923SM  H21F13504   3.567   2.176  11.399 -3.2362  3.3114 -0.0365
   9923SM  H21G13505   3.475   2.138  11.252  0.9452 -0.9555 -1.8942
   9923SM  C22F13506   3.603   2.301  11.228 -0.0136 -0.3782  0.3153
   9923SM  H22F13507   3.609   2.301  11.117  0.8413  0.8557  0.3437
   9923SM  H22G13508   3.698   2.344  11.266 -1.4987  1.6216  2.0537
   9923SM  C23F13509   3.494   2.401  11.266 -0.3195 -0.2567 -0.0717
   9923SM  H23F13510   3.392   2.372  11.232  0.0819  0.2401 -1.8280
   9923SM  H23G13511   3.509   2.502  11.222 -1.3180 -0.4151 -0.8161
   9923SM  H23H13512   3.477   2.416  11.375  0.0554  0.6066 -0.1180
  10023SM     N13513   4.441   2.509   8.217 -0.0947 -0.3478  0.3142
  10023SM   C1513514   4.483   2.635   8.281 -0.0723  0.2847 -0.3514
  10023SM  H15A13515   4.410   2.671   8.352 -0.8583 -1.6290 -0.1135
  10023SM  H15B13516   4.495   2.712   8.207 -0.9574  1.0269  0.2465
  10023SM  H15C13517   4.572   2.616   8.338  0.0169  0.3062 -0.4842
  10023SM   C1413518   4.335   2.543   8.119  0.0899  0.0375  0.2694
  10023SM  H14A13519   4.325   2.454   8.060  1.3184  0.4675 -0.6395
  10023SM  H14B13520   4.362   2.631   8.062  0.7430  0.6828  1.5085
  10023SM  H14C13521   4.240   2.561   8.167  0.4593  0.2664  0.9311
  10023SM   C1313522   4.564   2.468   8.137 -0.0863  0.6658  0.1504
  10023SM  H13A13523   4.534   2.398   8.061 -2.2627  0.1525  1.4061
  10023SM  H13B13524   4.646   2.433   8.197 -0.8676 -0.3267  0.6622
  10023SM  H13C13525   4.591   2.559   8.085  1.7013  1.7787  2.8350
  10023SM   C1213526   4.402   2.399   8.309 -0.0221 -1.1686 -0.3775
  10023SM  H12A13527   4.469   2.376   8.391 -1.0001 -0.3484  0.6808
  10023SM  H12B13528   4.406   2.306   8.254 -0.9351 -1.1262 -0.5365
  10023SM   C1113529   4.262   2.421   8.375  0.7844  0.0489 -0.1528
  10023SM  H11A13530   4.178   2.416   8.302  0.6515 -0.3683  0.0240
  10023SM  H11B13531   4.251   2.521   8.421 -0.2047 -0.1354  0.0439
  10023SM     P13532   4.220   2.164   8.442  0.2255  0.1996 -0.0922
  10023SM   O1313533   4.081   2.159   8.395  0.0777  0.1476  0.1413
  10023SM   O1413534   4.330   2.100   8.362  0.5869  0.0192 -0.2876
  10023SM   O1113535   4.216   2.102   8.586  0.0050  0.1831 -0.7391
  10023SM   O1213536   4.254   2.318   8.472  0.1647 -0.2141  0.5699
  10023SM   C1S13537   4.275   2.153   8.708 -0.0868  0.1285  0.1510
  10023SM   H1S13538   4.200   2.221   8.753  0.3923  2.5322 -2.3755
  10023SM   H1T13539   4.368   2.211   8.684  0.6176 -1.7633 -2.0911
  10023SM    NF13540   4.332   2.102   8.940 -0.0305 -0.8737 -0.7243
  10023SM   HNF13541   4.427   2.103   8.971 -0.6235 -0.5339  1.2363
  10023SM   C2S13542   4.303   2.044   8.814 -0.2623 -0.2408 -0.3093
  10023SM   H2S13543   4.216   1.974   8.816  0.3733 -1.0412  0.0055
  10023SM   C3S13544   4.415   1.946   8.765  0.1419  0.3670  0.4721
  10023SM   H3S13545   4.510   2.002   8.762  0.9356 -0.9302  0.4362
  10023SM    O313546   4.397   1.899   8.626 -0.4928  0.6088  0.4864
  10023SM   HO313547   4.348   1.969   8.583 -1.5137 -0.4957 -0.2424
  10023SM   C4S13548   4.427   1.821   8.844 -0.5919 -0.2314  0.0285
  10023SM   H4S13549   4.344   1.749   8.842  0.4829 -1.6042  1.5081
  10023SM   C5S13550   4.528   1.799   8.930 -0.5076  0.1845 -0.6186
  10023SM   H5S13551   4.608   1.872   8.953 -0.2590 -1.1404  3.7228
  10023SM   C6S13552   4.536   1.673   9.011 -0.1150 -0.0863 -0.0679
  10023SM   H6S13553   4.616   1.609   8.969  1.7303  1.5096  0.8639
  10023SM   H6T13554   4.440   1.617   9.020  0.5951 -1.1979  0.9106
  10023SM   C7S13555   4.594   1.711   9.146  0.0009  0.4767 -0.6081
  10023SM   H7S13556   4.696   1.753   9.137  0.3966 -0.1481  0.6968
  10023SM   H7T13557   4.619   1.626   9.213  1.6930  1.0866 -0.4323
  10023SM   C8S13558   4.499   1.805   9.226  0.4873 -0.0716  0.2404
  10023SM   H8S13559   4.400   1.757   9.242  0.9348 -0.6848  1.2814
  10023SM   H8T13560   4.486   1.908   9.185  1.8646  0.2946  0.6976
  10023SM   C9S13561   4.568   1.828   9.366  0.0140 -0.2042  0.0999
  10023SM   H9S13562   4.664   1.883   9.360  0.1004 -0.2771  0.7276
  10023SM   H9T13563   4.586   1.725   9.402  0.4870  0.4501  1.7934
  10023SM  C10S13564   4.475   1.898   9.458  0.8309 -0.3582 -0.4035
  10023SM  H10S13565   4.370   1.863   9.446  0.3430  0.9078 -0.0223
  10023SM  H10T13566   4.472   2.005   9.426 -1.2625 -0.2318  0.0519
  10023SM  C11S13567   4.511   1.904   9.614 -0.2263  0.7394  0.6658
  10023SM  H11S13568   4.619   1.932   9.610  0.1603 -0.6362  1.0564
  10023SM  H11T13569   4.506   1.800   9.653  1.6926  0.5637  0.5646
  10023SM  C12S13570   4.424   1.998   9.698  0.2642 -0.6083 -0.1970
  10023SM  H12S13571   4.317   1.990   9.668 -0.5421  0.2853  2.1614
  10023SM  H12T13572   4.436   2.102   9.663 -1.8066  0.3628  1.6777
  10023SM  C13S13573   4.442   1.992   9.846 -0.3708  0.5567 -0.3993
  10023SM  H13S13574   4.543   2.029   9.874 -0.4038  0.5864 -0.3190
  10023SM  H13T13575   4.435   1.888   9.882  1.8931  0.4393 -0.1668
  10023SM  C14S13576   4.342   2.088   9.913 -0.3424 -0.4222  0.1077
  10023SM  H14S13577   4.237   2.057   9.895 -1.1213  1.8898  0.3149
  10023SM  H14T13578   4.342   2.190   9.870 -3.6670 -1.9202 -4.0534
  10023SM  C15S13579   4.361   2.086  10.069  0.2365  0.3646  0.4276
  10023SM  H15S13580   4.469   2.090  10.097  0.2942  2.4637  0.0177
  10023SM  H15T13581   4.313   1.996  10.113 -0.5582 -0.1276 -1.3646
  10023SM  C16S13582   4.291   2.208  10.122 -0.1944 -0.7279  0.2834
  10023SM  H16S13583   4.190   2.220  10.078  0.4791 -3.0985 -2.1903
  10023SM  H16T13584   4.355   2.298  10.112 -1.0018 -0.0596  0.9533
  10023SM  C17S13585   4.254   2.196  10.265 -0.3842 -0.1533 -0.2150
  10023SM  H17S13586   4.195   2.101  10.272  0.7376 -0.8450  0.0249
  10023SM  H17T13587   4.195   2.285  10.294  0.1780  0.3761 -0.6654
  10023SM  C18S13588   4.374   2.175  10.359  0.1517  0.3822  0.5019
  10023SM  H18S13589   4.339   2.170  10.464 -0.6405  0.5882  0.2606
  10023SM  H18T13590   4.454   2.250  10.344  0.2900 -0.3376 -3.5662
  10023SM  H18U13591   4.424   2.076  10.350 -1.3539 -0.4238  0.5791
  10023SM   C1F13592   4.233   2.153   9.014 -0.0466  1.4151  0.5414
  10023SM    OF13593   4.119   2.153   8.972 -0.4294 -0.1229  0.2866
  10023SM   C2F13594   4.260   2.202   9.148  0.6160 -0.4063 -0.3533
  10023SM   H2F13595   4.264   2.312   9.134 -0.2917 -0.1669  1.0617
  10023SM   H2G13596   4.361   2.169   9.183  0.6945  0.6100  0.4490
  10023SM   C3F13597   4.151   2.171   9.259 -0.0277 -0.2185  0.7224
  10023SM   H3F13598   4.118   2.066   9.244  3.4531 -1.0277 -2.7052
  10023SM   H3G13599   4.063   2.238   9.246  0.8536  0.9577  0.7031
  10023SM   C4F13600   4.206   2.192   9.398 -0.4578  0.0425 -0.8685
  10023SM   H4F13601   4.296   2.129   9.411 -0.2972 -0.4357 -3.5945
  10023SM   H4G13602   4.136   2.157   9.477  1.2059 -0.1665  0.5750
  10023SM   C5F13603   4.236   2.336   9.434  0.4005 -0.1199 -0.4955
  10023SM   H5F13604   4.145   2.399   9.421  0.1563 -0.2143  0.6071
  10023SM   H5G13605   4.309   2.370   9.358  1.6975  2.6178  1.7822
  10023SM   C6F13606   4.297   2.358   9.569 -0.2970 -0.2983 -0.4140
  10023SM   H6F13607   4.374   2.279   9.587 -0.3489  0.0414  1.5194
  10023SM   H6G13608   4.217   2.347   9.645  0.8973 -0.8189  0.8059
  10023SM   C7F13609   4.374   2.492   9.594 -0.2579 -0.8616  0.2766
  10023SM   H7F13610   4.305   2.565   9.546  0.2584 -0.1443  0.6020
  10023SM   H7G13611   4.468   2.488   9.535  0.3909  1.4345  1.0532
  10023SM   C8F13612   4.387   2.520   9.744 -0.3022 -0.5497 -0.4245
  10023SM   H8F13613   4.444   2.438   9.793 -0.0988 -1.9736 -2.9106
  10023SM   H8G13614   4.284   2.530   9.785 -0.0314 -0.2605  0.1933
  10023SM   C9F13615   4.469   2.647   9.771  0.2576 -0.1325  0.0421
  10023SM   H9F13616   4.405   2.735   9.746  1.6531  1.2261  1.0667
  10023SM   H9G13617   4.555   2.639   9.701  0.3628 -0.1981  0.1781
  10023SM  C10F13618   4.519   2.648   9.914  0.0256 -0.7473  0.4641
  10023SM  H10F13619   4.602   2.721   9.926 -1.8142  1.2176  2.2893
  10023SM  H10G13620   4.551   2.543   9.932  0.3042 -0.4056  2.1324
  10023SM  C11F13621   4.418   2.683  10.018 -0.3462 -0.0127 -0.2646
  10023SM  H11F13622   4.327   2.620  10.010 -1.0125  0.7803  0.7046
  10023SM  H11G13623   4.376   2.783   9.993  0.7503  1.3018  2.7269
  10023SM  C12F13624   4.473   2.682  10.164  0.5521 -0.2455  0.1738
  10023SM  H12F13625   4.403   2.741  10.227  1.4788  0.6754  0.3714
  10023SM  H12G13626   4.563   2.747  10.166  0.0461  0.5383 -1.0409
  10023SM  C13F13627   4.505   2.548  10.229  0.0439  0.3284 -0.3661
  10023SM  H13F13628   4.552   2.473  10.161  1.6893  0.1585  0.9130
  10023SM  H13G13629   4.411   2.493  10.253  1.1696 -1.4360  0.1585
  10023SM  C14F13630   4.590   2.571  10.357 -0.1534 -0.0115  0.1143
  10023SM  H14F13631   4.653   2.662  10.360  0.5993 -0.5258  0.5529
  10023SM  H14G13632   4.664   2.490  10.376  0.4201  0.7023  0.9759
  10023SM  C15F13633   4.497   2.566  10.480  0.4052 -0.4340  0.1976
  10023SM  H15F13634   4.420   2.488  10.460 -0.8461  0.9675 -0.6827
  10023SM  H15G13635   4.443   2.664  10.482  0.1505 -0.4460 -2.3805
  10023SM  C16F13636   4.562   2.534  10.615  0.4279 -0.0545 -0.3052
  10023SM  H16F13637   4.653   2.596  10.628  0.5517 -0.6121  1.8108
  10023SM  H16G13638   4.601   2.431  10.628  0.7588  0.1619  0.4337
  10023SM  C17F13639   4.471   2.571  10.733  0.5648 -0.5828 -1.2180
  10023SM  H17F13640   4.392   2.498  10.759 -1.1762  1.9170  1.1896
  10023SM  H17G13641   4.422   2.669  10.710 -1.6604 -0.7107  2.2419
  10023SM  C18F13642   4.551   2.595  10.866 -0.3383  0.2944 -0.2261
  10023SM  H18F13643   4.636   2.666  10.853 -1.5018  1.5730 -1.2377
  10023SM  H18G13644   4.599   2.498  10.889  2.2279  1.3497 -0.8016
  10023SM  C19F13645   4.472   2.648  10.985 -0.0475  0.0995  0.0781
  10023SM  H19F13646   4.383   2.581  10.985  0.8031 -1.0831 -0.1854
  10023SM  H19G13647   4.434   2.750  10.965 -0.3172  0.0970  0.5651
  10023SM  C20F13648   4.547   2.641  11.117 -0.4173  0.3406  0.6496
  10023SM  H20F13649   4.653   2.671  11.107 -0.1919 -1.0749 -2.5097
  10023SM  H20G13650   4.536   2.536  11.152 -2.3206  0.3108  0.0660
  10023SM  C21F13651   4.484   2.716  11.241 -0.4647 -0.1158 -0.0116
  10023SM  H21F13652   4.390   2.660  11.259  1.0998 -3.7778 -2.1533
  10023SM  H21G13653   4.470   2.825  11.224 -2.0117  0.2269  2.7653
  10023SM  C22F13654   4.584   2.708  11.360  0.8583 -0.2113  0.0102
  10023SM  H22F13655   4.673   2.765  11.328  0.6793  0.0079 -0.0956
  10023SM  H22G13656   4.630   2.607  11.371 -0.5568 -0.8067  0.7365
  10023SM  C23F13657   4.513   2.758  11.484  0.4112 -0.5355 -0.2648
  10023SM  H23F13658   4.510   2.869  11.484 -0.6510 -0.5480 -0.0008
  10023SM  H23G13659   4.560   2.717  11.575 -0.8320 -2.3095 -0.3762
  10023SM  H23H13660   4.408   2.721  11.483  0.4639 -0.8133 -2.8104
  101CHL1    C313661   0.039   4.671  13.698  0.8194 -0.3260  0.0140
  101CHL1    H313662   0.140   4.625  13.700  0.7450 -0.4820  0.3570
  101CHL1    O313663  -0.019   4.672  13.832  0.0720 -0.0016 -0.3798
  101CHL1   H3'13664   0.061   4.651  13.881  1.5098  0.0395 -2.5862
  101CHL1    C413665   0.053   4.821  13.641 -0.0954 -0.2340  0.3471
  101CHL1   H4A13666  -0.045   4.872  13.655  0.1941 -0.0354  1.8391
  101CHL1   H4B13667   0.122   4.872  13.712 -0.7239  0.3600  0.5399
  101CHL1    C513668   0.104   4.818  13.499 -0.6381 -0.1151 -0.2452
  101CHL1    C613669   0.221   4.876  13.465 -0.0974 -0.0690 -0.3217
  101CHL1    H613670   0.279   4.934  13.538 -1.1316  0.2309  0.2783
  101CHL1    C713671   0.261   4.897  13.320  0.7486  0.3370 -0.2648
  101CHL1   H7A13672   0.287   5.003  13.302  0.0808  0.8023  1.3797
  101CHL1   H7B13673   0.354   4.838  13.301 -1.0492 -3.1590  0.8595
  101CHL1    C813674   0.154   4.846  13.218  0.9144 -0.1539  0.7203
  101CHL1    H813675   0.080   4.928  13.209  0.9717  0.0291  1.8177
  101CHL1   C1413676   0.217   4.825  13.073  0.8318  0.2591 -0.1888
  101CHL1   H1413677   0.285   4.741  13.099  0.3477 -0.6116 -1.6274
  101CHL1   C1513678   0.300   4.934  13.011 -0.1710 -0.0047 -0.6029
  101CHL1  H15A13679   0.258   5.036  13.018 -0.9070 -0.2866 -0.8854
  101CHL1  H15B13680   0.403   4.933  13.053 -0.2343 -0.2797 -0.4537
  101CHL1   C1613681   0.304   4.889  12.865 -0.5400 -0.2054  0.2680
  101CHL1  H16A13682   0.254   4.967  12.803  0.7902 -0.1711 -0.8072
  101CHL1  H16B13683   0.408   4.873  12.829 -0.4088 -1.0200  0.9936
  101CHL1   C1713684   0.224   4.756  12.845  0.5330  1.2049 -0.8862
  101CHL1   H1713685   0.295   4.673  12.868 -2.1537 -0.9886  0.1088
  101CHL1   C1313686   0.123   4.765  12.965 -0.6803 -0.0813  0.4482
  101CHL1   C1813687   0.018   4.867  12.930  0.5220  1.1733 -0.0379
  101CHL1  H18A13688   0.059   4.958  12.883 -0.7948  0.5684 -2.5277
  101CHL1  H18B13689  -0.051   4.820  12.856  1.5362 -2.8558  1.3047
  101CHL1  H18C13690  -0.050   4.899  13.013  0.6110  0.3336  0.3741
  101CHL1   C1213691   0.072   4.630  13.022  0.3521  0.2056 -0.2818
  101CHL1  H12A13692  -0.007   4.579  12.964 -0.4819 -0.1608  1.1107
  101CHL1  H12B13693   0.157   4.559  13.025 -0.1076 -0.3293  1.8202
  101CHL1   C1113694   0.001   4.652  13.159  0.7994 -0.4659  0.2986
  101CHL1  H11A13695  -0.088   4.718  13.148  1.0588 -0.1239  0.2116
  101CHL1  H11B13696  -0.049   4.563  13.201  0.5708 -0.2921  0.3942
  101CHL1    C913697   0.080   4.722  13.265 -0.7250 -0.3330  0.2593
  101CHL1    H913698   0.159   4.647  13.287  0.7784  1.3484  0.8664
  101CHL1   C1013699   0.009   4.737  13.406 -0.3816 -0.4634 -0.4926
  101CHL1   C1913700  -0.130   4.809  13.393 -0.3029 -0.7365 -1.0650
  101CHL1  H19A13701  -0.218   4.760  13.348 -1.8947  0.1442  0.9026
  101CHL1  H19B13702  -0.164   4.841  13.494 -0.6308  2.4110 -2.0486
  101CHL1  H19C13703  -0.112   4.906  13.342  0.9097  0.1494  0.9278
  101CHL1    C113704  -0.017   4.594  13.464  0.8619  0.9817  0.7516
  101CHL1   H1A13705  -0.101   4.550  13.406  0.6924 -0.6630  2.1528
  101CHL1   H1B13706   0.079   4.538  13.461  0.4352  0.0764  2.3404
  101CHL1    C213707  -0.064   4.593  13.608 -0.5165  0.8323  0.4987
  101CHL1   H2A13708  -0.093   4.492  13.644  1.2547 -1.0234 -2.7942
  101CHL1   H2B13709  -0.163   4.644  13.608 -1.0488 -0.1499  1.4469
  101CHL1   C2013710   0.165   4.735  12.710  0.4585 -0.2668 -0.5009
  101CHL1   H2013711   0.080   4.800  12.683 -0.1925 -0.8447  0.1323
  101CHL1   C2113712   0.117   4.593  12.700 -0.3226 -0.5817  0.8886
  101CHL1  H21A13713   0.092   4.563  12.596  0.7701  0.0754  0.4242
  101CHL1  H21B13714   0.013   4.586  12.739  0.0358  0.4199  2.0798
  101CHL1  H21C13715   0.188   4.519  12.743 -2.1174 -2.5678  0.5804
  101CHL1   C2213716   0.267   4.757  12.596  0.1794 -0.0079 -0.3713
  101CHL1  H22A13717   0.337   4.839  12.624  2.8511 -3.1448  3.0875
  101CHL1  H22B13718   0.326   4.664  12.585 -0.1155 -0.2379 -0.0085
  101CHL1   C2313719   0.200   4.782  12.457  0.2950 -0.6667 -0.1745
  101CHL1  H23A13720   0.112   4.715  12.443 -2.6212  2.9868 -1.1388
  101CHL1  H23B13721   0.153   4.881  12.477  2.0674 -0.2875  2.5922
  101CHL1   C2413722   0.290   4.775  12.339 -0.0398 -0.2789  0.8452
  101CHL1  H24A13723   0.386   4.824  12.366 -0.7676  0.2085  2.7401
  101CHL1  H24B13724   0.319   4.670  12.321 -0.2517 -0.1309 -0.4592
  101CHL1   C2513725   0.243   4.850  12.213 -0.0302  0.5186  0.6633
  101CHL1   H2513726   0.235   4.956  12.245  0.5356  0.7639  0.0141
  101CHL1   C2613727   0.349   4.845  12.101 -0.0174 -0.6708  0.1154
  101CHL1  H26A13728   0.447   4.877  12.144 -0.7476 -0.6047  1.8096
  101CHL1  H26B13729   0.365   4.746  12.051 -0.1391 -0.6708  0.0768
  101CHL1  H26C13730   0.337   4.924  12.024 -0.8415  0.2614  1.1803
  101CHL1   C2713731   0.105   4.801  12.162 -0.3835  0.1016  0.9904
  101CHL1  H27A13732   0.104   4.706  12.105  2.9017  1.8881 -2.4914
  101CHL1  H27B13733   0.019   4.803  12.233 -0.3464 -0.2099  1.0435
  101CHL1  H27C13734   0.077   4.878  12.086 -1.4246 -0.6832  0.5493
  102CHL1    C313735   5.871   5.367  13.479  0.2361 -0.5718 -0.5554
  102CHL1    H313736   5.893   5.472  13.450 -1.6455  0.1588  0.5158
  102CHL1    O313737   5.852   5.362  13.623  0.2350  0.2703  0.1170
  102CHL1   H3'13738   5.822   5.271  13.629  0.3057  0.2897  0.8053
  102CHL1    C413739   5.752   5.307  13.416 -0.4354  0.6396  0.0353
  102CHL1   H4A13740   5.744   5.204  13.458 -0.5630 -0.0487 -1.5910
  102CHL1   H4B13741   5.661   5.358  13.454  0.0251  0.8526  0.8854
  102CHL1    C513742   5.756   5.306  13.266 -0.3974 -0.4756 -0.2902
  102CHL1    C613743   5.659   5.363  13.196  0.1488  0.1091  0.1492
  102CHL1    H613744   5.578   5.415  13.249 -1.2665 -0.9254 -0.9034
  102CHL1    C713745   5.656   5.370  13.049  0.1555 -0.1567 -0.8512
  102CHL1   H7A13746   5.553   5.362  13.009  0.2570  1.9400 -1.6754
  102CHL1   H7B13747   5.690   5.471  13.016  3.5130 -0.1340  2.0062
  102CHL1    C813748   5.751   5.270  12.980 -0.2249  0.4144  0.1602
  102CHL1    H813749   5.701   5.171  12.985 -0.7917  0.6182 -1.0022
  102CHL1   C1413750   5.775   5.295  12.835  0.2988 -0.3091  0.6837
  102CHL1   H1413751   5.828   5.392  12.824  0.2629 -0.4887 -1.4463
  102CHL1   C1513752   5.644   5.318  12.754  0.2049 -0.4620 -0.8921
  102CHL1  H15A13753   5.558   5.257  12.788 -0.2310 -0.0567 -1.2529
  102CHL1  H15B13754   5.609   5.423  12.768 -0.7606 -0.8687 -0.1722
  102CHL1   C1613755   5.689   5.293  12.610  0.4001  0.2844 -0.6942
  102CHL1  H16A13756   5.618   5.218  12.570 -1.1129  0.3052  1.7195
  102CHL1  H16B13757   5.666   5.389  12.559  0.7877 -0.0320 -1.4694
  102CHL1   C1713758   5.843   5.263  12.615  0.4829 -0.1684  0.9437
  102CHL1   H1713759   5.905   5.354  12.601  0.1115 -0.2947 -1.9924
  102CHL1   C1313760   5.859   5.199  12.755 -0.1681 -0.2771 -0.2719
  102CHL1   C1813761   5.796   5.055  12.773  0.0686  0.1131  0.1098
  102CHL1  H18A13762   5.847   4.976  12.714 -1.6936  1.6583 -3.7950
  102CHL1  H18B13763   5.788   5.027  12.880  0.1492 -1.4797 -0.2840
  102CHL1  H18C13764   5.695   5.061  12.727  0.2151 -1.1319 -0.3930
  102CHL1   C1213765   5.996   5.214  12.821 -0.1780 -0.0282 -0.3644
  102CHL1  H12A13766   6.072   5.149  12.773 -0.1709 -0.9225  0.7916
  102CHL1  H12B13767   6.019   5.322  12.813 -0.2265 -0.0189 -0.3761
  102CHL1   C1113768   5.991   5.179  12.973 -0.5388  0.2272  0.3379
  102CHL1  H11A13769   5.986   5.070  12.994  0.6951  0.2037  0.5968
  102CHL1  H11B13770   6.089   5.211  13.015  0.0801 -1.6964  0.4747
  102CHL1    C913771   5.883   5.265  13.048  0.3143  0.1292 -0.2015
  102CHL1    H913772   5.915   5.370  13.039 -0.7734  0.6363  1.4034
  102CHL1   C1013773   5.886   5.239  13.207  0.2908  0.4490 -0.1403
  102CHL1   C1913774   5.885   5.083  13.227  0.3933 -0.1717  0.1195
  102CHL1  H19A13775   5.982   5.036  13.198  0.1819  1.2136 -3.3751
  102CHL1  H19B13776   5.865   5.072  13.335 -1.2999  3.7927  0.3816
  102CHL1  H19C13777   5.795   5.038  13.178 -0.0752 -0.1948  0.9870
  102CHL1    C113778   6.013   5.295  13.285  0.9372 -0.5731  0.7825
  102CHL1   H1A13779   6.102   5.237  13.253 -0.0623 -2.2371  0.8814
  102CHL1   H1B13780   6.015   5.404  13.262 -2.2221 -0.4397  0.5798
  102CHL1    C213781   6.005   5.292  13.439  0.4743 -0.3290  1.3034
  102CHL1   H2A13782   6.094   5.348  13.475 -0.4139  0.3999  2.4335
  102CHL1   H2B13783   6.011   5.190  13.481  1.4785 -1.2158 -0.8246
  102CHL1   C2013784   5.885   5.185  12.490 -0.1371  0.4276  0.2128
  102CHL1   H2013785   5.854   5.080  12.507 -1.1197  0.1859 -2.5850
  102CHL1   C2113786   6.042   5.178  12.480 -0.3082  0.9075  0.6747
  102CHL1  H21A13787   6.079   5.111  12.400 -0.3270  1.1208  0.4851
  102CHL1  H21B13788   6.079   5.140  12.577  1.5901  1.4118  0.1767
  102CHL1  H21C13789   6.091   5.276  12.461  1.5449 -0.5798 -3.0235
  102CHL1   C2213790   5.826   5.235  12.359  0.0977 -0.0313  0.1302
  102CHL1  H22A13791   5.715   5.227  12.362  0.1391 -1.6728 -1.1456
  102CHL1  H22B13792   5.860   5.341  12.352 -0.7269  0.2407  0.1519
  102CHL1   C2313793   5.872   5.155  12.228 -0.2283 -0.7925 -0.2598
  102CHL1  H23A13794   5.980   5.179  12.230 -0.0896 -1.4073  1.0636
  102CHL1  H23B13795   5.848   5.047  12.238 -0.1121 -0.7124  1.1833
  102CHL1   C2413796   5.800   5.209  12.101 -0.2509  0.1513  0.4715
  102CHL1  H24A13797   5.696   5.169  12.107 -0.7135  0.4941 -3.1526
  102CHL1  H24B13798   5.803   5.320  12.098 -1.4454  0.1898 -0.2764
  102CHL1   C2513799   5.863   5.169  11.967  0.5293 -0.5259  0.0930
  102CHL1   H2513800   5.863   5.058  11.955  1.1680 -0.5191 -0.0019
  102CHL1   C2613801   5.784   5.223  11.845  0.1551  0.1935 -0.8177
  102CHL1  H26A13802   5.677   5.193  11.855  0.1300  0.4267 -0.3144
  102CHL1  H26B13803   5.786   5.334  11.849 -1.7198  0.2462  0.1191
  102CHL1  H26C13804   5.828   5.176  11.755  1.5902 -0.2520  0.0935
  102CHL1   C2713805   6.008   5.219  11.957 -0.2966 -0.1887  0.2534
  102CHL1  H27A13806   6.061   5.181  11.867 -0.3907 -0.9675  0.5167
  102CHL1  H27B13807   6.004   5.328  11.937 -0.2160 -0.2679 -0.1968
  102CHL1  H27C13808   6.075   5.202  12.044 -1.1579  0.7009  1.1270
  103CHL1    C313809   6.200   4.139  13.550  0.6265 -0.4906  0.5388
  103CHL1    H313810   6.225   4.246  13.540 -1.2268  0.0129  0.9645
  103CHL1    O313811   6.205   4.094  13.682  0.0142 -0.8244  0.2819
  103CHL1   H3'13812   6.141   4.024  13.697  0.2451 -0.7850  1.5221
  103CHL1    C413813   6.059   4.116  13.490  0.4268  0.2358 -0.0455
  103CHL1   H4A13814   6.023   4.014  13.515  1.5277  0.2558  1.8413
  103CHL1   H4B13815   5.993   4.180  13.550  0.8024 -0.4242  1.1061
  103CHL1    C513816   6.054   4.139  13.340 -0.4491  0.2960  0.6523
  103CHL1    C613817   5.957   4.215  13.288 -0.3426  0.1407 -0.5537
  103CHL1    H613818   5.878   4.241  13.360  0.0036 -1.3261  0.3999
  103CHL1    C713819   5.930   4.243  13.144  0.4575 -0.3062 -0.6769
  103CHL1   H7A13820   5.830   4.209  13.110  0.8489 -2.0004 -0.2099
  103CHL1   H7B13821   5.937   4.353  13.127 -1.6507 -0.0852 -0.3606
  103CHL1    C813822   6.025   4.161  13.050 -0.1483 -0.0056  0.1291
  103CHL1    H813823   5.983   4.059  13.034 -2.5237  0.9927 -0.5642
  103CHL1   C1413824   6.039   4.219  12.915  0.5290  0.0765 -0.6061
  103CHL1   H1413825   6.104   4.308  12.926  0.6848 -0.1743  0.7291
  103CHL1   C1513826   5.908   4.266  12.844 -0.4010 -0.8583  0.2847
  103CHL1  H15A13827   5.833   4.184  12.848  0.6902 -1.8647  0.7716
  103CHL1  H15B13828   5.877   4.364  12.886 -1.1080 -1.5315  1.4121
  103CHL1   C1613829   5.956   4.287  12.699 -0.1322  0.7028  0.1405
  103CHL1  H16A13830   5.894   4.224  12.632 -0.0910  1.2933 -0.4579
  103CHL1  H16B13831   5.959   4.393  12.669  2.1005  0.9284  0.9467
  103CHL1   C1713832   6.099   4.236  12.688  0.1565 -0.2742 -0.2671
  103CHL1   H1713833   6.163   4.325  12.702  0.8376 -0.8515  0.3886
  103CHL1   C1313834   6.122   4.138  12.809 -0.2368 -0.3779 -0.2258
  103CHL1   C1813835   6.064   3.996  12.775  0.1991 -0.0596  0.1837
  103CHL1  H18A13836   5.963   4.007  12.729 -0.0973 -1.4036  0.4710
  103CHL1  H18B13837   6.128   3.947  12.698  0.4186 -0.4433  0.6048
  103CHL1  H18C13838   6.063   3.921  12.857  0.1382 -0.7008 -0.3926
  103CHL1   C1213839   6.265   4.125  12.867  0.2932  0.1352  0.0558
  103CHL1  H12A13840   6.322   4.051  12.807 -0.2051  0.0026 -0.2623
  103CHL1  H12B13841   6.309   4.227  12.858 -0.6011  0.5404  0.1231
  103CHL1   C1113842   6.268   4.081  13.020  0.2707  0.3196  0.2747
  103CHL1  H11A13843   6.243   3.973  13.018  0.5772  0.2611 -1.0598
  103CHL1  H11B13844   6.369   4.101  13.061  0.6334 -1.7730  0.5158
  103CHL1    C913845   6.162   4.145  13.114  0.4819  0.1526 -0.0485
  103CHL1    H913846   6.207   4.246  13.126  2.5484 -0.5592 -1.3048
  103CHL1   C1013847   6.159   4.081  13.258  0.0109 -0.7695 -0.0320
  103CHL1   C1913848   6.119   3.931  13.249  0.0521 -0.3448 -0.2693
  103CHL1  H19A13849   6.112   3.886  13.351  0.3820 -1.0485 -0.5475
  103CHL1  H19B13850   6.019   3.922  13.204 -0.9317  0.3503  1.6589
  103CHL1  H19C13851   6.189   3.866  13.192 -1.2068 -1.8593 -0.1566
  103CHL1    C113852   6.296   4.100  13.321 -0.0146  0.0274 -0.0661
  103CHL1   H1A13853   6.358   4.029  13.263 -0.4353 -0.4021  0.0049
  103CHL1   H1B13854   6.333   4.202  13.298 -0.8589  0.5206  0.6972
  103CHL1    C213855   6.303   4.063  13.469 -0.8518  0.3485  0.1445
  103CHL1   H2A13856   6.405   4.080  13.509 -0.0454  0.9989 -2.0703
  103CHL1   H2B13857   6.275   3.957  13.481 -0.9757  0.3980  0.3043
  103CHL1   C2013858   6.135   4.187  12.551  0.0609 -0.3702  0.5410
  103CHL1   H2013859   6.096   4.086  12.529  2.4790 -1.0571 -1.0234
  103CHL1   C2113860   6.281   4.156  12.553 -0.0096 -0.2996  0.4114
  103CHL1  H21A13861   6.304   4.073  12.623 -3.9210 -1.8879  0.0445
  103CHL1  H21B13862   6.335   4.251  12.576 -0.0006 -0.0593 -0.5681
  103CHL1  H21C13863   6.316   4.111  12.458  1.8436 -1.3218  1.5105
  103CHL1   C2213864   6.110   4.284  12.430  0.2249 -0.1877 -0.1827
  103CHL1  H22A13865   6.010   4.333  12.441  1.3652  3.6001 -3.9912
  103CHL1  H22B13866   6.185   4.366  12.429  0.2669 -0.2328 -0.7474
  103CHL1   C2313867   6.115   4.230  12.294 -0.5530  0.3546  0.6391
  103CHL1  H23A13868   6.209   4.172  12.278 -2.0386 -3.4417  3.9678
  103CHL1  H23B13869   6.022   4.169  12.288 -0.8996  0.8308  1.0920
  103CHL1   C2413870   6.093   4.338  12.185  0.0886 -0.4051  0.0479
  103CHL1  H24A13871   5.989   4.376  12.192  0.3628 -0.0008  2.9634
  103CHL1  H24B13872   6.163   4.423  12.201 -0.3968 -0.4308  2.7894
  103CHL1   C2513873   6.110   4.280  12.046 -0.5541  0.5132 -0.3920
  103CHL1   H2513874   6.050   4.187  12.036  1.4481 -0.5707 -4.4889
  103CHL1   C2613875   6.059   4.373  11.943  0.0421  0.2825  0.0901
  103CHL1  H26A13876   6.047   4.327  11.843 -1.1041 -1.3784  0.9562
  103CHL1  H26B13877   5.953   4.398  11.963  0.3618  1.0160  0.9596
  103CHL1  H26C13878   6.127   4.461  11.938  1.9940 -1.2094 -0.9979
  103CHL1   C2713879   6.262   4.249  12.025 -0.4196  0.0904 -0.6544
  103CHL1  H27A13880   6.276   4.215  11.920  3.0377  2.8084 -1.2680
  103CHL1  H27B13881   6.326   4.338  12.042  0.0348 -0.0799 -1.4331
  103CHL1  H27C13882   6.304   4.168  12.087  1.1930  1.6487  0.3701
  104CHL1    C313883   2.581   5.048  13.427 -0.0530  0.1922 -0.0395
  104CHL1    H313884   2.483   5.013  13.467  0.0714  0.7256  0.7430
  104CHL1    O313885   2.666   5.068  13.534 -0.2801  0.1717 -0.3656
  104CHL1   H3'13886   2.656   5.159  13.564  2.9713  0.9565 -1.2008
  104CHL1    C413887   2.647   4.942  13.341  0.7614  0.6250 -0.4167
  104CHL1   H4A13888   2.748   4.981  13.319  0.0793  1.0436 -3.3188
  104CHL1   H4B13889   2.651   4.850  13.403 -0.3553  0.6377 -0.3025
  104CHL1    C513890   2.581   4.923  13.205  0.3214  0.2619 -0.3451
  104CHL1    C613891   2.544   4.802  13.166 -0.3375  0.0700  0.4819
  104CHL1    H613892   2.570   4.714  13.226 -0.0105  0.1149  0.4086
  104CHL1    C713893   2.474   4.782  13.039 -0.3658 -0.7568  0.5019
  104CHL1   H7A13894   2.505   4.686  12.992 -1.1683 -0.2721 -1.0877
  104CHL1   H7B13895   2.365   4.779  13.062 -0.7296 -3.0595 -1.0506
  104CHL1    C813896   2.478   4.896  12.936 -0.0616 -0.8617 -0.1841
  104CHL1    H813897   2.582   4.895  12.897  0.7158  4.6274  1.0277
  104CHL1   C1413898   2.370   4.884  12.829  0.6508  0.1445  0.3924
  104CHL1   H1413899   2.275   4.917  12.876 -0.2109  1.3983 -2.0633
  104CHL1   C1513900   2.340   4.752  12.760 -0.2617  0.0320  0.5917
  104CHL1  H15A13901   2.425   4.684  12.738 -0.5135  0.2167 -1.0604
  104CHL1  H15B13902   2.277   4.687  12.825 -2.3896  2.2293  0.8742
  104CHL1   C1613903   2.270   4.778  12.629 -0.7433  0.6431 -0.2569
  104CHL1  H16A13904   2.329   4.739  12.543  2.6823  1.2565  1.6121
  104CHL1  H16B13905   2.165   4.741  12.632  0.0072 -1.7428 -0.7347
  104CHL1   C1713906   2.283   4.936  12.615  0.4287 -1.2319 -0.1959
  104CHL1   H1713907   2.188   4.974  12.659  0.8914 -1.6558  1.2224
  104CHL1   C1313908   2.388   4.981  12.716  0.2660 -0.1704  0.7990
  104CHL1   C1813909   2.532   4.961  12.648  0.0671  0.9343 -0.1384
  104CHL1  H18A13910   2.546   5.025  12.558  2.1810  2.4371  1.1934
  104CHL1  H18B13911   2.611   4.994  12.719  0.9151  0.3960 -0.8130
  104CHL1  H18C13912   2.538   4.852  12.624 -0.3717  0.1522  2.8911
  104CHL1   C1213913   2.373   5.124  12.776 -0.6850 -0.1399 -1.2042
  104CHL1  H12A13914   2.396   5.202  12.701 -0.3282 -0.5329 -1.5117
  104CHL1  H12B13915   2.267   5.139  12.806  0.0759  0.4277  1.4134
  104CHL1   C1113916   2.460   5.152  12.900  0.6454 -0.5327 -0.1377
  104CHL1  H11A13917   2.558   5.180  12.857  0.2441 -2.0113 -2.1695
  104CHL1  H11B13918   2.423   5.242  12.954  1.0385 -0.9863  0.9255
  104CHL1    C913919   2.468   5.033  13.004  0.2402 -0.6825  0.7896
  104CHL1    H913920   2.367   5.038  13.049  0.1104 -0.0279  0.4429
  104CHL1   C1013921   2.560   5.052  13.126  0.0684 -0.5405 -0.5441
  104CHL1   C1913922   2.697   5.106  13.074  0.0882  0.0705 -0.2595
  104CHL1  H19A13923   2.775   5.101  13.153 -0.4673  1.5506  0.4107
  104CHL1  H19B13924   2.727   5.030  12.997 -0.2018  0.9259 -1.2364
  104CHL1  H19C13925   2.687   5.212  13.044  0.0060  0.6110  1.5872
  104CHL1    C113926   2.491   5.156  13.223 -0.3656 -0.1092  0.4468
  104CHL1   H1A13927   2.479   5.255  13.174  1.0688  1.3710  2.8659
  104CHL1   H1B13928   2.393   5.110  13.250 -0.2248  0.0944  1.3416
  104CHL1    C213929   2.562   5.179  13.352  0.1675 -0.2548 -0.3635
  104CHL1   H2A13930   2.507   5.259  13.407  1.1356  2.2960 -2.8285
  104CHL1   H2B13931   2.666   5.207  13.327  1.4969 -2.0722  2.6209
  104CHL1   C2013932   2.289   4.988  12.473  0.0752  0.4363  0.2456
  104CHL1   H2013933   2.387   4.955  12.432  0.1441  2.8225 -1.6620
  104CHL1   C2113934   2.285   5.144  12.463  0.1259 -0.5913  0.1934
  104CHL1  H21A13935   2.385   5.184  12.490 -0.0830  0.9308 -1.1205
  104CHL1  H21B13936   2.208   5.187  12.532 -1.8883  0.2465 -2.4057
  104CHL1  H21C13937   2.257   5.168  12.358 -2.5216  1.0050  1.1395
  104CHL1   C2213938   2.184   4.923  12.375  0.2089 -0.1596 -0.1076
  104CHL1  H22A13939   2.153   4.821  12.407 -0.2907 -0.3463 -1.1756
  104CHL1  H22B13940   2.091   4.981  12.393 -0.4704 -0.6735 -1.7931
  104CHL1   C2313941   2.219   4.930  12.226  0.3896  0.0549  0.6639
  104CHL1  H23A13942   2.220   5.036  12.192  2.1801 -0.1926 -0.1600
  104CHL1  H23B13943   2.325   4.905  12.206  0.1601 -0.6795  0.3562
  104CHL1   C2413944   2.135   4.844  12.139  0.6817  0.1801 -0.2932
  104CHL1  H24A13945   2.135   4.742  12.185 -1.2660  0.3896  0.2879
  104CHL1  H24B13946   2.029   4.876  12.154  0.6394 -0.3174  0.5617
  104CHL1   C2513947   2.175   4.845  11.984 -0.3508  0.0301 -0.2408
  104CHL1   H2513948   2.274   4.794  11.976  0.2615  1.1354  0.0197
  104CHL1   C2613949   2.069   4.774  11.904 -0.6515 -0.1402  0.3256
  104CHL1  H26A13950   2.048   4.674  11.947 -0.4900  0.0465  0.8524
  104CHL1  H26B13951   1.979   4.838  11.890  0.0133  0.6850 -0.2757
  104CHL1  H26C13952   2.114   4.772  11.803  0.0599  2.2820  0.5200
  104CHL1   C2713953   2.215   4.982  11.929  0.5787  0.0375  0.5839
  104CHL1  H27A13954   2.214   4.976  11.818 -0.6462 -0.7095  0.6170
  104CHL1  H27B13955   2.137   5.057  11.955 -0.9825 -1.4453  0.3794
  104CHL1  H27C13956   2.313   5.021  11.964  1.4314 -1.3898 -0.1273
  105CHL1    C313957   1.976   5.008  13.350  1.0565  0.0881  0.7813
  105CHL1    H313958   1.984   5.118  13.340 -0.3115  0.1910  0.6242
  105CHL1    O313959   1.995   4.968  13.481  0.3590  0.4952  0.4331
  105CHL1   H3'13960   1.965   4.877  13.474  2.9570 -0.4457  0.2524
  105CHL1    C413961   1.823   4.968  13.312 -0.1389 -0.3533 -0.0251
  105CHL1   H4A13962   1.802   4.861  13.334 -0.3936 -1.0436 -3.1311
  105CHL1   H4B13963   1.762   5.018  13.390 -0.5343 -1.1068  0.1557
  105CHL1    C513964   1.790   4.993  13.164  0.5928 -0.6327  0.2100
  105CHL1    C613965   1.683   5.058  13.126  1.0658 -0.8824  0.5676
  105CHL1    H613966   1.613   5.093  13.204  0.6949  0.3982 -0.3047
  105CHL1    C713967   1.640   5.079  12.983 -0.1341 -0.1685 -0.2974
  105CHL1   H7A13968   1.529   5.090  12.984 -0.1039  0.1710 -0.4726
  105CHL1   H7B13969   1.675   5.180  12.953 -0.9141  0.6970  1.4990
  105CHL1    C813970   1.705   4.975  12.890 -0.2755  0.7289  0.2921
  105CHL1    H813971   1.650   4.882  12.912 -0.8504  1.2840  1.2625
  105CHL1   C1413972   1.690   5.016  12.745 -0.1365  0.5157 -0.2789
  105CHL1   H1413973   1.757   5.102  12.727  1.5931 -0.6462  0.2978
  105CHL1   C1513974   1.553   5.059  12.698  0.6150 -0.2263  0.7608
  105CHL1  H15A13975   1.474   4.987  12.728 -0.4042 -0.2640 -1.8021
  105CHL1  H15B13976   1.517   5.159  12.733  0.7954  0.3075 -0.5329
  105CHL1   C1613977   1.563   5.042  12.547 -0.0063 -0.3319  0.8951
  105CHL1  H16A13978   1.477   4.975  12.527  0.2918 -0.7819  1.0987
  105CHL1  H16B13979   1.552   5.136  12.490 -0.7605 -1.1947 -0.4487
  105CHL1   C1713980   1.703   4.974  12.516  0.3789  0.3377  0.4078
  105CHL1   H1713981   1.772   5.058  12.495  0.8361  0.9253  3.6170
  105CHL1   C1313982   1.744   4.909  12.645 -0.4151 -0.6785 -0.1086
  105CHL1   C1813983   1.678   4.773  12.668  0.5478 -0.2444 -0.3635
  105CHL1  H18A13984   1.569   4.773  12.643  1.2084 -0.0719 -3.7996
  105CHL1  H18B13985   1.727   4.694  12.608  3.5530 -0.2104  1.8197
  105CHL1  H18C13986   1.682   4.741  12.774 -2.3776 -0.6503 -0.2970
  105CHL1   C1213987   1.897   4.902  12.674  0.8238  0.9019 -0.5817
  105CHL1  H12A13988   1.941   4.827  12.604  0.2986  0.1718 -0.1448
  105CHL1  H12B13989   1.943   5.001  12.655  3.5759  0.2638  1.8986
  105CHL1   C1113990   1.938   4.873  12.823  0.2939  0.0153 -0.0184
  105CHL1  H11A13991   1.935   4.763  12.834  2.2671  0.1410  2.5700
  105CHL1  H11B13992   2.047   4.895  12.832  0.5262 -0.8598 -0.5989
  105CHL1    C913993   1.856   4.962  12.918 -0.8543  0.2174 -0.2322
  105CHL1    H913994   1.901   5.059  12.889 -0.1368 -0.2771 -0.7839
  105CHL1   C1013995   1.886   4.920  13.067 -0.3033  0.0305 -0.2540
  105CHL1   C1913996   1.871   4.767  13.071 -0.3246 -0.4155  0.0718
  105CHL1  H19A13997   1.934   4.699  13.009  2.1077  2.7563 -1.1805
  105CHL1  H19B13998   1.897   4.727  13.172  0.9979 -2.8795 -1.1672
  105CHL1  H19C13999   1.760   4.758  13.060 -0.5527  2.0149  0.0333
  105CHL1    C114000   2.027   4.964  13.108 -0.0365 -0.3379  0.2252
  105CHL1   H1A14001   2.099   4.901  13.051 -1.2666 -2.0910  0.5187
  105CHL1   H1B14002   2.035   5.073  13.086  1.0173 -0.5161 -0.3533
  105CHL1    C214003   2.065   4.934  13.254 -0.2539 -0.0449  0.1675
  105CHL1   H2A14004   2.168   4.973  13.268 -0.4618  0.6927 -0.2899
  105CHL1   H2B14005   2.042   4.827  13.275 -2.8948  0.1162 -1.4807
  105CHL1   C2014006   1.688   4.884  12.395 -0.4146 -0.6589 -0.2893
  105CHL1   H2014007   1.611   4.809  12.421 -2.1509  1.6790  1.7900
  105CHL1   C2114008   1.811   4.809  12.352  0.1954  0.9534 -0.6586
  105CHL1  H21A14009   1.896   4.873  12.322  2.7351 -2.0907 -0.4918
  105CHL1  H21B14010   1.788   4.738  12.270 -0.4199 -2.5046  2.2382
  105CHL1  H21C14011   1.847   4.744  12.435 -3.3062  0.8207  0.9475
  105CHL1   C2214012   1.642   4.958  12.272  0.2093  0.4668  0.1241
  105CHL1  H22A14013   1.610   5.061  12.302 -1.3777  0.5302 -1.5594
  105CHL1  H22B14014   1.725   4.963  12.199 -0.1157  0.9659 -0.2203
  105CHL1   C2314015   1.530   4.886  12.195  0.0524  0.1330 -0.3812
  105CHL1  H23A14016   1.558   4.779  12.188  0.2853  0.0547  1.2329
  105CHL1  H23B14017   1.438   4.891  12.257  0.3067  0.9079 -0.0451
  105CHL1   C2414018   1.503   4.952  12.062 -0.2988 -0.7430 -0.0341
  105CHL1  H24A14019   1.455   5.052  12.077 -0.6803 -0.6234 -1.8087
  105CHL1  H24B14020   1.596   4.977  12.007  0.7212 -1.8172  1.1623
  105CHL1   C2514021   1.398   4.875  11.987 -0.2626  0.2573 -0.6079
  105CHL1   H2514022   1.309   4.864  12.053  0.5155  2.0609  0.8223
  105CHL1   C2614023   1.358   4.960  11.863  1.4066 -0.0074 -0.4512
  105CHL1  H26A14024   1.260   4.923  11.826  1.0202  1.3285 -0.8175
  105CHL1  H26B14025   1.341   5.065  11.895  0.8298  0.1905 -1.3685
  105CHL1  H26C14026   1.431   4.957  11.780  0.3909 -2.1381 -1.3504
  105CHL1   C2714027   1.453   4.740  11.947  0.5496 -0.4902  0.6157
  105CHL1  H27A14028   1.510   4.763  11.854  0.7313 -0.1816  0.8053
  105CHL1  H27B14029   1.512   4.682  12.021  0.9903  0.6923  1.2127
  105CHL1  H27C14030   1.367   4.686  11.899  1.1990 -0.3925 -0.7135
  106CHL1    C314031   6.053   3.534  13.385  0.1991 -0.0291  0.2450
  106CHL1    H314032   6.143   3.591  13.354  0.2295  1.1827  2.3546
  106CHL1    O314033   6.025   3.560  13.518 -0.2570 -0.3149 -0.3038
  106CHL1   H3'14034   5.938   3.520  13.526  0.0464 -0.6980  1.3347
  106CHL1    C414035   5.923   3.567  13.309  0.0609 -0.0278  0.5442
  106CHL1   H4A14036   5.845   3.492  13.336  0.3204  0.2672  2.1692
  106CHL1   H4B14037   5.882   3.664  13.343 -0.7239 -0.5974  1.2781
  106CHL1    C514038   5.949   3.557  13.157  0.3212  0.1766  0.6614
  106CHL1    C614039   5.944   3.661  13.076 -0.5446 -0.1674 -0.3683
  106CHL1    H614040   5.913   3.761  13.111 -0.2663 -0.3800  0.5156
  106CHL1    C714041   5.970   3.653  12.929 -0.0793 -0.0520 -0.7185
  106CHL1   H7A14042   5.901   3.711  12.864  0.0189  0.2091 -0.5915
  106CHL1   H7B14043   6.072   3.698  12.928  1.2625 -2.7291  1.1391
  106CHL1    C814044   5.981   3.505  12.881 -0.3027 -0.4962  0.1017
  106CHL1    H814045   5.884   3.453  12.868 -0.3439 -0.5382  0.5399
  106CHL1   C1414046   6.057   3.498  12.744  0.3680 -0.0471  0.0985
  106CHL1   H1414047   6.158   3.532  12.775 -0.0420  1.2889  0.0013
  106CHL1   C1514048   6.018   3.601  12.643  0.6389  0.7994  0.0082
  106CHL1  H15A14049   5.907   3.606  12.632  0.5979 -1.8084 -1.7319
  106CHL1  H15B14050   6.050   3.706  12.660 -1.4528  1.5514 -0.3977
  106CHL1   C1614051   6.068   3.540  12.512 -0.0511 -0.3658  0.4457
  106CHL1  H16A14052   5.982   3.522  12.443  0.9289  2.7745 -1.8831
  106CHL1  H16B14053   6.131   3.607  12.449 -1.9740  1.1012 -0.0400
  106CHL1   C1714054   6.144   3.412  12.548  0.6599  0.0637  0.8168
  106CHL1   H1714055   6.245   3.451  12.575  1.2981 -0.7874 -0.2652
  106CHL1   C1314056   6.079   3.359  12.678 -0.5642  1.1721  0.2021
  106CHL1   C1814057   5.949   3.289  12.642 -0.1224  0.0337 -0.2562
  106CHL1  H18A14058   5.893   3.276  12.737 -0.0280  1.5683  0.0244
  106CHL1  H18B14059   5.883   3.353  12.579 -1.3883 -0.6949  0.2875
  106CHL1  H18C14060   5.965   3.186  12.601  0.2174 -0.0541  0.0951
  106CHL1   C1214061   6.161   3.285  12.781  0.3868 -0.2780  0.2143
  106CHL1  H12A14062   6.173   3.178  12.755 -0.8282 -0.7802  1.5801
  106CHL1  H12B14063   6.262   3.330  12.793  0.1716 -0.0633  1.3066
  106CHL1   C1114064   6.093   3.278  12.924  0.3042  0.0086 -0.5694
  106CHL1  H11A14065   5.995   3.226  12.918 -0.7131  1.8448 -0.5701
  106CHL1  H11B14066   6.161   3.223  12.993 -0.3060  0.6665  0.5800
  106CHL1    C914067   6.064   3.419  12.975 -0.8255 -0.0984  0.7042
  106CHL1    H914068   6.165   3.463  12.985 -0.4254  0.3093 -3.4030
  106CHL1   C1014069   6.002   3.419  13.121 -0.1809  0.0892  0.0459
  106CHL1   C1914070   5.886   3.311  13.130  0.6173  0.9407 -0.3383
  106CHL1  H19A14071   5.839   3.322  13.231 -0.0993  1.1332 -0.6835
  106CHL1  H19B14072   5.811   3.329  13.050 -0.3407  2.2420  0.8053
  106CHL1  H19C14073   5.922   3.207  13.114 -2.1363  0.2985 -3.4693
  106CHL1    C114074   6.119   3.375  13.213  0.8170 -0.2186 -0.6400
  106CHL1   H1A14075   6.136   3.266  13.198  0.5696 -0.5441  1.1715
  106CHL1   H1B14076   6.204   3.442  13.189  1.7168 -0.9783  0.3156
  106CHL1    C214077   6.080   3.386  13.363 -0.0833 -0.0955 -0.1092
  106CHL1   H2A14078   6.157   3.361  13.440  1.4060  2.5699 -0.6206
  106CHL1   H2B14079   5.996   3.321  13.397 -0.7486  1.4005  1.2367
  106CHL1   C2014080   6.170   3.309  12.431 -0.3712  0.5701 -0.0133
  106CHL1   H2014081   6.082   3.241  12.424 -1.2788  1.7326 -0.0901
  106CHL1   C2114082   6.302   3.231  12.457  0.8051  0.2021  0.4602
  106CHL1  H21A14083   6.313   3.131  12.408 -0.3920 -0.1737  0.9249
  106CHL1  H21B14084   6.317   3.208  12.564  1.7995 -1.0463  0.0834
  106CHL1  H21C14085   6.389   3.292  12.423  0.4640  1.1095  1.1896
  106CHL1   C2214086   6.186   3.372  12.288  0.1854 -0.2503  0.0642
  106CHL1  H22A14087   6.100   3.441  12.269  1.8030  1.4306 -1.5282
  106CHL1  H22B14088   6.274   3.439  12.284 -0.0044  0.1380  1.7375
  106CHL1   C2314089   6.191   3.278  12.162  0.1494  0.2733  0.1485
  106CHL1  H23A14090   6.242   3.182  12.184 -0.1922  0.4247  1.7188
  106CHL1  H23B14091   6.087   3.246  12.138 -0.0105  0.2629  0.8449
  106CHL1   C2414092   6.270   3.337  12.044 -0.4885  0.1086 -0.0537
  106CHL1  H24A14093   6.377   3.342  12.073 -0.8729 -0.6343  1.5409
  106CHL1  H24B14094   6.260   3.262  11.963 -0.4237 -0.0454  0.0821
  106CHL1   C2514095   6.223   3.477  11.990 -0.3550 -0.1527 -0.0678
  106CHL1   H2514096   6.236   3.558  12.065  1.0281 -0.2926 -0.1234
  106CHL1   C2614097   6.308   3.525  11.870 -0.0492  0.0651 -0.2305
  106CHL1  H26A14098   6.415   3.509  11.896  0.6605  0.9152 -2.3754
  106CHL1  H26B14099   6.298   3.469  11.775  1.1696 -1.2257  0.3745
  106CHL1  H26C14100   6.311   3.635  11.854  1.5238  0.5508  2.8074
  106CHL1   C2714101   6.086   3.465  11.939  0.1500 -0.2100  0.7028
  106CHL1  H27A14102   6.070   3.386  11.863 -2.2549 -0.3409  1.2561
  106CHL1  H27B14103   6.013   3.450  12.021  0.2775 -0.5383  0.7541
  106CHL1  H27C14104   6.052   3.552  11.878 -0.7762 -0.7225  0.4648
  107CHL1    C314105   1.941   1.370  12.806 -0.5003  0.4568  0.0086
  107CHL1    H314106   2.041   1.385  12.759  0.0715 -2.0171  0.3241
  107CHL1    O314107   1.964   1.354  12.944  0.1278  0.3358 -0.8376
  107CHL1   H3'14108   1.882   1.385  12.982  0.9817  1.1547  0.4103
  107CHL1    C414109   1.857   1.498  12.779 -0.3942  0.1184 -0.0045
  107CHL1   H4A14110   1.754   1.484  12.819 -1.4076  1.0950 -2.1059
  107CHL1   H4B14111   1.891   1.586  12.837  0.0853 -0.3986  0.5113
  107CHL1    C514112   1.861   1.521  12.630  0.3243  0.0431 -0.2944
  107CHL1    C614113   1.926   1.626  12.591  0.8624 -0.1583  0.0517
  107CHL1    H614114   1.967   1.699  12.662 -2.5378 -0.0389  2.1437
  107CHL1    C714115   1.928   1.661  12.446 -0.3346  0.0012 -0.0491
  107CHL1   H7A14116   1.915   1.770  12.428  0.0062  0.1593  0.6120
  107CHL1   H7B14117   2.029   1.642  12.403 -0.0372  0.0144  0.6304
  107CHL1    C814118   1.840   1.572  12.356  0.6283  0.2151  0.2267
  107CHL1    H814119   1.738   1.617  12.364  1.1526  1.5444 -0.1970
  107CHL1   C1414120   1.889   1.580  12.206  0.0136  0.1815 -0.3233
  107CHL1   H1414121   1.990   1.536  12.198  0.9768  2.4562 -1.4108
  107CHL1   C1514122   1.895   1.720  12.146  0.1478  0.4332  0.1725
  107CHL1  H15A14123   1.817   1.790  12.184 -0.8837 -0.5397 -0.0881
  107CHL1  H15B14124   1.991   1.769  12.170  1.7027 -2.2838 -0.0327
  107CHL1   C1614125   1.872   1.689  11.995  0.6220  0.0120  0.0878
  107CHL1  H16A14126   1.777   1.742  11.971  0.1127 -0.2372  1.4647
  107CHL1  H16B14127   1.955   1.722  11.929 -2.1042 -0.3080 -3.9345
  107CHL1   C1714128   1.853   1.541  11.975 -0.9027  0.6941 -0.2737
  107CHL1   H1714129   1.953   1.493  11.967 -0.7879  1.1019 -1.4439
  107CHL1   C1314130   1.799   1.494  12.111  0.6665 -0.1569 -0.2619
  107CHL1   C1814131   1.647   1.549  12.127 -0.0264 -0.0549 -0.0978
  107CHL1  H18A14132   1.607   1.537  12.230 -0.5144 -0.1621 -0.2947
  107CHL1  H18B14133   1.636   1.656  12.099 -0.5943  0.0443  0.4720
  107CHL1  H18C14134   1.587   1.480  12.063  0.8922  0.3897 -1.4694
  107CHL1   C1214135   1.803   1.347  12.147  0.2499 -0.5469  0.0256
  107CHL1  H12A14136   1.729   1.291  12.085  0.3917 -0.4342 -0.2486
  107CHL1  H12B14137   1.902   1.303  12.125  1.6132  2.0082  0.6968
  107CHL1   C1114138   1.772   1.330  12.298 -0.6079 -0.3684 -0.6386
  107CHL1  H11A14139   1.664   1.351  12.317 -0.4063 -1.8058  2.7729
  107CHL1  H11B14140   1.788   1.229  12.340 -0.4819 -0.4256 -0.8227
  107CHL1    C914141   1.854   1.429  12.393  0.3594 -0.1955  0.7381
  107CHL1    H914142   1.960   1.396  12.383  0.5096  0.7303 -1.1196
  107CHL1   C1014143   1.809   1.402  12.542  0.2896  0.3808  0.4380
  107CHL1   C1914144   1.654   1.418  12.562 -1.1704 -0.5491  0.5182
  107CHL1  H19A14145   1.624   1.404  12.668 -1.0572 -2.2306  0.3628
  107CHL1  H19B14146   1.613   1.515  12.527  0.7083 -0.0828 -0.5055
  107CHL1  H19C14147   1.603   1.340  12.501  0.3105  0.7311 -2.6086
  107CHL1    C114148   1.854   1.261  12.589 -0.1369 -0.1672  0.5882
  107CHL1   H1A14149   1.766   1.196  12.568  1.0533 -2.0587  1.1931
  107CHL1   H1B14150   1.947   1.230  12.537  0.2235  0.4555  0.8546
  107CHL1    C214151   1.867   1.244  12.743 -0.1869 -1.2292 -0.0720
  107CHL1   H2A14152   1.926   1.152  12.763 -0.4646 -1.8099 -1.7599
  107CHL1   H2B14153   1.772   1.232  12.799 -0.4809 -0.6088 -0.4202
  107CHL1   C2014154   1.767   1.505  11.846 -0.0814 -0.3337 -0.4547
  107CHL1   H2014155   1.660   1.499  11.876 -0.1810 -3.5016 -1.0945
  107CHL1   C2114156   1.795   1.363  11.797  0.1730  0.8198 -0.2231
  107CHL1  H21A14157   1.723   1.331  11.719  0.1916 -0.6344  0.3296
  107CHL1  H21B14158   1.789   1.278  11.868  0.2880  1.0754  0.0967
  107CHL1  H21C14159   1.900   1.344  11.763  0.2952 -0.7676  0.9195
  107CHL1   C2214160   1.764   1.607  11.727 -0.3207 -0.8564 -0.6996
  107CHL1  H22A14161   1.706   1.573  11.639 -3.5026  1.7667  0.1822
  107CHL1  H22B14162   1.708   1.695  11.766  0.2342 -1.6599  2.2052
  107CHL1   C2314163   1.905   1.649  11.668 -0.2641  0.7811 -0.2769
  107CHL1  H23A14164   1.980   1.661  11.749  0.0922  1.4277 -0.6865
  107CHL1  H23B14165   1.935   1.565  11.601 -1.3621 -0.3428  0.6048
  107CHL1   C2414166   1.889   1.776  11.584  0.3998  0.6611  0.4714
  107CHL1  H24A14167   1.821   1.757  11.498  0.8853 -0.1627  0.2469
  107CHL1  H24B14168   1.846   1.849  11.655 -1.6770  0.0412 -0.0934
  107CHL1   C2514169   2.025   1.828  11.534 -0.6215 -0.9644  0.0580
  107CHL1   H2514170   2.074   1.738  11.492  1.8564  0.0912  0.5311
  107CHL1   C2614171   1.991   1.924  11.417 -0.5948 -0.4893  0.4766
  107CHL1  H26A14172   1.946   2.020  11.452  2.2433  1.3111 -0.4466
  107CHL1  H26B14173   2.078   1.940  11.350  0.9101  0.6545  2.5774
  107CHL1  H26C14174   1.914   1.882  11.349  0.4031 -2.5693  0.5633
  107CHL1   C2714175   2.112   1.910  11.639  0.0148  0.3987  0.2880
  107CHL1  H27A14176   2.118   1.851  11.733  1.8922  0.0362 -0.0175
  107CHL1  H27B14177   2.217   1.930  11.608 -0.0579  2.6024  1.3054
  107CHL1  H27C14178   2.071   2.011  11.657 -2.1064 -0.1785 -0.9172
  108CHL1    C314179   1.636   4.334  13.546  0.1117 -0.8652  0.1344
  108CHL1    H314180   1.740   4.303  13.521 -0.2756 -2.1316  0.0242
  108CHL1    O314181   1.620   4.368  13.685 -0.4514 -0.3257 -0.2236
  108CHL1   H3'14182   1.558   4.442  13.680 -0.0214 -0.0224 -1.5836
  108CHL1    C414183   1.601   4.459  13.466  0.2882 -0.1546  0.4347
  108CHL1   H4A14184   1.499   4.491  13.496  0.5517 -0.3404  1.5638
  108CHL1   H4B14185   1.680   4.534  13.487  2.1786 -1.7506 -0.6687
  108CHL1    C514186   1.605   4.423  13.314  0.4017 -0.4394 -0.2307
  108CHL1    C614187   1.676   4.490  13.220 -0.6860 -0.4340 -0.3456
  108CHL1    H614188   1.733   4.572  13.267 -1.7682 -0.0834  0.4026
  108CHL1    C714189   1.679   4.482  13.069  0.3287 -0.3437 -0.2207
  108CHL1   H7A14190   1.661   4.585  13.029  0.9019  0.8390  2.3559
  108CHL1   H7B14191   1.773   4.449  13.020  0.4842  1.4595 -1.2344
  108CHL1    C814192   1.572   4.378  13.030 -0.1765  0.2233  0.6027
  108CHL1    H814193   1.478   4.436  13.015 -0.2617 -0.1177 -0.3044
  108CHL1   C1414194   1.609   4.322  12.893 -1.0645  0.5084  0.4150
  108CHL1   H1414195   1.697   4.255  12.908 -1.0854  0.7413  1.7121
  108CHL1   C1514196   1.657   4.428  12.782  0.1953  0.1457 -0.1718
  108CHL1  H15A14197   1.592   4.517  12.782  0.7062  0.5338 -1.1527
  108CHL1  H15B14198   1.760   4.466  12.798  0.3714 -0.6849  0.8035
  108CHL1   C1614199   1.640   4.355  12.649 -0.3224  0.3034 -0.0758
  108CHL1  H16A14200   1.568   4.400  12.578  1.0721  1.6762 -0.6914
  108CHL1  H16B14201   1.740   4.333  12.605  0.7122 -0.5662  2.5519
  108CHL1   C1714202   1.585   4.210  12.685  0.2846 -0.6286 -0.1529
  108CHL1   H1714203   1.677   4.154  12.710  0.4709 -0.2711 -0.0344
  108CHL1   C1314204   1.510   4.237  12.823  0.6239  0.1343  0.0212
  108CHL1   C1814205   1.370   4.310  12.788 -0.4819  0.7546  0.0340
  108CHL1  H18A14206   1.389   4.406  12.736 -0.0783  0.0870 -1.0887
  108CHL1  H18B14207   1.302   4.242  12.732  1.0994 -0.9648  0.1029
  108CHL1  H18C14208   1.327   4.335  12.887  0.5890  1.0696  0.4292
  108CHL1   C1214209   1.480   4.115  12.913 -0.6853 -0.1277  0.5774
  108CHL1  H12A14210   1.389   4.058  12.884 -0.8021  0.0396  0.6109
  108CHL1  H12B14211   1.573   4.056  12.896 -0.0629  0.9742  0.0170
  108CHL1   C1114212   1.458   4.147  13.062 -0.4209 -0.3747 -0.4655
  108CHL1  H11A14213   1.351   4.171  13.080 -0.0091  0.3124  1.2741
  108CHL1  H11B14214   1.473   4.049  13.112 -1.4288 -0.9124 -1.1919
  108CHL1    C914215   1.559   4.256  13.124  1.0115 -0.2082 -0.4154
  108CHL1    H914216   1.662   4.215  13.125  0.5775 -1.3119  0.1041
  108CHL1   C1014217   1.520   4.301  13.270  0.1102  0.9223  0.6081
  108CHL1   C1914218   1.374   4.346  13.275 -0.1354 -0.3505  0.4686
  108CHL1  H19A14219   1.348   4.395  13.372  2.1038  0.3870  0.7661
  108CHL1  H19B14220   1.358   4.419  13.193 -0.4034 -1.5820 -0.6014
  108CHL1  H19C14221   1.307   4.261  13.252 -0.3060  0.1143 -0.8130
  108CHL1    C114222   1.543   4.177  13.366 -0.2083  0.6052  0.0824
  108CHL1   H1A14223   1.453   4.118  13.339  0.2358  0.0337 -0.1464
  108CHL1   H1B14224   1.639   4.130  13.337  1.5082  3.0843  1.3440
  108CHL1    C214225   1.537   4.221  13.515 -0.7882  0.0351  0.4954
  108CHL1   H2A14226   1.569   4.138  13.581  1.6798  0.6962  0.2548
  108CHL1   H2B14227   1.437   4.259  13.544 -0.6068  0.1470  0.9948
  108CHL1   C2014228   1.514   4.144  12.569 -0.6942  0.2471 -0.7574
  108CHL1   H2014229   1.413   4.189  12.558 -0.5682  0.9862  0.8342
  108CHL1   C2114230   1.490   3.997  12.609 -0.2553 -0.2764  0.0874
  108CHL1  H21A14231   1.449   3.940  12.523  1.5212 -0.9337 -0.3713
  108CHL1  H21B14232   1.416   3.983  12.691 -0.0523 -2.9175 -0.0812
  108CHL1  H21C14233   1.582   3.945  12.644 -0.6190 -0.9859  0.0157
  108CHL1   C2214234   1.584   4.153  12.433 -0.5909 -0.3215 -0.0941
  108CHL1  H22A14235   1.513   4.123  12.353  0.5266 -2.9969 -0.2221
  108CHL1  H22B14236   1.620   4.255  12.407 -0.0005 -0.6588 -0.6477
  108CHL1   C2314237   1.707   4.065  12.418  0.2623 -0.5008  0.1031
  108CHL1  H23A14238   1.778   4.097  12.497 -1.1596 -0.0662  1.2235
  108CHL1  H23B14239   1.676   3.964  12.450  1.2154 -0.2090  2.1239
  108CHL1   C2414240   1.771   4.066  12.272  0.4802  0.1619 -0.6431
  108CHL1  H24A14241   1.690   4.035  12.203 -0.1517 -2.6113  1.1808
  108CHL1  H24B14242   1.812   4.166  12.246  1.8261 -0.3347 -0.5345
  108CHL1   C2514243   1.878   3.957  12.261 -0.4168  0.0144  0.0779
  108CHL1   H2514244   1.964   3.982  12.326 -1.0597  0.2924  0.8309
  108CHL1   C2614245   1.827   3.817  12.297 -0.7047 -0.2580  0.6513
  108CHL1  H26A14246   1.753   3.783  12.221  3.4670 -2.6002 -2.8569
  108CHL1  H26B14247   1.915   3.752  12.279 -1.5954 -1.4993  0.6942
  108CHL1  H26C14248   1.791   3.793  12.399  0.3700 -2.0002  0.6536
  108CHL1   C2714249   1.922   3.949  12.114  0.0790  0.0003 -0.2409
  108CHL1  H27A14250   1.957   4.047  12.074  1.0632 -1.0026 -1.9330
  108CHL1  H27B14251   2.000   3.870  12.107 -1.1224 -1.3284  0.7268
  108CHL1  H27C14252   1.834   3.918  12.053  1.2754 -0.7594 -1.6464
  109CHL1    C314253   3.116   1.685  12.806 -0.4690  0.1854 -0.0491
  109CHL1    H314254   3.019   1.640  12.779 -1.2730  1.7995  0.0376
  109CHL1    O314255   3.136   1.683  12.946  0.0048  0.7035  0.5063
  109CHL1   H3'14256   3.198   1.754  12.964  0.7292  0.2220 -0.0461
  109CHL1    C414257   3.234   1.610  12.741 -0.1843 -0.6130 -0.3911
  109CHL1   H4A14258   3.326   1.656  12.783 -1.8872  1.6838  1.1031
  109CHL1   H4B14259   3.239   1.511  12.792 -1.9712 -0.6732 -0.2608
  109CHL1    C514260   3.224   1.604  12.592 -1.0559  0.1337  0.4522
  109CHL1    C614261   3.234   1.483  12.537  0.3975  0.1624  0.3140
  109CHL1    H614262   3.259   1.396  12.600  0.2078  0.3301  0.6216
  109CHL1    C714263   3.223   1.456  12.388  0.7060  1.0789  0.2724
  109CHL1   H7A14264   3.310   1.402  12.345  0.9777  2.1984 -0.6262
  109CHL1   H7B14265   3.131   1.395  12.375 -0.3218  2.5701  0.3562
  109CHL1    C814266   3.199   1.584  12.303  0.2527 -0.2404  0.4690
  109CHL1    H814267   3.299   1.628  12.281  0.6381 -0.6873  1.2475
  109CHL1   C1414268   3.126   1.543  12.178  0.5621 -0.2124 -0.7363
  109CHL1   H1414269   3.024   1.503  12.197  0.1478 -0.4002 -3.0877
  109CHL1   C1514270   3.176   1.418  12.093  0.1901 -0.0596 -0.3791
  109CHL1  H15A14271   3.285   1.424  12.070 -0.0103  0.8416 -1.1130
  109CHL1  H15B14272   3.165   1.323  12.150  1.9298  0.0648  0.2464
  109CHL1   C1614273   3.093   1.430  11.971 -0.5549  0.0612  0.2926
  109CHL1  H16A14274   3.147   1.414  11.876 -2.2981 -1.7494 -0.4567
  109CHL1  H16B14275   3.017   1.349  11.969  0.2546 -0.7004 -0.8135
  109CHL1   C1714276   3.032   1.576  11.972  0.2674  0.1894 -0.0723
  109CHL1   H1714277   2.924   1.563  11.995 -0.4122  1.2073 -2.4303
  109CHL1   C1314278   3.101   1.659  12.080 -0.1514 -0.1785  0.5922
  109CHL1   C1814279   3.241   1.706  12.014  0.2504  0.2565 -0.9759
  109CHL1  H18A14280   3.210   1.781  11.938 -0.0177  1.4339  0.2348
  109CHL1  H18B14281   3.306   1.765  12.083 -1.5468  0.0055  1.0350
  109CHL1  H18C14282   3.294   1.620  11.970 -0.7119 -0.0928 -1.4679
  109CHL1   C1214283   3.021   1.771  12.148  0.7003 -1.1764  0.0095
  109CHL1  H12A14284   3.005   1.861  12.084  1.8036  0.0273  1.3603
  109CHL1  H12B14285   2.928   1.717  12.175  0.6249 -0.5121  1.1411
  109CHL1   C1114286   3.090   1.812  12.280 -1.0220 -0.0327  0.3858
  109CHL1  H11A14287   3.188   1.858  12.256 -1.3060 -0.0699 -0.9258
  109CHL1  H11B14288   3.023   1.885  12.329 -2.3533 -0.3135 -0.9324
  109CHL1    C914289   3.120   1.695  12.375  0.1532  0.5359 -0.9253
  109CHL1    H914290   3.019   1.654  12.395  0.3832  1.2757  2.2872
  109CHL1   C1014291   3.184   1.732  12.513 -0.0443  0.3052  0.2849
  109CHL1   C1914292   3.309   1.826  12.498 -0.3139  0.5691 -0.4179
  109CHL1  H19A14293   3.389   1.769  12.446  1.8080  1.4574  1.7024
  109CHL1  H19B14294   3.281   1.922  12.449  0.1225  1.2298  0.5927
  109CHL1  H19C14295   3.347   1.848  12.600  1.0231 -2.0915 -0.2587
  109CHL1    C114296   3.077   1.810  12.597 -0.1195  0.2254 -0.7594
  109CHL1   H1A14297   3.057   1.909  12.550 -0.0756  1.2359  1.2544
  109CHL1   H1B14298   2.980   1.756  12.594 -2.0342  3.1993  1.5373
  109CHL1    C214299   3.111   1.825  12.747 -0.5430  0.4704 -0.1271
  109CHL1   H2A14300   3.033   1.887  12.798  0.2993  0.6296  1.0167
  109CHL1   H2B14301   3.207   1.877  12.768 -0.5548 -0.2780  1.9935
  109CHL1   C2014302   3.025   1.632  11.827  0.1222 -0.1348  0.2055
  109CHL1   H2014303   3.131   1.650  11.796 -0.0095  1.9321  0.8289
  109CHL1   C2114304   2.962   1.773  11.815 -0.5193  0.8510  0.0147
  109CHL1  H21A14305   2.852   1.766  11.826 -0.4646  1.3399  0.9220
  109CHL1  H21B14306   3.003   1.821  11.724 -0.9823 -1.8414 -1.7235
  109CHL1  H21C14307   3.012   1.841  11.887  1.0855  0.5431 -0.7602
  109CHL1   C2214308   2.950   1.541  11.727 -0.0467 -0.1563  0.4904
  109CHL1  H22A14309   2.963   1.433  11.749 -2.0864 -0.3313  1.0967
  109CHL1  H22B14310   2.839   1.540  11.739 -0.1404 -3.1036  0.1305
  109CHL1   C2314311   2.996   1.571  11.584 -0.2448 -0.0170 -0.2455
  109CHL1  H23A14312   2.981   1.680  11.571  0.2317  0.1969  0.9161
  109CHL1  H23B14313   3.106   1.556  11.592 -0.1170  0.7114 -0.5227
  109CHL1   C2414314   2.935   1.486  11.469 -0.3125  0.2961  0.3449
  109CHL1  H24A14315   2.948   1.376  11.476  2.3645  0.4039 -1.6619
  109CHL1  H24B14316   2.826   1.509  11.463  0.0749  2.1145 -0.1172
  109CHL1   C2514317   3.007   1.530  11.333 -0.5649  0.1471 -0.1479
  109CHL1   H2514318   3.021   1.640  11.334 -0.7400  0.1745 -0.5121
  109CHL1   C2614319   3.144   1.458  11.323  0.1735  0.1003 -0.1621
  109CHL1  H26A14320   3.207   1.497  11.241 -1.3062  1.6321 -0.6146
  109CHL1  H26B14321   3.203   1.468  11.417 -0.7587 -0.8707  0.5531
  109CHL1  H26C14322   3.123   1.350  11.303  0.7120  0.1469 -1.0242
  109CHL1   C2714323   2.923   1.497  11.208  0.0255  0.4820 -0.1867
  109CHL1  H27A14324   2.820   1.537  11.206 -0.2811 -0.2820 -0.2463
  109CHL1  H27B14325   2.976   1.531  11.117  1.0328 -1.2969 -0.3279
  109CHL1  H27C14326   2.914   1.386  11.201 -1.7798  0.4872  1.1890
  110CHL1    C314327   4.455   5.967  13.422  0.2312  0.5293 -0.0986
  110CHL1    H314328   4.562   5.987  13.400 -0.0585  0.2505 -1.8666
  110CHL1    O314329   4.417   5.971  13.563  0.1868  0.5264  0.9224
  110CHL1   H3'14330   4.335   5.922  13.568  0.4767  0.0689  1.3121
  110CHL1    C414331   4.376   6.069  13.335 -0.7192  0.5348 -0.3116
  110CHL1   H4A14332   4.267   6.052  13.349 -0.8284  1.7869  0.4923
  110CHL1   H4B14333   4.404   6.170  13.371 -0.0461  0.2108  0.0940
  110CHL1    C514334   4.403   6.048  13.189 -0.1611 -0.3719 -0.0625
  110CHL1    C614335   4.448   6.153  13.116 -0.4871  0.1986 -0.5210
  110CHL1    H614336   4.471   6.249  13.166  0.0808  0.2744 -0.9251
  110CHL1    C714337   4.471   6.146  12.967  0.5470  0.2706  0.7133
  110CHL1   H7A14338   4.424   6.230  12.912  2.6937  0.0482 -1.6441
  110CHL1   H7B14339   4.575   6.135  12.930  1.1721  4.0512  0.9355
  110CHL1    C814340   4.398   6.022  12.898  0.0442 -0.0376 -0.6449
  110CHL1    H814341   4.290   6.047  12.899  0.2664  0.9885  1.1238
  110CHL1   C1414342   4.438   6.004  12.749  0.3473 -0.2856  0.3996
  110CHL1   H1414343   4.545   5.978  12.758  0.3556 -0.7253 -0.7974
  110CHL1   C1514344   4.441   6.127  12.657 -0.1894  1.1387  0.0558
  110CHL1  H15A14345   4.344   6.178  12.670 -0.1146  0.8222  2.4380
  110CHL1  H15B14346   4.518   6.203  12.682  0.1351  1.4544 -1.7757
  110CHL1   C1614347   4.472   6.066  12.520 -0.5761  0.5723  0.4497
  110CHL1  H16A14348   4.383   6.103  12.465 -0.3109  2.3184  1.1251
  110CHL1  H16B14349   4.572   6.102  12.486  0.1284 -0.7341  1.0483
  110CHL1   C1714350   4.473   5.905  12.537 -0.5278  0.0539 -0.5105
  110CHL1   H1714351   4.582   5.891  12.553 -0.6456  0.2699  0.5930
  110CHL1   C1314352   4.400   5.879  12.671 -0.4563  0.0598 -0.1270
  110CHL1   C1814353   4.245   5.887  12.660 -0.6586 -0.6664 -0.8133
  110CHL1  H18A14354   4.213   5.787  12.623  0.4222 -0.4768 -2.3354
  110CHL1  H18B14355   4.192   5.913  12.755 -0.2807  0.6972 -0.9527
  110CHL1  H18C14356   4.216   5.967  12.589 -1.3914 -0.9691 -0.8555
  110CHL1   C1214357   4.439   5.756  12.757  0.0207  0.5398 -0.2311
  110CHL1  H12A14358   4.381   5.672  12.713  0.2888 -0.0401  0.4971
  110CHL1  H12B14359   4.548   5.735  12.762 -0.1897 -1.1799 -1.9225
  110CHL1   C1114360   4.384   5.766  12.897  0.4086 -0.3452 -0.3224
  110CHL1  H11A14361   4.273   5.761  12.897  0.4523 -2.7820 -0.2470
  110CHL1  H11B14362   4.413   5.677  12.958  0.5172 -1.1371 -1.4998
  110CHL1    C914363   4.425   5.895  12.981 -0.1318  0.6419  0.0814
  110CHL1    H914364   4.535   5.882  12.980 -0.3639 -2.1252 -1.5605
  110CHL1   C1014365   4.381   5.904  13.128 -0.4370 -0.8169  0.1665
  110CHL1   C1914366   4.236   5.856  13.137 -0.0652 -0.3261  0.1625
  110CHL1  H19A14367   4.183   5.910  13.219 -3.3287  2.4852 -3.4427
  110CHL1  H19B14368   4.178   5.901  13.054  0.8497  0.6966  0.0562
  110CHL1  H19C14369   4.234   5.746  13.125  1.2041 -0.0620 -4.3160
  110CHL1    C114370   4.472   5.812  13.217  0.3037 -0.2398 -0.2235
  110CHL1   H1A14371   4.458   5.705  13.194  0.5620 -0.9387  2.4807
  110CHL1   H1B14372   4.578   5.845  13.214 -0.4026  2.1613 -1.9456
  110CHL1    C214373   4.427   5.823  13.365  0.0616  0.1624  0.5709
  110CHL1   H2A14374   4.494   5.750  13.415  1.2103  0.5562 -0.3476
  110CHL1   H2B14375   4.325   5.785  13.388  0.1016  0.6225  1.5814
  110CHL1   C2014376   4.424   5.836  12.412  0.3229  0.2796  0.4440
  110CHL1   H2014377   4.313   5.840  12.410  0.2006 -1.4958  1.3153
  110CHL1   C2114378   4.476   5.687  12.421  0.2270 -0.9133  0.4181
  110CHL1  H21A14379   4.579   5.684  12.463  0.0751 -2.2812  0.7263
  110CHL1  H21B14380   4.488   5.650  12.317 -1.2564 -0.6506  0.1280
  110CHL1  H21C14381   4.412   5.612  12.473 -1.3978  0.4015  0.3940
  110CHL1   C2214382   4.480   5.902  12.281 -0.0182  0.2008 -0.2756
  110CHL1  H22A14383   4.483   6.013  12.276  0.3463  0.1249 -2.6513
  110CHL1  H22B14384   4.585   5.868  12.271 -0.8545 -2.0054 -2.5576
  110CHL1   C2314385   4.399   5.871  12.161 -0.0209  0.8739  0.0891
  110CHL1  H23A14386   4.403   5.768  12.120  0.0728  0.8129  0.2517
  110CHL1  H23B14387   4.290   5.890  12.174 -0.0070  1.8212 -0.9722
  110CHL1   C2414388   4.445   5.966  12.045  0.1234 -0.1644 -0.6442
  110CHL1  H24A14389   4.417   6.069  12.076 -0.4304 -1.1485  2.4503
  110CHL1  H24B14390   4.556   5.972  12.035  0.2534 -2.9740 -1.8665
  110CHL1   C2514391   4.383   5.945  11.902 -0.5239 -0.2063 -0.3774
  110CHL1   H2514392   4.417   5.846  11.864 -0.6150 -0.7087  0.8145
  110CHL1   C2614393   4.231   5.946  11.904 -0.2440  0.2402 -0.5029
  110CHL1  H26A14394   4.187   5.863  11.963  1.7107 -0.7576 -0.3864
  110CHL1  H26B14395   4.207   6.047  11.945  0.0687  1.0181 -2.1524
  110CHL1  H26C14396   4.190   5.925  11.803  0.7929 -3.1690 -0.3425
  110CHL1   C2714397   4.441   6.059  11.812 -0.0995 -0.3007 -0.5557
  110CHL1  H27A14398   4.411   6.045  11.706 -0.8850 -0.7162 -0.2848
  110CHL1  H27B14399   4.396   6.152  11.852  1.7913  0.6808 -0.5877
  110CHL1  H27C14400   4.550   6.062  11.837 -0.7810  0.8768  2.8785
  111CHL1    C314401   6.051   0.879  12.419 -0.1583 -0.6363 -0.2550
  111CHL1    H314402   5.941   0.878  12.409 -0.2278  0.7078  0.0543
  111CHL1    O314403   6.084   0.863  12.549  0.0919 -0.2390  0.1903
  111CHL1   H3'14404   6.088   0.767  12.559 -0.4864 -0.3095 -0.2123
  111CHL1    C414405   6.118   0.772  12.335  0.2660  0.7187 -0.7715
  111CHL1   H4A14406   6.227   0.789  12.351  0.6454 -0.3081 -2.0887
  111CHL1   H4B14407   6.099   0.667  12.367  0.1925  0.2980 -2.1434
  111CHL1    C514408   6.085   0.793  12.187 -0.6833 -0.1784  0.0906
  111CHL1    C614409   6.032   0.705  12.105 -0.1483  0.2893  0.2984
  111CHL1    H614410   5.994   0.613  12.151  0.5917 -0.5344 -0.7098
  111CHL1    C714411   6.007   0.727  11.960  0.8508 -0.5529 -0.1176
  111CHL1   H7A14412   6.039   0.647  11.889  2.0123 -0.9197  0.7917
  111CHL1   H7B14413   5.896   0.733  11.950  0.8522 -1.0083 -0.4513
  111CHL1    C814414   6.069   0.858  11.905 -0.1184  0.5667  0.1897
  111CHL1    H814415   6.173   0.827  11.880 -0.3609 -0.2461  0.1819
  111CHL1   C1414416   6.002   0.895  11.776  0.4811  0.2828  0.5022
  111CHL1   H1414417   5.897   0.915  11.805 -0.6071 -2.6501 -1.0162
  111CHL1   C1514418   5.974   0.790  11.665 -0.0036  0.4114 -0.0136
  111CHL1  H15A14419   6.063   0.744  11.617  0.4745  1.0177  0.2771
  111CHL1  H15B14420   5.907   0.709  11.700  0.6905 -0.2777 -0.2384
  111CHL1   C1614421   5.909   0.879  11.561 -0.8537 -0.9983  0.5966
  111CHL1  H16A14422   5.927   0.850  11.455  1.1770 -0.7108  0.8180
  111CHL1  H16B14423   5.799   0.879  11.577 -0.5652 -0.5409  2.9595
  111CHL1   C1714424   5.962   1.027  11.595  0.2368  0.5573 -0.1381
  111CHL1   H1714425   5.874   1.075  11.643  0.9603 -1.4161  3.5306
  111CHL1   C1314426   6.060   1.018  11.705  0.2025  0.3491  0.2944
  111CHL1   C1814427   6.208   1.000  11.650 -0.1268  0.5230 -0.2517
  111CHL1  H18A14428   6.286   0.983  11.727  0.4218 -0.6239 -1.0358
  111CHL1  H18B14429   6.208   0.914  11.580 -1.7753  0.6925 -0.5056
  111CHL1  H18C14430   6.234   1.093  11.595  1.4362 -0.2247 -0.8412
  111CHL1   C1214431   6.059   1.138  11.804  0.9077 -0.0775 -0.6899
  111CHL1  H12A14432   6.112   1.229  11.767  4.1638 -0.8419  1.6084
  111CHL1  H12B14433   5.956   1.149  11.845  1.8817 -0.2267  2.0405
  111CHL1   C1114434   6.137   1.097  11.930 -0.2821  0.0292 -0.0515
  111CHL1  H11A14435   6.240   1.081  11.893 -0.2642  0.5038 -0.2121
  111CHL1  H11B14436   6.128   1.187  11.994  1.6538  0.3726 -0.2217
  111CHL1    C914437   6.077   0.971  11.995  0.3149  0.0948 -0.4018
  111CHL1    H914438   5.972   0.996  12.020  0.2669 -0.6406  0.1676
  111CHL1   C1014439   6.136   0.941  12.136 -0.2463 -0.5265  0.2539
  111CHL1   C1914440   6.292   0.955  12.136 -0.2103 -0.3137 -0.2089
  111CHL1  H19A14441   6.327   1.051  12.091  0.1467 -1.3074 -2.1807
  111CHL1  H19B14442   6.337   0.958  12.237 -0.6355  1.0936 -0.0374
  111CHL1  H19C14443   6.332   0.870  12.077  1.4530  0.6409 -0.5314
  111CHL1    C114444   6.075   1.046  12.237 -0.1640 -0.7507 -0.3019
  111CHL1   H1A14445   6.114   1.146  12.208 -0.0104 -1.1640 -1.5790
  111CHL1   H1B14446   5.965   1.053  12.219 -0.4606 -3.9587 -0.3514
  111CHL1    C214447   6.107   1.019  12.383  0.4250  0.5002  0.2688
  111CHL1   H2A14448   6.060   1.095  12.449  0.3952  0.4508  0.3043
  111CHL1   H2B14449   6.217   1.028  12.400  0.4295 -0.5665  0.8474
  111CHL1   C2014450   6.005   1.110  11.475  0.6515 -0.2758 -0.5012
  111CHL1   H2014451   6.054   1.202  11.514 -1.1189  0.0150  1.1616
  111CHL1   C2114452   5.877   1.171  11.411  0.5095  0.2790 -0.0754
  111CHL1  H21A14453   5.806   1.101  11.363 -0.8636  0.2526  1.9148
  111CHL1  H21B14454   5.904   1.260  11.349  1.4597  0.1979  0.1965
  111CHL1  H21C14455   5.808   1.213  11.487 -4.1573 -1.9554 -2.6388
  111CHL1   C2214456   6.090   1.045  11.357  0.1381 -0.0399  0.4546
  111CHL1  H22A14457   6.177   0.990  11.398  1.6985  3.0240  1.5673
  111CHL1  H22B14458   6.029   0.978  11.292 -1.9486  1.3017  0.9376
  111CHL1   C2314459   6.151   1.141  11.256  0.0136 -0.2893  0.3934
  111CHL1  H23A14460   6.193   1.081  11.172 -0.4690  0.6547 -0.5426
  111CHL1  H23B14461   6.069   1.206  11.220 -1.3853 -2.4564 -0.5323
  111CHL1   C2414462   6.259   1.227  11.302  0.3798 -0.3236 -0.0014
  111CHL1  H24A14463   6.224   1.312  11.365  2.1346  0.0504  0.5141
  111CHL1  H24B14464   6.329   1.157  11.352  0.0813 -0.2109  0.5743
  111CHL1   C2514465   6.335   1.303  11.186  0.5630 -0.2857  0.4065
  111CHL1   H2514466   6.256   1.358  11.132  1.2340  0.5233  0.2193
  111CHL1   C2614467   6.432   1.411  11.228  0.2197 -0.2668  0.2550
  111CHL1  H26A14468   6.516   1.364  11.284  0.5711 -0.8903 -0.7704
  111CHL1  H26B14469   6.477   1.461  11.140  0.0912 -0.9305 -0.1940
  111CHL1  H26C14470   6.386   1.486  11.296  1.9942  0.2749  0.9340
  111CHL1   C2714471   6.418   1.212  11.095 -0.4729  0.5067  0.4355
  111CHL1  H27A14472   6.344   1.153  11.038  0.5749 -0.3496 -0.0785
  111CHL1  H27B14473   6.501   1.255  11.036  0.4781 -3.0272 -1.0355
  111CHL1  H27C14474   6.462   1.132  11.159 -0.1811 -1.7324 -2.3697
  112CHL1    C314475   0.919   2.016  12.858  0.9361 -0.7392  0.2637
  112CHL1    H314476   0.871   2.116  12.853  1.1637 -0.6804 -2.4121
  112CHL1    O314477   0.903   1.968  12.987 -0.1651  0.5208 -0.8149
  112CHL1   H3'14478   0.929   1.876  12.984 -0.6987  0.2792  0.8302
  112CHL1    C414479   0.844   1.934  12.754  0.5086  0.2876 -0.1434
  112CHL1   H4A14480   0.878   1.829  12.767  0.2380  0.4174  2.0210
  112CHL1   H4B14481   0.737   1.941  12.781  1.0142  2.9485  1.6055
  112CHL1    C514482   0.859   1.980  12.612  0.4154  0.6003 -0.1166
  112CHL1    C614483   0.751   2.021  12.544  0.5315 -0.1262 -0.5354
  112CHL1    H614484   0.650   2.009  12.588 -0.0347  1.8685 -1.1760
  112CHL1    C714485   0.747   2.077  12.407  0.3547  0.1381 -0.3675
  112CHL1   H7A14486   0.660   2.030  12.356  0.9578  0.1216 -1.4242
  112CHL1   H7B14487   0.730   2.186  12.418 -1.4379 -0.2456  0.9414
  112CHL1    C814488   0.876   2.034  12.331  0.1897  0.6758 -0.1868
  112CHL1    H814489   0.872   1.925  12.309 -2.3870  0.7076 -0.1833
  112CHL1   C1414490   0.883   2.121  12.206 -0.2854  0.2599  0.1770
  112CHL1   H1414491   0.893   2.223  12.248  0.2877 -0.1400  1.0200
  112CHL1   C1514492   0.763   2.123  12.115  0.2263 -0.2303  0.1679
  112CHL1  H15A14493   0.726   2.019  12.104  0.3586 -0.6651  3.0610
  112CHL1  H15B14494   0.679   2.184  12.155  0.9747  2.2460 -1.7709
  112CHL1   C1614495   0.817   2.170  11.979 -0.5863 -0.1144 -0.1623
  112CHL1  H16A14496   0.795   2.086  11.909  1.2204 -0.4101 -0.4390
  112CHL1  H16B14497   0.757   2.258  11.950 -0.2052  0.2854  0.2469
  112CHL1   C1714498   0.971   2.185  12.001  0.0041 -0.3262 -0.1183
  112CHL1   H1714499   0.987   2.291  12.029 -1.5409 -0.0705 -0.1350
  112CHL1   C1314500   1.011   2.096  12.118 -0.6156  0.7132 -0.8982
  112CHL1   C1814501   1.019   1.950  12.075 -0.3440  0.5612 -1.0125
  112CHL1  H18A14502   1.102   1.921  12.008 -0.9067 -2.6336 -0.4955
  112CHL1  H18B14503   1.033   1.879  12.159 -1.1993  0.9317 -0.5380
  112CHL1  H18C14504   0.924   1.912  12.030 -1.8219 -1.0465  2.9929
  112CHL1   C1214505   1.132   2.137  12.207 -0.2519 -0.6342 -0.0777
  112CHL1  H12A14506   1.233   2.121  12.163  0.0764  1.4624 -0.1920
  112CHL1  H12B14507   1.124   2.244  12.237  0.2081 -1.0700  1.6887
  112CHL1   C1114508   1.132   2.057  12.339  0.3931  0.0623  0.1593
  112CHL1  H11A14509   1.158   1.950  12.323  0.7472  0.1680  0.0215
  112CHL1  H11B14510   1.217   2.089  12.403  1.4704 -3.2856  0.6474
  112CHL1    C914511   0.998   2.065  12.422 -0.3431  0.3842 -0.8465
  112CHL1    H914512   0.986   2.173  12.442  1.6704  0.6558 -0.9492
  112CHL1   C1014513   1.001   1.996  12.567 -0.0569  0.4579 -0.2341
  112CHL1   C1914514   1.067   1.857  12.549  0.0310  0.0572 -0.6095
  112CHL1  H19A14515   1.026   1.805  12.459  1.6824 -3.8488  0.6883
  112CHL1  H19B14516   1.176   1.874  12.536  0.2920 -0.3882  0.8109
  112CHL1  H19C14517   1.052   1.792  12.637  0.3927  2.0567  0.9941
  112CHL1    C114518   1.087   2.072  12.666  0.7270 -0.4094 -0.0355
  112CHL1   H1A14519   1.194   2.053  12.643  1.2298 -1.1853  2.5683
  112CHL1   H1B14520   1.069   2.181  12.664  0.6720 -0.3631  1.6814
  112CHL1    C214521   1.069   2.018  12.812 -0.0813  0.1677  0.0213
  112CHL1   H2A14522   1.133   2.066  12.889 -0.8339  0.1415  0.6850
  112CHL1   H2B14523   1.098   1.911  12.822  0.0009  0.2786  1.0984
  112CHL1   C2014524   1.043   2.168  11.868 -0.5282 -0.3251 -0.1360
  112CHL1   H2014525   1.007   2.069  11.832 -0.2586  0.6118 -3.2453
  112CHL1   C2114526   1.198   2.173  11.879  0.2910  0.0267  0.1949
  112CHL1  H21A14527   1.237   2.103  11.957 -1.7829 -1.1108  0.2707
  112CHL1  H21B14528   1.227   2.279  11.896 -0.1646 -0.2223  2.9805
  112CHL1  H21C14529   1.242   2.144  11.780  1.1828  1.4689  0.1406
  112CHL1   C2214530   0.999   2.280  11.765 -0.1104  0.4868  0.0848
  112CHL1  H22A14531   0.888   2.270  11.758 -0.2290  1.7644  0.0319
  112CHL1  H22B14532   1.016   2.379  11.811  0.2372  1.0000 -1.1107
  112CHL1   C2314533   1.052   2.264  11.623 -0.2130 -0.1512  0.7249
  112CHL1  H23A14534   1.013   2.339  11.552  2.0640  0.2728 -0.1502
  112CHL1  H23B14535   1.163   2.272  11.617 -0.3272  0.6522 -0.7574
  112CHL1   C2414536   1.018   2.123  11.561 -0.0988 -0.0712  0.3735
  112CHL1  H24A14537   1.087   2.042  11.593 -0.3856 -0.2134  0.6338
  112CHL1  H24B14538   0.923   2.091  11.608  0.2871 -0.6356  0.7810
  112CHL1   C2514539   1.018   2.134  11.411  0.3419  0.1428  0.1573
  112CHL1   H2514540   0.972   2.224  11.364 -1.0549 -1.0041 -0.8012
  112CHL1   C2614541   1.167   2.128  11.374 -0.3908 -0.2151 -0.5567
  112CHL1  H26A14542   1.211   2.037  11.421  0.3041  0.5231  0.2624
  112CHL1  H26B14543   1.175   2.115  11.264  1.6853 -1.6130 -0.3075
  112CHL1  H26C14544   1.228   2.213  11.411  0.3509 -1.5788  1.5638
  112CHL1   C2714545   0.940   2.013  11.358  1.0974 -0.1019  0.1260
  112CHL1  H27A14546   0.997   1.918  11.372 -0.3533 -1.4218 -2.2784
  112CHL1  H27B14547   0.840   2.012  11.406 -0.2254  1.3667 -2.4029
  112CHL1  H27C14548   0.929   2.018  11.248 -1.3466 -2.3461  0.1632
  113CHL1    C314549   4.325   5.224  13.303  0.0740  0.0342 -0.1570
  113CHL1    H314550   4.402   5.304  13.302 -0.5647  0.7695  2.6089
  113CHL1    O314551   4.284   5.200  13.431  0.1836  0.1472  0.1337
  113CHL1   H3'14552   4.360   5.155  13.468  0.0476  0.2415  0.5256
  113CHL1    C414553   4.200   5.264  13.221  0.0112  0.4290 -0.3094
  113CHL1   H4A14554   4.118   5.196  13.250  0.8283  0.1111  1.3731
  113CHL1   H4B14555   4.165   5.363  13.257  0.0057  0.7358 -1.1373
  113CHL1    C514556   4.229   5.263  13.074  0.2943 -0.4705 -0.3683
  113CHL1    C614557   4.218   5.375  12.998 -0.9744 -0.7875 -0.5071
  113CHL1    H614558   4.193   5.469  13.050 -0.1592 -1.3064  0.8990
  113CHL1    C714559   4.224   5.372  12.846  0.3049 -0.1983  0.8565
  113CHL1   H7A14560   4.124   5.401  12.807  0.4197  1.7142  1.8474
  113CHL1   H7B14561   4.298   5.444  12.806 -0.6750  1.1677  1.4024
  113CHL1    C814562   4.243   5.228  12.788 -0.0642  0.3488 -0.4703
  113CHL1    H814563   4.139   5.188  12.787 -0.6265  1.7686 -1.2741
  113CHL1   C1414564   4.293   5.243  12.651  0.6334 -0.3773 -0.0063
  113CHL1   H1414565   4.396   5.283  12.658  0.6948 -0.6226  0.5464
  113CHL1   C1514566   4.220   5.341  12.555  1.0552 -0.5224  0.0582
  113CHL1  H15A14567   4.110   5.341  12.570  0.6535  0.4543 -2.4426
  113CHL1  H15B14568   4.256   5.446  12.563  2.0400 -0.5478 -2.8584
  113CHL1   C1614569   4.250   5.285  12.416  0.8882 -0.1329  0.3406
  113CHL1  H16A14570   4.159   5.252  12.360  1.0313 -1.8301  1.0507
  113CHL1  H16B14571   4.287   5.364  12.348 -0.8947  1.0082  0.6208
  113CHL1   C1714572   4.353   5.157  12.436 -0.0196 -0.7373  0.8273
  113CHL1   H1714573   4.455   5.202  12.440 -0.8852  1.6044 -0.8837
  113CHL1   C1314574   4.313   5.110  12.575  0.9461 -0.1422 -0.4139
  113CHL1   C1814575   4.180   5.037  12.557 -0.3308 -0.7764 -0.0066
  113CHL1  H18A14576   4.203   4.945  12.498  0.3263 -0.3443 -0.4417
  113CHL1  H18B14577   4.128   5.004  12.650  0.6066 -0.4023  0.6662
  113CHL1  H18C14578   4.104   5.096  12.501  0.0941  0.4033  0.6215
  113CHL1   C1214579   4.410   5.026  12.656  0.5383 -0.2223 -0.5793
  113CHL1  H12A14580   4.418   4.921  12.619 -2.3802 -0.3944 -0.9724
  113CHL1  H12B14581   4.508   5.078  12.658  0.3457  0.1283  0.0313
  113CHL1   C1114582   4.360   5.007  12.799 -0.1139 -0.2681 -0.0100
  113CHL1  H11A14583   4.275   4.935  12.794 -1.1907  1.0409 -1.8571
  113CHL1  H11B14584   4.446   4.960  12.851  0.2243 -0.2471 -0.5335
  113CHL1    C914585   4.328   5.140  12.873 -0.6258  0.7788 -0.1029
  113CHL1    H914586   4.428   5.188  12.886 -0.6900  0.8637  0.0708
  113CHL1   C1014587   4.279   5.127  13.023  0.4016 -0.0261 -0.1466
  113CHL1   C1914588   4.162   5.027  13.028 -0.2928  0.1134  0.4372
  113CHL1  H19A14589   4.178   4.938  12.963 -1.6169 -0.0286  0.2842
  113CHL1  H19B14590   4.142   4.988  13.130 -1.0658 -0.2955  0.1405
  113CHL1  H19C14591   4.073   5.080  12.989  1.0947  2.1827 -0.0730
  113CHL1    C114592   4.404   5.083  13.105 -0.9625 -0.5065  0.0083
  113CHL1   H1A14593   4.442   4.980  13.086 -0.0283 -0.0349 -0.8042
  113CHL1   H1B14594   4.489   5.153  13.091  0.4280 -2.1709 -0.2255
  113CHL1    C214595   4.379   5.090  13.261 -0.2530  0.2731  0.2441
  113CHL1   H2A14596   4.480   5.065  13.301  0.4960 -1.1571 -2.3403
  113CHL1   H2B14597   4.303   5.012  13.283  0.6390 -1.1977 -1.6434
  113CHL1   C2014598   4.350   5.059  12.316  0.1788  0.2986 -0.9559
  113CHL1   H2014599   4.250   5.015  12.297  1.4802 -1.9715 -3.2719
  113CHL1   C2114600   4.445   4.932  12.333  0.0761 -1.1357 -0.1422
  113CHL1  H21A14601   4.444   4.872  12.239  1.7402 -0.0911 -0.8584
  113CHL1  H21B14602   4.416   4.866  12.418 -1.3453 -1.6215 -0.9766
  113CHL1  H21C14603   4.549   4.961  12.358 -0.3110  0.1253  0.0557
  113CHL1   C2214604   4.382   5.135  12.186 -0.4098 -0.4447  0.1608
  113CHL1  H22A14605   4.313   5.221  12.171 -0.5519 -0.7742 -1.1732
  113CHL1  H22B14606   4.482   5.179  12.203 -0.9969  0.3557  1.7658
  113CHL1   C2314607   4.402   5.047  12.056  0.4044  0.0274  0.0662
  113CHL1  H23A14608   4.490   4.979  12.058  1.2261  0.9668 -1.6047
  113CHL1  H23B14609   4.314   4.981  12.049 -0.0533  0.3726  1.9963
  113CHL1   C2414610   4.405   5.136  11.925 -0.6617  0.3918 -0.0760
  113CHL1  H24A14611   4.303   5.180  11.918 -1.5874 -1.7174 -0.8905
  113CHL1  H24B14612   4.489   5.208  11.938 -0.1004  0.5919 -3.7514
  113CHL1   C2514613   4.436   5.055  11.804 -0.2511 -0.8447 -0.1898
  113CHL1   H2514614   4.518   4.983  11.825 -0.6227 -1.3718 -0.5063
  113CHL1   C2614615   4.328   4.954  11.747  0.2527 -0.8978  0.7231
  113CHL1  H26A14616   4.295   4.875  11.818 -2.0971  2.1121  3.2620
  113CHL1  H26B14617   4.235   5.008  11.719  1.4487  1.0264  0.2562
  113CHL1  H26C14618   4.372   4.913  11.654  1.8187  0.3770  0.8552
  113CHL1   C2714619   4.501   5.140  11.688  0.2157 -0.0698  0.3965
  113CHL1  H27A14620   4.572   5.216  11.727 -0.4212  0.4066  0.6488
  113CHL1  H27B14621   4.562   5.071  11.626  2.6303 -0.4575  2.9528
  113CHL1  H27C14622   4.425   5.200  11.634 -0.8264 -2.4397 -0.9449
  114CHL1    C314623   0.342   0.338  12.530  0.4477  0.6611  0.3485
  114CHL1    H314624   0.386   0.236  12.528 -2.4312 -0.7025  0.9294
  114CHL1    O314625   0.357   0.375  12.662 -0.2866  0.7021  0.0035
  114CHL1   H3'14626   0.335   0.469  12.663  0.0057  0.7728  0.5850
  114CHL1    C414627   0.415   0.436  12.439 -0.1489 -0.0183  0.1173
  114CHL1   H4A14628   0.384   0.539  12.466  1.4038  0.5747 -0.2456
  114CHL1   H4B14629   0.526   0.439  12.453 -0.2611  0.0613  1.0766
  114CHL1    C514630   0.378   0.423  12.292  0.6716  0.4390  0.3908
  114CHL1    C614631   0.470   0.419  12.193  0.4429  0.4523  0.5190
  114CHL1    H614632   0.578   0.428  12.209  0.3959  2.6853  0.0048
  114CHL1    C714633   0.433   0.416  12.046 -0.0218  0.3790  0.1028
  114CHL1   H7A14634   0.506   0.477  11.988  0.3432 -0.2108 -0.0692
  114CHL1   H7B14635   0.444   0.312  12.009 -0.1890 -0.3430  1.9269
  114CHL1    C814636   0.289   0.441  12.010  0.3690  0.3495 -0.0090
  114CHL1    H814637   0.279   0.551  12.023  1.5639  0.4658  0.0649
  114CHL1   C1414638   0.259   0.405  11.865  0.1987 -0.4635 -0.2167
  114CHL1   H1414639   0.275   0.296  11.878 -1.6074 -0.7079  0.2082
  114CHL1   C1514640   0.351   0.451  11.747  0.2786 -0.5043  0.2798
  114CHL1  H15A14641   0.394   0.552  11.766 -2.0450  0.6786 -0.4561
  114CHL1  H15B14642   0.433   0.377  11.737  1.2394  0.4414  0.8640
  114CHL1   C1614643   0.263   0.447  11.626  0.0630  0.0944  0.2285
  114CHL1  H16A14644   0.234   0.547  11.588 -1.1492 -0.5395 -0.5909
  114CHL1  H16B14645   0.304   0.390  11.539  1.4188 -1.2546  1.6964
  114CHL1   C1714646   0.119   0.396  11.675 -0.4353  0.2438 -0.3497
  114CHL1   H1714647   0.128   0.286  11.684  0.0679  0.3454  0.4616
  114CHL1   C1314648   0.115   0.428  11.825  0.0398 -0.1199 -0.7630
  114CHL1   C1814649   0.074   0.572  11.831  0.2235  0.6461 -0.4211
  114CHL1  H18A14650   0.096   0.610  11.934  1.6462  0.9684 -0.8228
  114CHL1  H18B14651   0.132   0.635  11.760 -0.6781  1.3902 -0.5182
  114CHL1  H18C14652  -0.035   0.583  11.813 -0.2090 -1.8453  0.3271
  114CHL1   C1214653   0.020   0.338  11.913  0.0312  0.8211  0.1578
  114CHL1  H12A14654  -0.087   0.357  11.888 -0.2885  0.9770  1.5674
  114CHL1  H12B14655   0.046   0.230  11.904  1.2487  0.8205  2.8292
  114CHL1   C1114656   0.045   0.363  12.069 -0.2735 -0.7585  0.4124
  114CHL1  H11A14657  -0.006   0.461  12.082 -0.2338 -0.8871  1.6337
  114CHL1  H11B14658  -0.004   0.288  12.135 -0.7407  0.3603  1.3787
  114CHL1    C914659   0.195   0.366  12.112  0.4174 -0.5865  0.2189
  114CHL1    H914660   0.223   0.259  12.113  0.9525 -0.4517 -0.3644
  114CHL1   C1014661   0.226   0.408  12.261 -0.1930  0.3492  0.1024
  114CHL1   C1914662   0.156   0.544  12.278 -0.0164  0.2948  0.0787
  114CHL1  H19A14663   0.199   0.603  12.362  0.9192  1.2969 -1.0675
  114CHL1  H19B14664   0.182   0.607  12.190  1.0418 -1.1095 -0.6538
  114CHL1  H19C14665   0.048   0.543  12.305 -0.1757 -0.6500 -0.5477
  114CHL1    C114666   0.162   0.303  12.356  0.9442 -0.0676 -0.6329
  114CHL1   H1A14667   0.056   0.274  12.346  1.3356 -2.2212  0.9160
  114CHL1   H1B14668   0.210   0.207  12.327  0.7793  0.1059 -1.5061
  114CHL1    C214669   0.194   0.326  12.509  0.4545 -0.0329 -0.0847
  114CHL1   H2A14670   0.167   0.229  12.556  0.5478  0.2085  0.4807
  114CHL1   H2B14671   0.135   0.410  12.552  1.6872  0.1786  1.2675
  114CHL1   C2014672  -0.008   0.427  11.585  0.1325 -0.2961 -0.6208
  114CHL1   H2014673  -0.051   0.527  11.605  2.5368  1.2119 -2.4960
  114CHL1   C2114674  -0.111   0.319  11.614 -0.1830 -0.0545  0.2672
  114CHL1  H21A14675  -0.168   0.337  11.708  0.1299 -0.8650  0.6197
  114CHL1  H21B14676  -0.073   0.215  11.620  0.3478  0.1479  0.4361
  114CHL1  H21C14677  -0.185   0.322  11.531 -1.2041 -0.2921  1.1346
  114CHL1   C2214678   0.032   0.428  11.437  0.2380 -0.1758  0.3070
  114CHL1  H22A14679  -0.054   0.455  11.371  2.0014  0.0238 -2.0576
  114CHL1  H22B14680   0.105   0.511  11.420 -0.0844 -0.0651 -0.6122
  114CHL1   C2314681   0.095   0.290  11.383  0.2249  0.7847 -0.0361
  114CHL1  H23A14682   0.167   0.249  11.457  0.1529 -1.1143 -0.9511
  114CHL1  H23B14683   0.020   0.208  11.374 -0.3034  0.9880  1.9927
  114CHL1   C2414684   0.169   0.325  11.251  0.5013 -0.0461  0.5288
  114CHL1  H24A14685   0.092   0.340  11.172  0.6720 -0.4550  0.2836
  114CHL1  H24B14686   0.219   0.423  11.267  3.0529 -1.1027 -0.4449
  114CHL1   C2514687   0.279   0.234  11.202  0.2679  0.0794  0.5344
  114CHL1   H2514688   0.235   0.132  11.191  0.1281  0.3133 -1.5142
  114CHL1   C2614689   0.304   0.254  11.051  0.1993 -0.8039  0.0153
  114CHL1  H26A14690   0.219   0.245  10.979  0.6741  0.4765 -0.7469
  114CHL1  H26B14691   0.325   0.363  11.042  0.9854 -1.0965 -2.5496
  114CHL1  H26C14692   0.387   0.194  11.010  0.4060 -1.8549  1.8920
  114CHL1   C2714693   0.407   0.226  11.283 -0.1100  0.1785  0.4730
  114CHL1  H27A14694   0.390   0.207  11.391 -2.4786  1.8160  0.4763
  114CHL1  H27B14695   0.460   0.148  11.225 -1.7223  1.3627 -2.8450
  114CHL1  H27C14696   0.475   0.313  11.272  1.1381 -0.8540 -0.2971
  115CHL1    C314697   5.440   0.795  12.736 -0.7761 -0.7974 -0.7362
  115CHL1    H314698   5.501   0.709  12.700  2.4024  1.2992 -0.7864
  115CHL1    O314699   5.440   0.785  12.881 -0.6040  0.5131 -0.0579
  115CHL1   H3'14700   5.510   0.842  12.914 -0.2290  0.1409 -0.2038
  115CHL1    C414701   5.516   0.921  12.698  0.9900 -0.6480 -0.4462
  115CHL1   H4A14702   5.459   1.004  12.745  2.2422 -0.8845  1.6072
  115CHL1   H4B14703   5.614   0.914  12.749  1.2558 -0.4647 -0.9306
  115CHL1    C514704   5.521   0.940  12.546  0.4363  0.1317 -0.6203
  115CHL1    C614705   5.634   0.943  12.483 -0.6631 -0.5240  0.3450
  115CHL1    H614706   5.724   0.942  12.545 -0.2369 -2.7078 -0.2269
  115CHL1    C714707   5.663   0.965  12.343 -0.1805  0.5041  0.3151
  115CHL1   H7A14708   5.722   1.059  12.336  0.2484  0.4228  2.1716
  115CHL1   H7B14709   5.731   0.886  12.308  1.5306  2.5647 -1.2879
  115CHL1    C814710   5.534   0.989  12.259 -0.1517  0.2336  0.0887
  115CHL1    H814711   5.510   1.097  12.267 -1.0396  0.0106  0.5407
  115CHL1   C1414712   5.552   0.958  12.108  0.9140 -0.3856 -0.9563
  115CHL1   H1414713   5.568   0.848  12.111 -2.1044 -0.8989 -0.0437
  115CHL1   C1514714   5.668   1.030  12.029  0.0247 -0.3142 -0.3699
  115CHL1  H15A14715   5.663   1.137  12.056 -2.0440 -0.6645  0.9053
  115CHL1  H15B14716   5.766   0.987  12.057  0.2676  0.8693  0.6719
  115CHL1   C1614717   5.636   1.001  11.885 -0.6297  0.8702  0.7999
  115CHL1  H16A14718   5.656   1.092  11.824 -0.0550 -0.6375 -1.3936
  115CHL1  H16B14719   5.697   0.917  11.846 -1.0928  0.3472  1.1917
  115CHL1   C1714720   5.493   0.943  11.882  0.5983  0.7385  0.1139
  115CHL1   H1714721   5.496   0.832  11.875 -1.4233  0.5234  1.8557
  115CHL1   C1314722   5.430   0.977  12.020  0.0867  0.1643  0.4909
  115CHL1   C1814723   5.387   1.124  12.024  0.2895 -0.2677  0.8545
  115CHL1  H18A14724   5.296   1.151  11.967  1.5770 -3.5321 -3.2409
  115CHL1  H18B14725   5.380   1.170  12.125 -2.2547  1.1238  0.1180
  115CHL1  H18C14726   5.474   1.184  11.989  1.1813 -0.8811  1.9559
  115CHL1   C1214727   5.316   0.887  12.076  0.3640 -0.4604 -0.2414
  115CHL1  H12A14728   5.215   0.912  12.039  0.3446 -1.7916 -1.1488
  115CHL1  H12B14729   5.337   0.782  12.046  0.9034 -0.3887 -0.1304
  115CHL1   C1114730   5.293   0.908  12.228  0.6342 -0.4467 -0.1480
  115CHL1  H11A14731   5.230   1.000  12.230  0.3149 -0.6515 -0.5397
  115CHL1  H11B14732   5.220   0.828  12.254 -1.0134  1.4420  1.4575
  115CHL1    C914733   5.417   0.905  12.315  0.8246  0.0991 -0.3488
  115CHL1    H914734   5.449   0.799  12.308  0.9475  0.0470  0.8076
  115CHL1   C1014735   5.385   0.931  12.464 -0.9813 -0.1946  0.2863
  115CHL1   C1914736   5.321   1.068  12.476  0.6699 -0.0029 -0.9930
  115CHL1  H19A14737   5.386   1.149  12.436  3.1132 -1.2768  0.1304
  115CHL1  H19B14738   5.225   1.086  12.425  1.0102  2.1681 -0.9915
  115CHL1  H19C14739   5.299   1.084  12.584 -0.1746 -1.1616 -0.9732
  115CHL1    C114740   5.304   0.809  12.509  0.2768  0.2081 -0.1120
  115CHL1   H1A14741   5.200   0.803  12.471  0.6086 -0.1114 -1.0140
  115CHL1   H1B14742   5.351   0.714  12.474 -2.1667 -2.0452  2.2485
  115CHL1    C214743   5.300   0.784  12.666 -0.3477 -0.2577  0.2959
  115CHL1   H2A14744   5.271   0.679  12.692  0.9582 -0.2166  2.1226
  115CHL1   H2B14745   5.216   0.845  12.706 -0.4953 -0.5608  0.4571
  115CHL1   C2014746   5.423   0.997  11.758  0.3802 -0.1232  0.3823
  115CHL1   H2014747   5.426   1.107  11.776  0.1203 -0.2468  1.2429
  115CHL1   C2114748   5.280   0.947  11.746  0.6044  0.2757 -0.6746
  115CHL1  H21A14749   5.227   0.987  11.835  1.0303 -0.1697 -0.2156
  115CHL1  H21B14750   5.275   0.836  11.739  0.9368  0.2891 -1.2190
  115CHL1  H21C14751   5.218   0.993  11.666 -0.4580  1.2696  0.6714
  115CHL1   C2214752   5.503   0.962  11.635  0.6288 -0.1159 -0.2939
  115CHL1  H22A14753   5.596   1.023  11.635 -0.2694  1.3514 -1.7706
  115CHL1  H22B14754   5.533   0.855  11.636 -0.9321 -0.6237 -1.9411
  115CHL1   C2314755   5.435   1.014  11.507 -0.0077 -0.0395 -0.3586
  115CHL1  H23A14756   5.337   0.964  11.490  0.5815 -0.6212 -2.4253
  115CHL1  H23B14757   5.409   1.122  11.519 -0.7928 -0.4178  1.8394
  115CHL1   C2414758   5.518   0.996  11.371 -0.3495  0.6860 -0.3029
  115CHL1  H24A14759   5.621   1.036  11.386  0.1943 -1.2255  1.5661
  115CHL1  H24B14760   5.531   0.886  11.365  0.2241  0.8008 -1.6282
  115CHL1   C2514761   5.455   1.047  11.248  0.5909  0.0767  0.1207
  115CHL1   H2514762   5.357   0.994  11.247  0.1115  0.9221 -1.0190
  115CHL1   C2614763   5.442   1.202  11.260  0.7604  0.4101  0.1139
  115CHL1  H26A14764   5.356   1.227  11.325  1.0628 -0.1259  0.7440
  115CHL1  H26B14765   5.528   1.253  11.308  0.9989 -0.3975  0.5813
  115CHL1  H26C14766   5.418   1.248  11.162 -0.3702  0.4134  0.3828
  115CHL1   C2714767   5.539   1.014  11.118  0.2957 -0.6809  0.2151
  115CHL1  H27A14768   5.628   1.081  11.124 -0.2766  0.3228 -1.6125
  115CHL1  H27B14769   5.562   0.907  11.103  1.9656 -0.1865 -0.9435
  115CHL1  H27C14770   5.495   1.043  11.020  1.6834 -0.9545 -0.5071
  116CHL1    C314771   5.685   1.272  12.836  0.0710  0.3734 -0.4528
  116CHL1    H314772   5.719   1.169  12.814  1.0254  0.5450  0.1777
  116CHL1    O314773   5.681   1.287  12.975  0.4983  0.3065 -0.4105
  116CHL1   H3'14774   5.755   1.339  13.009  1.9142 -1.4343 -0.6787
  116CHL1    C414775   5.796   1.365  12.792 -0.1085  0.0359 -0.0287
  116CHL1   H4A14776   5.784   1.466  12.837 -1.1567  0.4777 -1.2470
  116CHL1   H4B14777   5.894   1.327  12.827  0.1818 -0.1806 -1.0500
  116CHL1    C514778   5.796   1.381  12.646 -0.4248 -0.5987  0.8784
  116CHL1    C614779   5.906   1.350  12.572 -0.2972  0.0690  0.0656
  116CHL1    H614780   5.998   1.318  12.624 -0.0301  1.6393  0.6036
  116CHL1    C714781   5.916   1.365  12.424 -0.3679  0.4824  0.1297
  116CHL1   H7A14782   6.012   1.414  12.399 -0.4638  1.1453  1.0237
  116CHL1   H7B14783   5.921   1.262  12.382  0.0678 -0.2119  1.8198
  116CHL1    C814784   5.797   1.442  12.362 -0.5429  0.4067 -0.0020
  116CHL1    H814785   5.812   1.550  12.383 -0.6562  0.5225 -0.4913
  116CHL1   C1414786   5.789   1.419  12.206 -0.1121 -0.0461  0.1629
  116CHL1   H1414787   5.776   1.308  12.199  1.4601 -0.2442  0.0094
  116CHL1   C1514788   5.916   1.454  12.117  0.2280  0.3786 -0.4862
  116CHL1  H15A14789   5.970   1.541  12.160  1.0352 -1.1373  1.8029
  116CHL1  H15B14790   5.974   1.359  12.115 -0.3934 -0.0393  0.3778
  116CHL1   C1614791   5.867   1.469  11.972 -0.1465 -0.4205  0.0772
  116CHL1  H16A14792   5.894   1.571  11.936 -0.2324 -0.4564 -0.0900
  116CHL1  H16B14793   5.895   1.385  11.905  1.3960 -0.4651  0.7198
  116CHL1   C1714794   5.713   1.457  11.978  0.1614  0.4552  0.5709
  116CHL1   H1714795   5.692   1.349  11.967  1.2534  0.2981 -0.0476
  116CHL1   C1314796   5.676   1.490  12.131  0.2056 -0.8748 -0.1407
  116CHL1   C1814797   5.698   1.645  12.150 -0.4492  0.6247 -0.3195
  116CHL1  H18A14798   5.794   1.686  12.113 -0.1398  0.3989  0.2226
  116CHL1  H18B14799   5.609   1.689  12.100 -1.8143 -1.5558  0.0444
  116CHL1  H18C14800   5.706   1.667  12.259 -0.6246 -0.2192 -0.1232
  116CHL1   C1214801   5.543   1.445  12.191 -0.0255 -0.0338  0.0324
  116CHL1  H12A14802   5.456   1.495  12.144 -0.3404 -1.1769 -0.6373
  116CHL1  H12B14803   5.530   1.337  12.168 -2.5893  0.5557 -1.7482
  116CHL1   C1114804   5.542   1.462  12.343  0.2306  0.2604 -0.3321
  116CHL1  H11A14805   5.544   1.573  12.352  0.8420  0.1177  1.9280
  116CHL1  H11B14806   5.448   1.419  12.386  1.6506 -1.3338  1.3573
  116CHL1    C914807   5.666   1.401  12.418 -0.2423 -0.3668 -0.5056
  116CHL1    H914808   5.654   1.293  12.395  3.8666 -0.7790 -1.4879
  116CHL1   C1014809   5.663   1.411  12.576  0.4321 -1.2672  0.0613
  116CHL1   C1914810   5.633   1.555  12.620 -0.5563 -0.0918  0.0032
  116CHL1  H19A14811   5.533   1.592  12.589 -0.5132  0.9113  1.0033
  116CHL1  H19B14812   5.641   1.556  12.731 -0.8651 -0.6278  0.0329
  116CHL1  H19C14813   5.708   1.630  12.587 -0.6935  0.3495  0.6767
  116CHL1    C114814   5.550   1.314  12.626  0.2262 -0.4889  0.1668
  116CHL1   H1A14815   5.450   1.353  12.599  0.5224  0.9701  1.0488
  116CHL1   H1B14816   5.570   1.212  12.587  0.3111 -0.7439  0.8584
  116CHL1    C214817   5.551   1.302  12.780 -0.0680  0.3805  0.6267
  116CHL1   H2A14818   5.475   1.228  12.813 -1.8758  1.5821 -0.7070
  116CHL1   H2B14819   5.520   1.397  12.828 -0.2383  0.4095  0.4588
  116CHL1   C2014820   5.641   1.532  11.872  0.7375  0.3770  0.1983
  116CHL1   H2014821   5.534   1.537  11.900  0.4848 -0.9836 -0.4216
  116CHL1   C2114822   5.639   1.438  11.742 -0.3752 -0.1061  0.8384
  116CHL1  H21A14823   5.740   1.405  11.708 -0.2710  0.6848  0.3520
  116CHL1  H21B14824   5.591   1.495  11.659 -1.2133 -0.7720  0.8554
  116CHL1  H21C14825   5.580   1.345  11.758  3.3137 -2.7614  0.3763
  116CHL1   C2214826   5.703   1.664  11.826  1.1299 -0.4158  0.2873
  116CHL1  H22A14827   5.751   1.723  11.907 -0.2401  3.1137 -1.2489
  116CHL1  H22B14828   5.779   1.644  11.747 -0.2951  1.9002 -1.8102
  116CHL1   C2314829   5.594   1.758  11.766 -0.3107 -0.2452 -0.6413
  116CHL1  H23A14830   5.544   1.703  11.684 -1.8911 -1.0113  0.7569
  116CHL1  H23B14831   5.523   1.772  11.851  0.6512  0.0327  0.1308
  116CHL1   C2414832   5.652   1.893  11.726  0.1142  0.4887  0.1208
  116CHL1  H24A14833   5.746   1.905  11.784 -0.5953  0.1652  1.3796
  116CHL1  H24B14834   5.683   1.880  11.620 -1.5754  1.9834 -0.6072
  116CHL1   C2514835   5.567   2.019  11.753 -0.2922  0.1044  0.0717
  116CHL1   H2514836   5.543   2.005  11.861  0.6039  0.6208  0.3495
  116CHL1   C2614837   5.661   2.134  11.721 -0.2367  0.0992 -0.1453
  116CHL1  H26A14838   5.698   2.122  11.617  0.8172 -2.0166  0.4192
  116CHL1  H26B14839   5.624   2.239  11.726 -2.5628 -0.6747  0.0325
  116CHL1  H26C14840   5.757   2.129  11.777  0.5434  2.1366 -1.1884
  116CHL1   C2714841   5.435   2.042  11.667  0.9870 -0.5242 -0.1177
  116CHL1  H27A14842   5.447   2.033  11.557  1.1471 -0.5496 -0.0981
  116CHL1  H27B14843   5.370   1.955  11.693  2.6317 -1.7292  0.1189
  116CHL1  H27C14844   5.398   2.144  11.690 -0.2908 -0.9987  0.0538
  117CHL1    C314845   0.083   1.582  12.546 -0.3822  0.3682 -0.5537
  117CHL1    H314846   0.097   1.691  12.532  2.3886  0.0708 -0.6011
  117CHL1    O314847   0.021   1.558  12.676  0.5074  0.0244 -0.1396
  117CHL1   H3'14848   0.044   1.470  12.706 -0.3487 -0.1895 -0.0944
  117CHL1    C414849  -0.007   1.522  12.453  0.7651 -0.3794 -0.5623
  117CHL1   H4A14850  -0.012   1.413  12.472  0.2950 -0.9349 -3.3433
  117CHL1   H4B14851  -0.101   1.577  12.476  1.3488 -0.2535  1.7959
  117CHL1    C514852   0.052   1.530  12.312 -0.3180  0.6883 -0.3964
  117CHL1    C614853  -0.002   1.616  12.224  0.8180  0.6799 -0.6675
  117CHL1    H614854  -0.096   1.667  12.249  0.2997  0.9574 -2.9031
  117CHL1    C714855   0.051   1.644  12.087 -0.1464 -0.1770 -0.0406
  117CHL1   H7A14856  -0.028   1.644  12.010 -1.4900 -1.5498  1.2688
  117CHL1   H7B14857   0.111   1.738  12.087 -0.2166 -0.1207 -1.2578
  117CHL1    C814858   0.143   1.523  12.042 -0.0911 -0.2739  1.0328
  117CHL1    H814859   0.082   1.433  12.017  2.0054 -1.8886  1.4437
  117CHL1   C1414860   0.225   1.572  11.911  0.2820  0.0819 -0.0528
  117CHL1   H1414861   0.295   1.651  11.946 -2.0723  2.9717 -1.5175
  117CHL1   C1514862   0.145   1.618  11.792  0.3608  0.2193 -0.3341
  117CHL1  H15A14863   0.053   1.556  11.794 -0.6536  1.6579 -1.2660
  117CHL1  H15B14864   0.115   1.724  11.799 -0.7114  0.1222 -2.5060
  117CHL1   C1614865   0.235   1.602  11.670  0.0694 -0.1488 -0.3168
  117CHL1  H16A14866   0.189   1.526  11.603  1.9158 -2.2048  0.6629
  117CHL1  H16B14867   0.244   1.704  11.625 -1.7534 -0.5794 -1.8125
  117CHL1   C1714868   0.362   1.535  11.728 -0.0886 -0.3304  0.3038
  117CHL1   H1714869   0.429   1.620  11.755  1.5506 -1.1991 -0.7793
  117CHL1   C1314870   0.312   1.464  11.857 -0.5391  0.2904  0.6359
  117CHL1   C1814871   0.234   1.342  11.808 -0.3180 -0.8659 -0.3818
  117CHL1  H18A14872   0.155   1.359  11.731 -0.0586  1.4113 -0.2193
  117CHL1  H18B14873   0.300   1.264  11.766 -2.1878 -1.9751 -1.4201
  117CHL1  H18C14874   0.176   1.294  11.890 -0.8839 -1.2603 -0.9971
  117CHL1   C1214875   0.416   1.424  11.956 -0.4705 -0.2571 -0.3753
  117CHL1  H12A14876   0.472   1.333  11.922  0.4511  0.9700 -2.3196
  117CHL1  H12B14877   0.488   1.509  11.962 -0.8310  0.1284 -1.4353
  117CHL1   C1114878   0.346   1.373  12.087 -0.5742  0.1859  0.1885
  117CHL1  H11A14879   0.299   1.275  12.065 -0.7145  0.1147  0.7953
  117CHL1  H11B14880   0.428   1.347  12.157  0.1636 -0.9244 -1.0537
  117CHL1    C914881   0.253   1.481  12.145  0.1969 -0.2736  0.3642
  117CHL1    H914882   0.316   1.573  12.141  0.8203 -0.7381 -1.1329
  117CHL1   C1014883   0.190   1.458  12.284  0.4289 -0.3601  0.6242
  117CHL1   C1914884   0.163   1.303  12.304  0.2305  0.5178 -0.8461
  117CHL1  H19A14885   0.078   1.275  12.238  0.0100  0.4291 -0.5268
  117CHL1  H19B14886   0.242   1.227  12.282 -0.1439 -0.1263 -0.0400
  117CHL1  H19C14887   0.132   1.279  12.408 -0.8532 -0.5852 -1.3921
  117CHL1    C114888   0.279   1.514  12.393  0.0027  0.3746  0.6638
  117CHL1   H1A14889   0.378   1.463  12.395  0.6268  1.4071 -1.3720
  117CHL1   H1B14890   0.292   1.621  12.367 -2.2639  0.4557 -0.4024
  117CHL1    C214891   0.221   1.504  12.534 -0.3871  0.3713 -0.1561
  117CHL1   H2A14892   0.295   1.546  12.605  1.5694  0.2662 -2.0291
  117CHL1   H2B14893   0.206   1.398  12.566  0.7340  0.1095 -0.4666
  117CHL1   C2014894   0.435   1.455  11.619 -0.8514  0.6346 -0.7583
  117CHL1   H2014895   0.365   1.387  11.566 -1.9253  2.3246 -1.5851
  117CHL1   C2114896   0.560   1.379  11.673 -0.3119 -0.3871 -0.6613
  117CHL1  H21A14897   0.618   1.331  11.591  1.9837  1.3560 -0.1487
  117CHL1  H21B14898   0.531   1.295  11.740  1.2418 -0.7327 -0.3787
  117CHL1  H21C14899   0.629   1.449  11.725  0.7191 -0.7330 -1.5357
  117CHL1   C2214900   0.485   1.549  11.501 -0.6279 -0.1045 -0.7942
  117CHL1  H22A14901   0.399   1.608  11.462 -2.5268 -2.1133  0.1645
  117CHL1  H22B14902   0.561   1.616  11.547  0.5786 -1.9622  0.0042
  117CHL1   C2314903   0.557   1.481  11.379 -0.3662 -0.2974  0.2483
  117CHL1  H23A14904   0.655   1.443  11.415 -0.4553 -0.7729  0.0071
  117CHL1  H23B14905   0.489   1.401  11.341 -1.1616  0.4185  0.1364
  117CHL1   C2414906   0.588   1.581  11.265  0.1100 -0.6518  0.3621
  117CHL1  H24A14907   0.491   1.627  11.236  0.8428  1.1774  0.6491
  117CHL1  H24B14908   0.655   1.661  11.303 -0.8599  1.1424 -1.5392
  117CHL1   C2514909   0.640   1.516  11.138  0.0144 -0.0691  0.1765
  117CHL1   H2514910   0.576   1.433  11.104  0.4134  0.1798 -1.2745
  117CHL1   C2614911   0.646   1.627  11.031 -0.1477  0.0098  0.5718
  117CHL1  H26A14912   0.547   1.675  11.018 -0.4567 -1.2074 -2.2539
  117CHL1  H26B14913   0.727   1.698  11.057 -1.2489  1.5743 -0.0960
  117CHL1  H26C14914   0.669   1.572  10.937 -0.0464 -1.3514  1.3768
  117CHL1   C2714915   0.778   1.451  11.166 -0.6166  0.3966 -0.1805
  117CHL1  H27A14916   0.828   1.423  11.071 -0.1147 -0.2400  0.2595
  117CHL1  H27B14917   0.846   1.516  11.224  0.2164 -2.8951  2.9213
  117CHL1  H27C14918   0.765   1.361  11.230  2.8368 -2.2778 -2.8619
  118CHL1    C314919   2.676   2.845  13.536 -0.4494  0.1169 -0.5643
  118CHL1    H314920   2.748   2.762  13.521 -2.3522 -1.9070  0.8403
  118CHL1    O314921   2.634   2.847  13.676 -0.1225  0.7227 -0.3235
  118CHL1   H3'14922   2.556   2.903  13.679 -0.5685  0.0591  2.0154
  118CHL1    C414923   2.730   2.981  13.508 -0.1589 -0.6302  0.1524
  118CHL1   H4A14924   2.660   3.064  13.533 -1.1958 -0.8035 -1.9792
  118CHL1   H4B14925   2.816   3.005  13.574  0.9942  1.3112 -1.8944
  118CHL1    C514926   2.763   2.999  13.364  0.1717  0.4589  0.5893
  118CHL1    C614927   2.887   3.034  13.318 -0.2487  0.4209 -0.6388
  118CHL1    H614928   2.973   3.037  13.386  0.8096  0.3615 -1.9211
  118CHL1    C714929   2.918   3.058  13.169  0.3554  0.4417 -0.1629
  118CHL1   H7A14930   2.978   3.151  13.166  0.4626  0.3605 -0.6138
  118CHL1   H7B14931   2.974   2.979  13.114  0.0158  0.2742 -0.2736
  118CHL1    C814932   2.791   3.073  13.079 -0.0780  0.1697  0.1362
  118CHL1    H814933   2.747   3.174  13.096  2.8326  1.5396  0.1089
  118CHL1   C1414934   2.832   3.069  12.937 -0.0567 -0.1686  0.1086
  118CHL1   H1414935   2.887   2.974  12.921 -0.6581 -0.6797  0.9593
  118CHL1   C1514936   2.930   3.168  12.883  0.2294 -0.4889 -0.4745
  118CHL1  H15A14937   2.904   3.265  12.930  2.3462  1.0318 -2.2380
  118CHL1  H15B14938   3.034   3.137  12.910 -0.1837 -1.5762 -0.0733
  118CHL1   C1614939   2.913   3.164  12.735  0.4171 -0.1224  0.2784
  118CHL1  H16A14940   2.897   3.273  12.716  2.3362  0.1574  0.0392
  118CHL1  H16B14941   3.002   3.126  12.682 -0.3673 -0.4904 -0.8081
  118CHL1   C1714942   2.797   3.071  12.709 -0.1878 -0.4014  0.2151
  118CHL1   H1714943   2.832   2.966  12.701 -0.1932 -0.3188 -1.0287
  118CHL1   C1314944   2.715   3.065  12.840 -1.1832 -0.5660  0.0400
  118CHL1   C1814945   2.621   3.185  12.844 -0.6212 -0.0787  0.2107
  118CHL1  H18A14946   2.686   3.269  12.811  0.7455 -1.6535 -1.2991
  118CHL1  H18B14947   2.539   3.183  12.768 -0.4835  0.1475  0.0538
  118CHL1  H18C14948   2.584   3.209  12.946 -0.3504 -1.8361  0.7559
  118CHL1   C1214949   2.636   2.932  12.878  1.0972 -0.6930 -0.0701
  118CHL1  H12A14950   2.560   2.925  12.797 -0.4183  2.7807  0.8740
  118CHL1  H12B14951   2.703   2.843  12.877 -0.1835 -1.6996 -1.8884
  118CHL1   C1114952   2.564   2.947  13.019 -0.8659  0.2360 -0.4644
  118CHL1  H11A14953   2.488   3.028  13.025  1.5857  2.5781  4.1299
  118CHL1  H11B14954   2.521   2.847  13.042  1.8706 -0.3272  3.0162
  118CHL1    C914955   2.688   2.964  13.119 -0.1408 -0.6754 -0.2128
  118CHL1    H914956   2.728   2.860  13.117  0.4323 -0.4686  0.2540
  118CHL1   C1014957   2.644   2.977  13.264  0.1725 -0.1251  0.0994
  118CHL1   C1914958   2.545   3.096  13.284 -0.0651  0.2157  0.0874
  118CHL1  H19A14959   2.603   3.184  13.247 -0.7075  0.2227 -0.9647
  118CHL1  H19B14960   2.457   3.074  13.219  1.6145 -2.5786 -1.4583
  118CHL1  H19C14961   2.511   3.119  13.387  0.1507  2.3481 -0.2530
  118CHL1    C114962   2.578   2.836  13.301 -0.2919 -0.1033  0.3851
  118CHL1   H1A14963   2.490   2.821  13.235 -0.3781 -0.1971  0.5207
  118CHL1   H1B14964   2.661   2.765  13.277 -0.1656  0.4753 -0.9935
  118CHL1    C214965   2.547   2.823  13.447 -0.4649  0.0709 -0.2000
  118CHL1   H2A14966   2.495   2.727  13.469  0.0732 -0.1153  0.3108
  118CHL1   H2B14967   2.479   2.907  13.469  1.4067  0.7538  3.8651
  118CHL1   C2014968   2.729   3.101  12.575  0.0686  0.3677 -0.4583
  118CHL1   H2014969   2.707   3.209  12.590  3.6194  0.9199  1.9888
  118CHL1   C2114970   2.597   3.024  12.555 -0.0604  0.3639  0.4110
  118CHL1  H21A14971   2.554   3.037  12.454 -0.9973 -1.2452  0.5830
  118CHL1  H21B14972   2.518   3.062  12.624 -1.4694 -0.5940 -0.6373
  118CHL1  H21C14973   2.613   2.918  12.582  0.6884  0.3583 -0.0121
  118CHL1   C2214974   2.812   3.085  12.451 -0.1909  0.1478  0.5809
  118CHL1  H22A14975   2.913   3.129  12.462  0.6955 -2.0424  1.9019
  118CHL1  H22B14976   2.825   2.976  12.434 -0.4191  0.2199 -0.0662
  118CHL1   C2314977   2.747   3.152  12.333 -0.1051 -0.0846  0.5373
  118CHL1  H23A14978   2.662   3.090  12.299  0.9215 -0.8677 -0.7181
  118CHL1  H23B14979   2.699   3.249  12.357 -0.4768  0.0854 -0.7816
  118CHL1   C2414980   2.849   3.172  12.218 -0.2356 -0.3594 -0.4470
  118CHL1  H24A14981   2.925   3.244  12.257  1.5362 -1.8762 -0.9389
  118CHL1  H24B14982   2.903   3.078  12.191  1.4532  0.3750  0.2392
  118CHL1   C2514983   2.799   3.232  12.084  0.4418  0.1031 -0.4236
  118CHL1   H2514984   2.743   3.320  12.121  1.9668  1.0437 -0.2752
  118CHL1   C2614985   2.906   3.280  11.983 -0.4819 -0.2154 -0.3408
  118CHL1  H26A14986   2.974   3.348  12.039  0.6938 -1.7176  0.1104
  118CHL1  H26B14987   2.967   3.191  11.956 -0.7170  0.5972 -4.1304
  118CHL1  H26C14988   2.852   3.334  11.902 -0.1675 -0.9520 -1.0531
  118CHL1   C2714989   2.695   3.138  12.017 -0.4701  0.2159  0.6298
  118CHL1  H27A14990   2.749   3.049  11.978  0.9786  1.2754  0.1213
  118CHL1  H27B14991   2.601   3.121  12.073 -0.9469 -1.0072 -0.4883
  118CHL1  H27C14992   2.661   3.194  11.927  0.1752 -1.6783 -0.8753
  119CHL1    C314993   4.773   1.807  12.538  0.6311  0.1169  0.2987
  119CHL1    H314994   4.875   1.844  12.513  0.4181  0.1258 -0.5957
  119CHL1    O314995   4.760   1.817  12.674  0.1480 -0.4098  0.3401
  119CHL1   H3'14996   4.827   1.759  12.713 -0.2109 -0.9846  0.1139
  119CHL1    C414997   4.666   1.895  12.473  0.1715  0.2370  0.0590
  119CHL1   H4A14998   4.569   1.849  12.501 -0.3050  0.0412 -1.7700
  119CHL1   H4B14999   4.660   2.001  12.507 -0.9324  0.2593 -0.1726
  119CHL1    C515000   4.693   1.892  12.324  0.5423  0.3762  0.0062
  119CHL1    C615001   4.737   2.003  12.260  0.1952  0.5140 -0.4771
  119CHL1    H615002   4.752   2.091  12.324  0.0501 -0.0550  0.3588
  119CHL1    C715003   4.771   2.015  12.113  0.5466  0.2220  0.1307
  119CHL1   H7A15004   4.733   2.105  12.061 -1.6831 -0.6781  0.0956
  119CHL1   H7B15005   4.881   2.028  12.116  0.3247  2.3402  0.4285
  119CHL1    C815006   4.712   1.900  12.033 -0.2377 -0.1322  0.0369
  119CHL1    H815007   4.602   1.920  12.029 -0.3118  0.6440  3.0154
  119CHL1   C1415008   4.779   1.896  11.891 -0.4393  0.0979  0.0127
  119CHL1   H1415009   4.882   1.857  11.904 -1.2635 -1.9261  1.0020
  119CHL1   C1515010   4.781   2.028  11.811  0.1202  0.5177 -0.5796
  119CHL1  H15A15011   4.698   2.098  11.834  0.1500  0.9314 -1.6631
  119CHL1  H15B15012   4.876   2.081  11.833  0.7247 -0.0561 -1.7087
  119CHL1   C1615013   4.794   1.982  11.670 -0.2231  0.3846  0.6382
  119CHL1  H16A15014   4.714   2.028  11.609  0.7608 -2.5558 -3.3291
  119CHL1  H16B15015   4.886   2.023  11.623 -0.1165  0.3357  0.8018
  119CHL1   C1715016   4.786   1.825  11.660  0.2433  0.6159  0.8400
  119CHL1   H1715017   4.886   1.778  11.663  0.5693  0.8034 -2.7679
  119CHL1   C1315018   4.714   1.794  11.801 -0.4366 -0.4173 -0.4040
  119CHL1   C1815019   4.561   1.806  11.779 -1.0204 -0.4215  0.1658
  119CHL1  H18A15020   4.536   1.897  11.720 -0.1644 -1.4993 -1.9733
  119CHL1  H18B15021   4.503   1.723  11.734  0.5267 -2.5654  1.9330
  119CHL1  H18C15022   4.515   1.810  11.880  0.5990 -0.5446  0.9474
  119CHL1   C1215023   4.743   1.654  11.864 -0.4240 -0.1281  0.4558
  119CHL1  H12A15024   4.711   1.561  11.813  2.4576 -2.1872  2.1087
  119CHL1  H12B15025   4.853   1.645  11.869 -0.1695  0.7517 -2.0373
  119CHL1   C1115026   4.686   1.647  12.011  0.3183 -0.2191 -0.2496
  119CHL1  H11A15027   4.575   1.648  12.002 -0.1148 -0.9394  3.5588
  119CHL1  H11B15028   4.709   1.545  12.048  1.0638  0.2754  0.6903
  119CHL1    C915029   4.730   1.759  12.101  0.0203 -0.2079 -0.1734
  119CHL1    H915030   4.841   1.756  12.107  0.1088  0.0822 -1.3035
  119CHL1   C1015031   4.685   1.755  12.249 -0.3685  0.0156 -0.1889
  119CHL1   C1915032   4.535   1.712  12.255 -0.2838  0.2163  0.5521
  119CHL1  H19A15033   4.513   1.606  12.232 -1.4726  0.1966  1.6665
  119CHL1  H19B15034   4.499   1.727  12.359 -1.2269 -0.6348  0.3586
  119CHL1  H19C15035   4.471   1.773  12.187 -0.5632 -0.6589  0.0140
  119CHL1    C115036   4.777   1.660  12.334 -0.3972  0.3308  0.4190
  119CHL1   H1A15037   4.760   1.554  12.304 -2.4591  1.0905 -1.3435
  119CHL1   H1B15038   4.887   1.669  12.318 -0.0730 -1.5847  1.2532
  119CHL1    C215039   4.770   1.666  12.487 -0.0348  0.6750 -1.1114
  119CHL1   H2A15040   4.842   1.597  12.536 -1.2407 -0.5783 -1.0465
  119CHL1   H2B15041   4.683   1.605  12.521  1.5189 -0.4184  1.1125
  119CHL1   C2015042   4.734   1.773  11.523 -0.5021 -0.7498  0.4673
  119CHL1   H2015043   4.628   1.805  11.513 -0.6120 -0.9703  0.8941
  119CHL1   C2115044   4.729   1.623  11.549 -0.3757  0.8181 -0.1607
  119CHL1  H21A15045   4.701   1.560  11.462  1.8232  0.8751 -0.9510
  119CHL1  H21B15046   4.652   1.594  11.624 -0.6269 -0.9587 -1.0563
  119CHL1  H21C15047   4.823   1.579  11.588 -1.6043 -4.4089 -2.1553
  119CHL1   C2215048   4.816   1.816  11.407  0.3473  0.0648  0.0869
  119CHL1  H22A15049   4.801   1.924  11.389 -0.5735  0.0669  0.8012
  119CHL1  H22B15050   4.924   1.817  11.432 -0.0096  3.3171  1.8952
  119CHL1   C2315051   4.795   1.743  11.275  0.1426  0.4802  0.3391
  119CHL1  H23A15052   4.871   1.785  11.206 -1.5226  0.9944 -1.2567
  119CHL1  H23B15053   4.812   1.633  11.276 -2.0465  0.0812 -0.0966
  119CHL1   C2415054   4.658   1.764  11.204  0.5769 -0.3955 -0.3053
  119CHL1  H24A15055   4.574   1.763  11.276 -1.2280  0.9946 -2.2848
  119CHL1  H24B15056   4.646   1.870  11.172 -2.8926 -0.0170  1.7690
  119CHL1   C2515057   4.632   1.662  11.089 -0.5731  0.6662  0.4376
  119CHL1   H2515058   4.629   1.561  11.133 -1.6778  0.0812 -0.9065
  119CHL1   C2615059   4.501   1.686  11.008  1.1134 -0.7104 -0.2692
  119CHL1  H26A15060   4.508   1.631  10.911  1.9331  1.3835 -1.4584
  119CHL1  H26B15061   4.412   1.650  11.065  0.3915  1.3389 -0.0408
  119CHL1  H26C15062   4.480   1.794  10.997 -0.1568 -0.1778  4.7693
  119CHL1   C2715063   4.749   1.648  10.983  0.2660  0.3511 -0.2173
  119CHL1  H27A15064   4.849   1.629  11.026  0.3537 -1.2699 -1.0433
  119CHL1  H27B15065   4.726   1.563  10.915 -2.6963 -0.4650  1.5716
  119CHL1  H27C15066   4.764   1.738  10.920  1.3091 -0.0496 -0.5511
  120CHL1    C315067   2.456   1.827  12.907  0.5629 -0.1237 -0.4614
  120CHL1    H315068   2.462   1.718  12.924  0.7983 -0.1332 -0.5977
  120CHL1    O315069   2.466   1.882  13.037  0.1459  0.1209  0.2281
  120CHL1   H3'15070   2.434   1.972  13.036 -0.1209  0.0259 -1.4372
  120CHL1    C415071   2.582   1.861  12.820  0.0800 -0.5485  0.4827
  120CHL1   H4A15072   2.588   1.972  12.829 -1.0344 -0.5039  0.8512
  120CHL1   H4B15073   2.670   1.818  12.872  0.8020 -1.2205 -1.1962
  120CHL1    C515074   2.581   1.818  12.673  0.6389 -0.1739 -0.2812
  120CHL1    C615075   2.679   1.750  12.621 -0.2280  0.5061  0.3780
  120CHL1    H615076   2.773   1.740  12.677  0.6713  2.4106 -0.7144
  120CHL1    C715077   2.682   1.710  12.473  0.7556  0.0355  0.3859
  120CHL1   H7A15078   2.776   1.751  12.430 -0.2515  1.0140 -0.9645
  120CHL1   H7B15079   2.676   1.600  12.459 -1.3456  0.2380 -0.6250
  120CHL1    C815080   2.559   1.762  12.395 -0.1563 -0.3490  0.3970
  120CHL1    H815081   2.573   1.870  12.373 -0.9260  0.7231  4.2890
  120CHL1   C1415082   2.552   1.683  12.263  0.1215 -0.1544  0.1287
  120CHL1   H1415083   2.544   1.577  12.293 -0.0811 -0.2596 -0.2857
  120CHL1   C1515084   2.670   1.659  12.161 -0.8741  0.3783 -0.1429
  120CHL1  H15A15085   2.715   1.760  12.155 -1.2177  0.7247  2.1317
  120CHL1  H15B15086   2.738   1.577  12.194 -0.6188  0.1891 -1.0941
  120CHL1   C1615087   2.605   1.634  12.026 -0.0142 -0.0801  0.0449
  120CHL1  H16A15088   2.625   1.706  11.945  0.5912 -2.7510 -2.3544
  120CHL1  H16B15089   2.634   1.530  11.997  0.6042 -0.1664  0.9093
  120CHL1   C1715090   2.449   1.631  12.051  0.1214  0.4212  0.0107
  120CHL1   H1715091   2.430   1.524  12.075  0.7232 -0.3404 -2.6254
  120CHL1   C1315092   2.433   1.719  12.175 -0.0126  0.0271  0.0805
  120CHL1   C1815093   2.447   1.867  12.138  0.2300  0.4382 -0.1482
  120CHL1  H18A15094   2.535   1.884  12.072  0.6969 -0.5087  0.2167
  120CHL1  H18B15095   2.357   1.906  12.085  0.0809  1.6966  0.9673
  120CHL1  H18C15096   2.446   1.940  12.222 -2.9961  1.3207 -0.8023
  120CHL1   C1215097   2.307   1.694  12.256  0.3351 -0.2413  0.1302
  120CHL1  H12A15098   2.216   1.723  12.199 -0.3804 -0.0106  1.3592
  120CHL1  H12B15099   2.292   1.589  12.287 -1.7483  0.4914  1.8626
  120CHL1   C1115100   2.305   1.767  12.395  1.0730 -0.8605 -0.2500
  120CHL1  H11A15101   2.298   1.878  12.384  0.6200 -0.8646 -0.0240
  120CHL1  H11B15102   2.218   1.724  12.448  0.0928 -0.1470 -1.2357
  120CHL1    C915103   2.434   1.743  12.475 -0.1594 -0.2500 -0.0335
  120CHL1    H915104   2.425   1.640  12.514  0.5567 -1.1673 -2.1199
  120CHL1   C1015105   2.440   1.835  12.601 -0.4591 -0.3373  0.4770
  120CHL1   C1915106   2.426   1.993  12.577 -0.0756 -0.7855  0.0989
  120CHL1  H19A15107   2.321   2.023  12.554  0.1355 -0.1211 -0.0057
  120CHL1  H19B15108   2.453   2.057  12.664 -0.7127 -0.5812  0.1497
  120CHL1  H19C15109   2.487   2.033  12.494 -0.2053  1.4498  1.0033
  120CHL1    C115110   2.319   1.797  12.694  0.7689 -0.0324 -0.1625
  120CHL1   H1A15111   2.225   1.823  12.641  0.5514  1.4044  0.8626
  120CHL1   H1B15112   2.306   1.687  12.704 -0.3006  0.0201 -0.8250
  120CHL1    C215113   2.326   1.863  12.837  0.4154 -0.3299 -0.0008
  120CHL1   H2A15114   2.239   1.840  12.903 -1.5002  0.3130 -2.1767
  120CHL1   H2B15115   2.323   1.972  12.817  1.5201  0.0086  1.5510
  120CHL1   C2015116   2.372   1.666  11.925  0.1302 -0.5541  0.2429
  120CHL1   H2015117   2.388   1.775  11.908 -0.1074 -0.2644  1.7245
  120CHL1   C2115118   2.221   1.646  11.932 -0.1895  0.0980 -0.6179
  120CHL1  H21A15119   2.209   1.552  11.992  0.5732  0.6868  0.4946
  120CHL1  H21B15120   2.183   1.630  11.829 -0.2722 -2.4088 -0.2695
  120CHL1  H21C15121   2.170   1.731  11.982 -0.3208 -0.4422  0.1891
  120CHL1   C2215122   2.418   1.584  11.793  0.3836  0.0849 -0.3345
  120CHL1  H22A15123   2.363   1.633  11.710 -1.0293 -1.8079 -0.5689
  120CHL1  H22B15124   2.527   1.593  11.775  0.1833  0.8501 -1.1963
  120CHL1   C2315125   2.384   1.434  11.791  0.3925  0.0150  0.0530
  120CHL1  H23A15126   2.447   1.374  11.860 -1.0856 -2.4679 -0.6187
  120CHL1  H23B15127   2.285   1.426  11.842  0.1652 -0.2018 -0.4088
  120CHL1   C2415128   2.376   1.381  11.644  0.4546  0.0997  0.0368
  120CHL1  H24A15129   2.321   1.448  11.575 -0.3381 -1.3460 -0.7753
  120CHL1  H24B15130   2.480   1.389  11.605 -0.6851  0.0436 -3.3381
  120CHL1   C2515131   2.331   1.233  11.620 -0.3277 -0.7517  0.7956
  120CHL1   H2515132   2.402   1.168  11.676  2.0278 -1.8848 -3.1352
  120CHL1   C2615133   2.191   1.204  11.663  0.2423  0.1111  0.0094
  120CHL1  H26A15134   2.177   1.094  11.673 -1.2719  0.3067  0.2313
  120CHL1  H26B15135   2.166   1.247  11.763  0.9720  0.8455 -0.1099
  120CHL1  H26C15136   2.113   1.242  11.594 -0.4758 -1.8093 -0.2931
  120CHL1   C2715137   2.349   1.193  11.474 -0.6186  0.0004  0.0563
  120CHL1  H27A15138   2.294   1.255  11.400  0.9551 -0.8153 -1.9109
  120CHL1  H27B15139   2.456   1.210  11.449 -0.7824  1.1637  0.1222
  120CHL1  H27C15140   2.332   1.087  11.445  0.0006  0.1413 -0.8987
  121CHL1    C315141   6.654   4.636   9.665 -0.5306  0.2202  0.0817
  121CHL1    H315142   6.574   4.690   9.720  0.4692  0.1021  1.7562
  121CHL1    O315143   6.634   4.646   9.525 -0.3207  0.9477 -0.1936
  121CHL1   H3'15144   6.607   4.560   9.494  2.3048  0.2403 -0.7437
  121CHL1    C415145   6.788   4.703   9.694 -0.0914 -0.6103  0.3656
  121CHL1   H4A15146   6.870   4.665   9.629  0.8513  0.7487  0.7196
  121CHL1   H4B15147   6.778   4.811   9.670 -1.6057 -1.0097 -0.9906
  121CHL1    C515148   6.825   4.685   9.839 -0.2431 -1.0525  0.7222
  121CHL1    C615149   6.855   4.797   9.912  0.1395  0.6250  0.1967
  121CHL1    H615150   6.865   4.895   9.862 -0.7698  1.8652  2.2895
  121CHL1    C715151   6.891   4.801  10.059 -0.4424 -0.1570  0.2819
  121CHL1   H7A15152   6.979   4.869  10.067 -1.0559  0.8384 -0.9859
  121CHL1   H7B15153   6.810   4.850  10.118 -0.0380  2.4241 -1.1683
  121CHL1    C815154   6.912   4.653  10.108 -0.2374 -0.5806 -0.1507
  121CHL1    H815155   7.013   4.621  10.076  0.3013 -0.2277  1.1436
  121CHL1   C1415156   6.905   4.655  10.260  0.1535 -0.2429  0.0057
  121CHL1   H1415157   6.803   4.686  10.290  1.0908  1.6612  1.4693
  121CHL1   C1515158   7.001   4.751  10.331  0.2315  0.1582 -0.4187
  121CHL1  H15A15159   7.106   4.740  10.296  0.3754 -0.8796  0.2603
  121CHL1  H15B15160   6.984   4.860  10.336  1.8533  0.4007  0.5600
  121CHL1   C1615161   6.996   4.695  10.472  0.3074  0.2088 -0.7022
  121CHL1  H16A15162   7.095   4.691  10.523 -0.6025 -0.2489  1.1349
  121CHL1  H16B15163   6.936   4.766  10.533  0.8580 -1.1415  1.5514
  121CHL1   C1715164   6.926   4.555  10.471  0.0533 -0.4955  0.5441
  121CHL1   H1715165   6.821   4.577  10.498  0.1897 -0.3231  0.9362
  121CHL1   C1315166   6.939   4.517  10.323  0.1454 -0.1287  0.2265
  121CHL1   C1815167   7.086   4.473  10.297  0.2308 -0.3181 -0.0963
  121CHL1  H18A15168   7.104   4.373  10.342  1.3750 -0.1728 -0.2143
  121CHL1  H18B15169   7.100   4.467  10.187 -3.0089  1.6596 -0.7604
  121CHL1  H18C15170   7.158   4.544  10.343 -0.5694  0.2401  0.3328
  121CHL1   C1215171   6.827   4.416  10.276 -0.0869  0.0474  0.1589
  121CHL1  H12A15172   6.845   4.313  10.312 -0.3472  0.8792  2.8840
  121CHL1  H12B15173   6.732   4.450  10.322 -0.5374  0.0492 -0.7534
  121CHL1   C1115174   6.817   4.403  10.119 -0.3250 -0.5123 -0.0865
  121CHL1  H11A15175   6.908   4.347  10.090  1.3237  0.3125  3.0215
  121CHL1  H11B15176   6.725   4.349  10.087  0.2612 -0.7561 -1.4016
  121CHL1    C915177   6.811   4.549  10.053 -0.1930  0.1123  0.1179
  121CHL1    H915178   6.712   4.588  10.085  0.4004 -0.7192  3.2309
  121CHL1   C1015179   6.812   4.546   9.900 -0.1801 -0.0744  0.5503
  121CHL1   C1915180   6.932   4.450   9.851  0.2476  0.5164  0.2538
  121CHL1  H19A15181   7.025   4.484   9.900  0.4095  0.2627  0.1284
  121CHL1  H19B15182   6.913   4.342   9.871  0.7964 -0.2939 -3.0052
  121CHL1  H19C15183   6.944   4.460   9.741 -2.4591  0.5417 -0.1135
  121CHL1    C115184   6.679   4.477   9.850  0.3805  0.2696 -0.7209
  121CHL1   H1A15185   6.679   4.370   9.880 -0.6217  0.6524  0.7444
  121CHL1   H1B15186   6.601   4.528   9.910  1.9882  2.4621 -0.3678
  121CHL1    C215187   6.657   4.494   9.703  0.6867  0.2153  0.1378
  121CHL1   H2A15188   6.557   4.451   9.683 -0.3837  1.2955  2.6774
  121CHL1   H2B15189   6.739   4.439   9.651 -1.0466 -1.3429 -1.0481
  121CHL1   C2015190   6.984   4.454  10.574  0.3584 -0.5687  0.1284
  121CHL1   H2015191   7.091   4.433  10.556  0.3373  1.0831 -2.2568
  121CHL1   C2115192   6.914   4.314  10.556 -0.2213  0.4569 -0.5752
  121CHL1  H21A15193   6.953   4.259  10.468 -1.3049 -0.0177 -0.7795
  121CHL1  H21B15194   6.808   4.340  10.536 -0.7555 -1.5600 -0.6208
  121CHL1  H21C15195   6.928   4.244  10.642  0.9153  2.0415  0.5783
  121CHL1   C2215196   6.975   4.511  10.719 -0.3861  0.2374  0.3299
  121CHL1  H22A15197   7.045   4.597  10.723 -0.3656  0.2841 -0.7926
  121CHL1  H22B15198   6.873   4.551  10.734 -0.7289  0.1628 -1.5156
  121CHL1   C2315199   6.997   4.406  10.829  0.6288 -0.0855 -0.9651
  121CHL1  H23A15200   6.901   4.352  10.838 -1.8039  3.9983  0.2532
  121CHL1  H23B15201   7.084   4.342  10.803 -0.3729 -1.7883 -0.2999
  121CHL1   C2415202   7.020   4.471  10.968 -0.2714  0.2630  0.2779
  121CHL1  H24A15203   7.107   4.539  10.961  0.9174 -0.6296  3.9597
  121CHL1  H24B15204   6.927   4.520  11.004 -3.0058 -4.7548  0.9261
  121CHL1   C2515205   7.056   4.366  11.077  0.6494  0.1016 -0.0189
  121CHL1   H2515206   7.136   4.303  11.033  1.4981  0.6448  0.7262
  121CHL1   C2615207   7.124   4.425  11.201 -0.2186 -0.2522 -0.2926
  121CHL1  H26A15208   7.046   4.475  11.262 -1.4252 -0.0096 -1.9618
  121CHL1  H26B15209   7.163   4.346  11.269 -0.5844  1.0419  1.4977
  121CHL1  H26C15210   7.206   4.496  11.179 -1.4934  1.1336 -0.6890
  121CHL1   C2715211   6.933   4.288  11.129 -0.0970  0.6432 -0.8074
  121CHL1  H27A15212   6.847   4.354  11.150 -0.4644  0.3580 -1.3934
  121CHL1  H27B15213   6.903   4.207  11.060  0.2236 -0.5020  0.3477
  121CHL1  H27C15214   6.951   4.230  11.222 -3.2406  0.6037 -0.1147
  122CHL1    C315215   3.976   4.729  10.477 -0.5362 -0.0760  0.2184
  122CHL1    H315216   3.902   4.811  10.489 -1.5081 -1.1797  2.1658
  122CHL1    O315217   4.067   4.772  10.381 -0.3258 -0.4783  0.1815
  122CHL1   H3'15218   4.037   4.731  10.299 -0.9239 -0.2699  0.2893
  122CHL1    C415219   4.050   4.695  10.611 -0.3371  0.3558 -0.2774
  122CHL1   H4A15220   4.128   4.618  10.592 -0.3685 -0.0914  1.2548
  122CHL1   H4B15221   4.104   4.784  10.650  1.6774 -1.4978  1.4466
  122CHL1    C515222   3.956   4.636  10.717 -1.2471 -0.1342 -0.6896
  122CHL1    C615223   3.947   4.699  10.834 -0.3000 -0.2623  0.5424
  122CHL1    H615224   4.004   4.792  10.844  0.5920 -0.7671  0.2601
  122CHL1    C715225   3.874   4.648  10.952 -0.5589  0.1534 -0.3046
  122CHL1   H7A15226   3.936   4.628  11.042 -1.6098 -1.1713  0.1608
  122CHL1   H7B15227   3.792   4.717  10.982  0.0986 -0.4131  3.2379
  122CHL1    C815228   3.816   4.500  10.921  0.3034 -0.3431 -0.1733
  122CHL1    H815229   3.899   4.427  10.931  2.2952  1.6723 -1.0503
  122CHL1   C1415230   3.715   4.458  11.025 -0.6295  0.3978 -0.5402
  122CHL1   H1415231   3.635   4.534  11.019  0.1788  1.2046 -1.7505
  122CHL1   C1515232   3.752   4.451  11.175  0.0080  0.0290  0.4137
  122CHL1  H15A15233   3.846   4.402  11.208 -0.7951 -0.4118  2.1954
  122CHL1  H15B15234   3.754   4.553  11.219 -2.0683  0.5809 -0.6625
  122CHL1   C1615235   3.643   4.367  11.239 -0.1314  0.2614 -0.2237
  122CHL1  H16A15236   3.697   4.279  11.280 -0.6934  0.3653  0.7691
  122CHL1  H16B15237   3.591   4.431  11.313 -1.4014  0.8035 -1.5444
  122CHL1   C1715238   3.546   4.315  11.121  0.5668 -0.5159  0.0987
  122CHL1   H1715239   3.463   4.389  11.118 -2.0623 -3.1662  1.7309
  122CHL1   C1315240   3.635   4.329  10.988 -0.2131  0.0006  0.2875
  122CHL1   C1815241   3.720   4.203  10.991  0.1264 -0.1150 -0.5805
  122CHL1  H18A15242   3.749   4.171  11.093  0.2792 -0.0698 -0.6088
  122CHL1  H18B15243   3.658   4.124  10.943  1.5899 -2.6025  1.3638
  122CHL1  H18C15244   3.803   4.219  10.919 -1.4827  0.8210 -2.3088
  122CHL1   C1215245   3.555   4.346  10.859 -1.1463  0.7539 -0.7787
  122CHL1  H12A15246   3.504   4.260  10.811 -0.0404  0.5469 -1.6223
  122CHL1  H12B15247   3.492   4.437  10.857 -1.7825  0.4026  1.0989
  122CHL1   C1115248   3.666   4.373  10.754  0.7426  0.0215  0.3509
  122CHL1  H11A15249   3.729   4.282  10.741  0.6257  0.0744 -0.6275
  122CHL1  H11B15250   3.605   4.394  10.664  0.5321 -0.8706  0.2769
  122CHL1    C915251   3.761   4.492  10.779  0.0501 -0.4607  0.0375
  122CHL1    H915252   3.687   4.574  10.768 -0.6510 -1.3548 -2.6274
  122CHL1   C1015253   3.870   4.519  10.674 -0.5392 -0.0858  0.0095
  122CHL1   C1915254   3.969   4.395  10.661 -0.2464 -0.6689  0.3779
  122CHL1  H19A15255   3.986   4.364  10.766 -1.5237  2.1127  1.4922
  122CHL1  H19B15256   3.915   4.310  10.614 -1.8303  1.5146 -2.0633
  122CHL1  H19C15257   4.061   4.415  10.602  0.2676 -1.3572  0.9271
  122CHL1    C115258   3.798   4.550  10.542 -0.0431 -0.8466  0.2679
  122CHL1   H1A15259   3.744   4.464  10.498 -2.2281  1.9636 -3.0906
  122CHL1   H1B15260   3.724   4.633  10.553 -1.4236 -1.9853 -0.1497
  122CHL1    C215261   3.893   4.603  10.432 -0.5196  0.2107  0.7830
  122CHL1   H2A15262   3.831   4.631  10.345  0.0662  0.0542  0.3047
  122CHL1   H2B15263   3.967   4.524  10.407 -0.2498  0.9527 -0.9082
  122CHL1   C2015264   3.471   4.188  11.151 -1.5289 -0.0303  0.7445
  122CHL1   H2015265   3.553   4.113  11.158 -0.2982  1.0841 -0.9340
  122CHL1   C2115266   3.373   4.147  11.042  0.2253  0.6011 -0.2900
  122CHL1  H21A15267   3.292   4.221  11.024 -0.3402 -0.4035 -2.1964
  122CHL1  H21B15268   3.322   4.052  11.068 -0.9353  1.2541 -0.1053
  122CHL1  H21C15269   3.427   4.120  10.949  0.9057 -1.3967  0.6341
  122CHL1   C2215270   3.402   4.183  11.290  0.1091 -0.0582  0.8813
  122CHL1  H22A15271   3.380   4.081  11.327  1.8559 -0.8686 -0.1566
  122CHL1  H22B15272   3.468   4.225  11.369  1.8146  0.9898 -1.0059
  122CHL1   C2315273   3.265   4.256  11.299  0.5351 -0.3293  0.0022
  122CHL1  H23A15274   3.272   4.347  11.235  0.0526 -1.9896 -2.5669
  122CHL1  H23B15275   3.180   4.195  11.261 -0.8409  0.6692  1.3489
  122CHL1   C2415276   3.227   4.305  11.435 -0.1571 -0.0589  0.4318
  122CHL1  H24A15277   3.249   4.227  11.511  1.0027  0.5976  0.7782
  122CHL1  H24B15278   3.285   4.397  11.455 -1.2471  0.6772  0.3236
  122CHL1   C2515279   3.077   4.336  11.441  0.2312  0.1733 -0.1740
  122CHL1   H2515280   3.040   4.374  11.344  1.4447  2.6544  0.2489
  122CHL1   C2615281   2.989   4.223  11.499  0.9753 -0.3338 -0.3220
  122CHL1  H26A15282   2.882   4.251  11.511  0.2750 -1.8438 -2.3640
  122CHL1  H26B15283   2.985   4.133  11.434 -2.6953 -2.2260  2.1979
  122CHL1  H26C15284   3.026   4.188  11.597 -0.4757  1.5340  0.9547
  122CHL1   C2715285   3.054   4.458  11.539  0.0502 -0.6048 -0.0921
  122CHL1  H27A15286   3.072   4.417  11.641 -1.3796  0.2431  0.5442
  122CHL1  H27B15287   3.114   4.549  11.520 -1.6821  1.0714  1.9041
  122CHL1  H27C15288   2.946   4.487  11.542  0.4214  0.7642  1.0479
  123CHL1    C315289   1.377   5.719   9.499 -0.1885  0.2609  0.3697
  123CHL1    H315290   1.447   5.633   9.505  2.5144  2.3315  0.3055
  123CHL1    O315291   1.317   5.723   9.371 -0.4151  0.1894 -0.2481
  123CHL1   H3'15292   1.261   5.645   9.368  0.6198 -0.6484  1.1064
  123CHL1    C415293   1.263   5.708   9.591  0.4741 -0.1650  0.6145
  123CHL1   H4A15294   1.215   5.806   9.569  0.5342 -0.5186 -1.2485
  123CHL1   H4B15295   1.190   5.626   9.575  2.2610 -1.7800  0.3633
  123CHL1    C515296   1.314   5.719   9.734  0.6134  0.1017 -0.0754
  123CHL1    C615297   1.264   5.638   9.828  0.0380  0.0821 -0.1090
  123CHL1    H615298   1.197   5.555   9.800  0.5292 -1.3754  2.6315
  123CHL1    C715299   1.295   5.653   9.980 -0.7506  0.1328 -0.3408
  123CHL1   H7A15300   1.197   5.651  10.034 -0.4573  0.8830  0.2392
  123CHL1   H7B15301   1.367   5.572  10.004  0.5330  0.3005 -3.2375
  123CHL1    C815302   1.361   5.789  10.015 -0.0989 -0.2623  0.6603
  123CHL1    H815303   1.277   5.861  10.020  0.7540  0.6780  3.6240
  123CHL1   C1415304   1.429   5.774  10.149  0.4997  0.0045  0.6760
  123CHL1   H1415305   1.514   5.704  10.133  2.7465  3.0105 -1.7990
  123CHL1   C1515306   1.351   5.697  10.263  0.3335 -0.0366 -0.9566
  123CHL1  H15A15307   1.240   5.702  10.258  0.2125 -0.4697  0.5715
  123CHL1  H15B15308   1.375   5.589  10.249  0.3971 -0.0460 -0.7849
  123CHL1   C1615309   1.410   5.754  10.393 -0.4264  0.1941 -0.3259
  123CHL1  H16A15310   1.332   5.815  10.444  1.7456  2.3228  0.6486
  123CHL1  H16B15311   1.445   5.674  10.462 -0.1905 -0.3902 -1.1071
  123CHL1   C1715312   1.532   5.847  10.340  0.7585  0.2932 -0.6706
  123CHL1   H1715313   1.618   5.778  10.324  0.4736 -0.5519  1.1323
  123CHL1   C1315314   1.487   5.899  10.206  0.1499  0.0201  0.0791
  123CHL1   C1815315   1.377   6.001  10.224 -0.0883  0.1258  0.2990
  123CHL1  H18A15316   1.289   5.957  10.276  0.3626 -3.0019 -1.3556
  123CHL1  H18B15317   1.415   6.095  10.270  0.9281  0.3234 -0.8894
  123CHL1  H18C15318   1.336   6.036  10.126  0.3388 -1.2051 -0.3750
  123CHL1   C1215319   1.599   5.938  10.109  0.3217 -0.0065 -0.6356
  123CHL1  H12A15320   1.649   6.035  10.129  0.1806 -0.3137  1.5613
  123CHL1  H12B15321   1.679   5.862  10.111 -0.1826 -0.5439  0.4308
  123CHL1   C1115322   1.535   5.958   9.969  0.1056  0.4756 -0.5424
  123CHL1  H11A15323   1.472   6.049   9.973 -1.1037 -0.3602 -0.0981
  123CHL1  H11B15324   1.621   5.984   9.903  1.3515 -1.0378  0.4147
  123CHL1    C915325   1.463   5.834   9.911 -0.1396 -0.4390  0.0644
  123CHL1    H915326   1.543   5.758   9.904  1.1000  0.9456 -1.7573
  123CHL1   C1015327   1.403   5.841   9.774  0.2721 -0.1511 -0.5979
  123CHL1   C1915328   1.312   5.964   9.757 -0.8211  0.1846 -0.3259
  123CHL1  H19A15329   1.218   5.957   9.817 -0.0176 -1.1600  0.8580
  123CHL1  H19B15330   1.354   6.062   9.786 -0.1280 -0.2032  0.0003
  123CHL1  H19C15331   1.286   5.990   9.653  3.0633  2.8508 -0.8214
  123CHL1    C115332   1.518   5.848   9.668  0.4736  0.3369  0.3035
  123CHL1   H1A15333   1.568   5.947   9.675 -0.5656  1.0511 -1.5847
  123CHL1   H1B15334   1.593   5.768   9.681 -0.4910 -0.7159 -0.4627
  123CHL1    C215335   1.468   5.839   9.522  0.2849 -0.4086  0.1668
  123CHL1   H2A15336   1.542   5.855   9.441 -2.1383 -0.0157 -2.0854
  123CHL1   H2B15337   1.401   5.927   9.511 -0.3616 -0.8339  0.5917
  123CHL1   C2015338   1.577   5.951  10.444 -0.2234  0.1981 -0.1535
  123CHL1   H2015339   1.508   6.038  10.443 -2.5344 -1.5179 -2.0117
  123CHL1   C2115340   1.722   5.989  10.406  0.7309  0.0521 -0.6192
  123CHL1  H21A15341   1.725   6.049  10.313 -1.6196  2.7369  0.8699
  123CHL1  H21B15342   1.798   5.909  10.395  0.2170 -0.2607 -2.0091
  123CHL1  H21C15343   1.753   6.061  10.485  0.6791  1.5697 -1.9236
  123CHL1   C2215344   1.570   5.891  10.591  0.5392  0.5988  0.8120
  123CHL1  H22A15345   1.466   5.872  10.623  0.7211 -0.9753  0.5467
  123CHL1  H22B15346   1.622   5.793  10.595 -0.5935 -0.0472  0.1616
  123CHL1   C2315347   1.634   5.974  10.701  0.1174 -0.2212  0.2340
  123CHL1  H23A15348   1.635   5.912  10.794 -1.2453  0.9672  1.0783
  123CHL1  H23B15349   1.742   5.992  10.681  0.5071 -2.0610  0.5110
  123CHL1   C2415350   1.550   6.099  10.738 -0.6300 -0.3992  0.2545
  123CHL1  H24A15351   1.533   6.154  10.643  1.3089  1.2817  0.8313
  123CHL1  H24B15352   1.451   6.065  10.777 -1.3076  1.7978  0.5712
  123CHL1   C2515353   1.614   6.200  10.834 -0.2444 -0.3374  0.3650
  123CHL1   H2515354   1.717   6.215  10.794 -0.6634 -1.2167 -1.1347
  123CHL1   C2615355   1.538   6.336  10.840 -0.2129  0.4955  0.0399
  123CHL1  H26A15356   1.589   6.417  10.896  1.0783 -0.0808 -0.2566
  123CHL1  H26B15357   1.524   6.366  10.734  0.0629  0.3007 -0.0527
  123CHL1  H26C15358   1.440   6.308  10.884 -0.6215 -0.6812 -1.5321
  123CHL1   C2715359   1.632   6.146  10.978 -0.3491 -0.9811 -0.3892
  123CHL1  H27A15360   1.717   6.198  11.026  0.3315 -1.0309 -1.5037
  123CHL1  H27B15361   1.539   6.162  11.036  1.1386  0.4045  1.7420
  123CHL1  H27C15362   1.657   6.038  10.970  2.7886 -0.2112 -2.8871
  124CHL1    C315363   5.854   5.909   9.537  0.0006  0.1449  1.0801
  124CHL1    H315364   5.960   5.941   9.540  0.1055  0.4673 -2.2792
  124CHL1    O315365   5.824   5.870   9.403 -0.1066  0.1347 -0.2913
  124CHL1   H3'15366   5.728   5.871   9.403 -0.1098  0.0399 -0.6622
  124CHL1    C415367   5.829   5.781   9.618  0.3870 -0.1490  0.0101
  124CHL1   H4A15368   5.726   5.744   9.600  1.6462 -3.6469 -0.7299
  124CHL1   H4B15369   5.907   5.712   9.581 -0.3469 -0.7666 -0.4082
  124CHL1    C515370   5.852   5.809   9.769  0.3473 -0.3876 -0.1841
  124CHL1    C615371   5.953   5.749   9.833 -0.3824 -0.0941  0.0981
  124CHL1    H615372   6.006   5.668   9.782  0.5928  0.7087 -0.1879
  124CHL1    C715373   5.976   5.762   9.978  0.1428 -0.1465  0.1533
  124CHL1   H7A15374   5.982   5.661  10.024  1.3900 -1.0401 -1.8368
  124CHL1   H7B15375   6.074   5.813   9.989  0.4948 -0.5819 -0.8278
  124CHL1    C815376   5.869   5.846  10.049  0.0370  0.2851  1.0382
  124CHL1    H815377   5.777   5.786  10.064 -1.3402  1.9199 -0.4505
  124CHL1   C1415378   5.928   5.888  10.177 -0.0785 -0.0780  0.6735
  124CHL1   H1415379   6.016   5.947  10.144  1.2421 -1.4734  1.6165
  124CHL1   C1515380   5.986   5.775  10.264 -0.0015  0.5675 -0.5984
  124CHL1  H15A15381   5.912   5.695  10.281 -0.2207  1.1940  1.7788
  124CHL1  H15B15382   6.080   5.735  10.220 -0.6749 -1.1424 -0.5398
  124CHL1   C1615383   6.014   5.845  10.395  0.0044 -0.0292 -0.3347
  124CHL1  H16A15384   5.991   5.774  10.478  0.9291 -1.2488 -1.0811
  124CHL1  H16B15385   6.121   5.867  10.409  0.0062 -0.4323  0.3610
  124CHL1   C1715386   5.932   5.983  10.389 -0.0279 -0.3016 -0.3254
  124CHL1   H1715387   6.004   6.063  10.361  0.0437 -0.6150 -1.0779
  124CHL1   C1315388   5.845   5.975  10.261  0.7221 -0.3836  0.4001
  124CHL1   C1815389   5.715   5.902  10.301  0.4016  0.0517  0.8339
  124CHL1  H18A15390   5.674   5.866  10.204 -0.0988 -1.2985  1.5240
  124CHL1  H18B15391   5.731   5.813  10.365  1.3470 -0.9159 -0.6747
  124CHL1  H18C15392   5.641   5.972  10.345  1.5686  0.1310  2.7871
  124CHL1   C1215393   5.819   6.108  10.175  0.4770  0.2419 -0.1414
  124CHL1  H12A15394   5.750   6.173  10.233  0.9678  0.7174 -0.0891
  124CHL1  H12B15395   5.908   6.166  10.144 -0.9146  2.2469 -0.6093
  124CHL1   C1115396   5.755   6.073  10.039  0.1228  0.1215  0.3053
  124CHL1  H11A15397   5.658   6.024  10.062 -0.7574  1.1417 -1.0692
  124CHL1  H11B15398   5.732   6.164   9.980 -0.7858 -0.9641 -1.0861
  124CHL1    C915399   5.839   5.970   9.965  0.1837  0.1075 -0.4159
  124CHL1    H915400   5.938   6.015   9.946  0.4220 -0.5046 -0.6370
  124CHL1   C1015401   5.782   5.932   9.823 -1.1004 -0.4433  0.6383
  124CHL1   C1915402   5.633   5.897   9.839  0.1310 -0.3491 -0.1076
  124CHL1  H19A15403   5.604   5.805   9.894 -0.5397  0.4256  0.8527
  124CHL1  H19B15404   5.585   5.986   9.886  0.9586 -1.0793  2.2577
  124CHL1  H19C15405   5.581   5.894   9.740 -1.2911 -0.0059  0.5996
  124CHL1    C115406   5.796   6.055   9.729  0.3956  0.1973  0.5888
  124CHL1   H1A15407   5.720   6.127   9.765  1.0369  0.2143  1.9658
  124CHL1   H1B15408   5.896   6.103   9.723 -0.2994  1.5356 -1.0061
  124CHL1    C215409   5.762   6.018   9.587 -0.0719 -0.1143 -0.1906
  124CHL1   H2A15410   5.775   6.109   9.525 -1.7556  1.1514  1.2211
  124CHL1   H2B15411   5.654   5.992   9.586 -0.4558  1.0483  2.5737
  124CHL1   C2015412   5.853   6.018  10.514 -0.0078 -0.1403  0.1342
  124CHL1   H2015413   5.780   5.936  10.529 -0.4533  0.2161 -0.0609
  124CHL1   C2115414   5.777   6.148  10.503  0.6898  0.1040 -0.6179
  124CHL1  H21A15415   5.740   6.180  10.603 -1.3039  0.5476 -1.4468
  124CHL1  H21B15416   5.687   6.145  10.438 -1.5837  2.2880  2.1254
  124CHL1  H21C15417   5.844   6.227  10.464  0.0250  0.5352 -0.9152
  124CHL1   C2215418   5.936   6.017  10.644  0.4277 -0.4175  0.5772
  124CHL1  H22A15419   6.025   5.950  10.636  0.4588 -0.2305 -0.9568
  124CHL1  H22B15420   5.967   6.122  10.663  0.0448 -0.0404 -0.8013
  124CHL1   C2315421   5.869   5.970  10.772  0.5499 -0.2703  0.2024
  124CHL1  H23A15422   5.772   6.023  10.785  0.7518 -0.2382  1.8441
  124CHL1  H23B15423   5.850   5.861  10.764  0.1340 -0.0794 -1.7581
  124CHL1   C2415424   5.949   6.004  10.901 -0.1323 -0.0776  0.1468
  124CHL1  H24A15425   6.058   5.991  10.881  0.0195  0.2396  0.7608
  124CHL1  H24B15426   5.947   6.115  10.909  0.6406  0.2910 -3.2312
  124CHL1   C2515427   5.896   5.926  11.029  0.6931 -0.7100 -0.1120
  124CHL1   H2515428   5.786   5.913  11.028  0.5347  0.0356  2.1586
  124CHL1   C2615429   5.954   5.783  11.029  0.1554  0.1214 -0.4546
  124CHL1  H26A15430   5.937   5.719  10.940  1.5693 -0.0965 -0.5956
  124CHL1  H26B15431   6.064   5.791  11.041  0.3334  0.6669 -2.1801
  124CHL1  H26C15432   5.925   5.725  11.119 -2.4759  1.5754 -0.2537
  124CHL1   C2715433   5.933   5.990  11.164 -0.1912 -0.0874  0.3567
  124CHL1  H27A15434   5.901   6.097  11.162 -1.7978 -0.5377 -1.9960
  124CHL1  H27B15435   5.902   5.932  11.253  0.2236 -0.1025  0.4943
  124CHL1  H27C15436   6.044   5.982  11.173 -0.1575  0.5980  0.6097
  125CHL1    C315437   6.746   5.203  10.220  0.1162 -0.3885  0.0504
  125CHL1    H315438   6.652   5.146  10.238  0.2417 -1.3769 -2.0835
  125CHL1    O315439   6.768   5.235  10.081  0.3708 -0.4509  0.0548
  125CHL1   H3'15440   6.851   5.192  10.057 -0.6471 -1.9188 -1.0174
  125CHL1    C415441   6.726   5.335  10.301  0.2657 -0.5045  0.3765
  125CHL1   H4A15442   6.799   5.415  10.276  0.1186 -0.5771 -0.3058
  125CHL1   H4B15443   6.633   5.371  10.252  1.4449 -1.4604 -2.8457
  125CHL1    C515444   6.702   5.313  10.447 -0.3446  0.5577  0.1888
  125CHL1    C615445   6.585   5.339  10.504  0.2342  0.1197  0.3813
  125CHL1    H615446   6.503   5.382  10.445  0.0181  3.5604  2.8502
  125CHL1    C715447   6.551   5.324  10.646 -0.5509  0.1769 -0.4638
  125CHL1   H7A15448   6.488   5.402  10.693  1.7177  0.5767  2.1710
  125CHL1   H7B15449   6.488   5.232  10.656  0.1870 -0.0935  4.7176
  125CHL1    C815450   6.683   5.306  10.727  0.3028  0.5194  0.2048
  125CHL1    H815451   6.736   5.404  10.721 -0.6469  0.9869 -1.0107
  125CHL1   C1415452   6.658   5.267  10.872 -0.1333  0.1543 -0.2886
  125CHL1   H1415453   6.614   5.166  10.864 -0.8631  0.1793  2.5092
  125CHL1   C1515454   6.555   5.352  10.958 -0.6523  0.5171  0.2798
  125CHL1  H15A15455   6.585   5.459  10.956 -1.5307  0.8676  2.5694
  125CHL1  H15B15456   6.450   5.350  10.924 -0.8708 -0.0305  0.9755
  125CHL1   C1615457   6.574   5.292  11.104 -0.1334 -0.3454  0.4939
  125CHL1  H16A15458   6.554   5.367  11.184  0.1703  0.8338 -0.5014
  125CHL1  H16B15459   6.500   5.210  11.117  0.9993 -1.2439  1.3981
  125CHL1   C1715460   6.713   5.221  11.093 -0.2687  0.6069 -0.2653
  125CHL1   H1715461   6.689   5.113  11.086  0.5841  0.3252  0.7700
  125CHL1   C1315462   6.785   5.247  10.960  0.3928  0.4827  0.6532
  125CHL1   C1815463   6.858   5.385  10.966 -0.0842  0.5826 -0.2896
  125CHL1  H18A15464   6.898   5.413  10.866 -1.4986  2.2833 -0.4448
  125CHL1  H18B15465   6.791   5.472  10.985 -1.7669 -0.6682 -0.3435
  125CHL1  H18C15466   6.939   5.379  11.042  0.1490  0.7456 -0.5232
  125CHL1   C1215467   6.870   5.137  10.901 -0.3676  0.2943  0.2753
  125CHL1  H12A15468   6.959   5.131  10.966  0.1964  0.7884 -0.4343
  125CHL1  H12B15469   6.813   5.041  10.899  0.4034 -0.2437  2.3745
  125CHL1   C1115470   6.910   5.171  10.752 -0.2360  0.5243  0.3967
  125CHL1  H11A15471   6.986   5.251  10.755  0.0497  0.2351  1.1473
  125CHL1  H11B15472   6.960   5.077  10.719  0.9457  0.3789  2.4281
  125CHL1    C915473   6.782   5.210  10.656 -0.2729  0.5030  0.0174
  125CHL1    H915474   6.724   5.117  10.638 -0.5175  1.1186 -2.7825
  125CHL1   C1015475   6.825   5.252  10.509 -0.9400  0.6088 -0.3309
  125CHL1   C1915476   6.938   5.353  10.501  0.2325 -1.1473  0.9788
  125CHL1  H19A15477   6.915   5.456  10.536  0.8465 -0.2387 -1.1264
  125CHL1  H19B15478   7.022   5.318  10.565  0.4000 -1.5178  0.5590
  125CHL1  H19C15479   6.971   5.361  10.395  0.9401 -0.3112  1.2498
  125CHL1    C115480   6.877   5.128  10.432 -0.0861  0.3202  0.2642
  125CHL1   H1A15481   6.985   5.115  10.454  0.4094  1.1288 -1.4987
  125CHL1   H1B15482   6.828   5.035  10.468  1.0726 -0.9708 -1.3813
  125CHL1    C215483   6.876   5.143  10.277 -0.4977  0.5572 -0.4109
  125CHL1   H2A15484   6.895   5.042  10.234 -0.6430 -0.0557  0.9218
  125CHL1   H2B15485   6.971   5.197  10.256  0.1681 -0.2259  0.4918
  125CHL1   C2015486   6.807   5.224  11.222 -0.4133 -0.1435 -0.0108
  125CHL1   H2015487   6.912   5.203  11.193 -0.4452 -1.8752  1.0145
  125CHL1   C2115488   6.767   5.110  11.313  0.7234 -0.5638  0.5481
  125CHL1  H21A15489   6.840   5.109  11.397  0.0966  2.2533  1.2203
  125CHL1  H21B15490   6.779   5.022  11.246 -0.7066  0.2634 -0.8757
  125CHL1  H21C15491   6.663   5.121  11.351  0.5310  0.5255 -0.2614
  125CHL1   C2215492   6.806   5.363  11.288  0.7796 -0.5767 -0.3449
  125CHL1  H22A15493   6.828   5.445  11.216 -0.6398  0.9974  0.9206
  125CHL1  H22B15494   6.710   5.381  11.340  1.0917  0.8722 -0.2031
  125CHL1   C2315495   6.913   5.377  11.397 -0.7626 -0.1668  0.4118
  125CHL1  H23A15496   6.896   5.481  11.432 -2.0614 -0.1301 -0.2748
  125CHL1  H23B15497   6.896   5.306  11.480 -0.1320 -0.3467  0.3915
  125CHL1   C2415498   7.060   5.380  11.342 -0.5083 -0.1942 -0.8417
  125CHL1  H24A15499   7.087   5.281  11.301  1.3834  0.8147 -2.1682
  125CHL1  H24B15500   7.073   5.457  11.263 -0.4926  1.3096  0.5501
  125CHL1   C2515501   7.171   5.403  11.447  0.4570 -0.0065  0.2868
  125CHL1   H2515502   7.154   5.329  11.527  1.2260 -0.5199 -0.0073
  125CHL1   C2615503   7.306   5.364  11.384 -0.3884  0.2140 -0.5099
  125CHL1  H26A15504   7.382   5.366  11.465 -0.8388  1.3076 -0.0950
  125CHL1  H26B15505   7.311   5.263  11.337 -1.3298 -0.5020  0.8405
  125CHL1  H26C15506   7.330   5.432  11.300  1.7586  0.3166  0.1219
  125CHL1   C2715507   7.184   5.545  11.496 -0.8111  0.2439 -0.8738
  125CHL1  H27A15508   7.191   5.613  11.408 -1.8129  0.2441 -0.9589
  125CHL1  H27B15509   7.101   5.564  11.567  0.2309  1.2169  0.1299
  125CHL1  H27C15510   7.275   5.551  11.560 -1.1543  0.5641 -0.4085
  126CHL1    C315511   4.478   0.047   9.476  0.0784  0.1618  0.9077
  126CHL1    H315512   4.377   0.023   9.514 -0.5202  0.5075 -0.4059
  126CHL1    O315513   4.481  -0.007   9.345 -0.0790  0.3013  0.3387
  126CHL1   H3'15514   4.576  -0.008   9.334 -0.0766 -0.5484  0.4039
  126CHL1    C415515   4.508   0.196   9.485 -0.1544 -0.3969  0.5274
  126CHL1   H4A15516   4.613   0.207   9.449 -0.1889 -0.1073  0.5119
  126CHL1   H4B15517   4.449   0.257   9.413  0.0302  1.3426  1.7876
  126CHL1    C515518   4.501   0.258   9.617  0.2783  0.6044  0.3126
  126CHL1    C615519   4.429   0.369   9.635  0.3522  0.1274  0.2117
  126CHL1    H615520   4.405   0.429   9.547 -0.0556  1.0269  0.9214
  126CHL1    C715521   4.409   0.438   9.765 -0.2245  0.0861  0.0038
  126CHL1   H7A15522   4.435   0.545   9.754 -1.1798  0.2478 -0.8207
  126CHL1   H7B15523   4.304   0.435   9.800 -0.5040  0.6413 -0.7619
  126CHL1    C815524   4.493   0.378   9.880  0.0601  0.2174 -0.3994
  126CHL1    H815525   4.593   0.426   9.881  0.3944 -0.4384  1.1205
  126CHL1   C1415526   4.427   0.403  10.023  0.0097 -0.3057 -0.6718
  126CHL1   H1415527   4.336   0.340  10.023  0.1678 -0.5410 -1.5408
  126CHL1   C1515528   4.383   0.546  10.057  0.0836 -0.1523  0.2712
  126CHL1  H15A15529   4.466   0.616  10.033 -1.1376  0.7277 -1.6755
  126CHL1  H15B15530   4.301   0.579   9.990  0.4948  2.6422  1.0146
  126CHL1   C1615531   4.359   0.548  10.212 -0.0652 -0.5668 -0.0780
  126CHL1  H16A15532   4.427   0.626  10.252 -0.6512  0.1965 -0.5387
  126CHL1  H16B15533   4.256   0.579  10.241 -0.3008  1.0727 -2.4170
  126CHL1   C1715534   4.406   0.403  10.260 -0.2520  0.1246  0.2707
  126CHL1   H1715535   4.314   0.341  10.252 -0.4160 -0.0155  2.4859
  126CHL1   C1315536   4.508   0.348  10.143 -0.4962  0.0490  0.2249
  126CHL1   C1815537   4.650   0.419  10.157  0.3915 -0.1233  0.5254
  126CHL1  H18A15538   4.701   0.374  10.245  1.2325 -1.0453 -0.3926
  126CHL1  H18B15539   4.713   0.408  10.066 -1.9657 -0.4746 -1.1595
  126CHL1  H18C15540   4.635   0.526  10.184  1.1295  0.4645 -1.2558
  126CHL1   C1215541   4.519   0.196  10.129 -0.2204  0.0972 -0.6013
  126CHL1  H12A15542   4.578   0.169  10.219 -1.9218  2.8758  1.5249
  126CHL1  H12B15543   4.419   0.146  10.127 -0.6040  0.6578  1.4275
  126CHL1   C1115544   4.593   0.162   9.999  0.3820 -0.1949 -0.1315
  126CHL1  H11A15545   4.700   0.191   9.999  1.0508 -2.4756  0.4615
  126CHL1  H11B15546   4.603   0.053   9.979 -1.0315  0.0105 -2.3614
  126CHL1    C915547   4.522   0.224   9.873  1.0490  0.1309 -0.4357
  126CHL1    H915548   4.421   0.178   9.879  1.1483  0.0069  0.4741
  126CHL1   C1015549   4.574   0.178   9.729 -0.1474 -0.7636  0.3327
  126CHL1   C1915550   4.727   0.205   9.712 -0.2058  0.1594 -0.6047
  126CHL1  H19A15551   4.754   0.198   9.604  1.8633 -0.5182 -0.0746
  126CHL1  H19B15552   4.742   0.310   9.746  0.6674 -0.5817  1.3954
  126CHL1  H19C15553   4.782   0.138   9.780 -1.6551 -0.4972 -0.0303
  126CHL1    C115554   4.560   0.023   9.717 -0.5325 -0.0338 -0.7251
  126CHL1   H1A15555   4.613  -0.031   9.798 -0.7460 -0.1119 -0.6387
  126CHL1   H1B15556   4.455   0.003   9.744 -0.6970  1.4548 -0.1528
  126CHL1    C215557   4.569  -0.040   9.572  0.9976 -0.0664 -0.2877
  126CHL1   H2A15558   4.521  -0.140   9.580 -0.1449  0.5231  0.4727
  126CHL1   H2B15559   4.675  -0.045   9.537  0.2821  0.2139 -2.7277
  126CHL1   C2015560   4.455   0.400  10.403  0.0994 -0.4700 -0.1683
  126CHL1   H2015561   4.546   0.464  10.405 -0.8312  0.9696 -1.4956
  126CHL1   C2115562   4.492   0.255  10.449  0.0684 -0.1594 -0.0604
  126CHL1  H21A15563   4.598   0.224  10.436 -0.1357 -1.4188  1.0627
  126CHL1  H21B15564   4.418   0.176  10.422  0.1721  0.1363 -1.2685
  126CHL1  H21C15565   4.479   0.266  10.559 -0.1317  0.0978 -0.1085
  126CHL1   C2215566   4.360   0.469  10.506 -0.3461  0.0080 -0.0166
  126CHL1  H22A15567   4.390   0.465  10.613  0.9324  1.1795 -0.3100
  126CHL1  H22B15568   4.355   0.579  10.487  4.0337  0.8841  2.5134
  126CHL1   C2315569   4.217   0.411  10.508 -0.9372 -0.8267 -0.0664
  126CHL1  H23A15570   4.188   0.418  10.401  0.2620  2.5817 -0.3046
  126CHL1  H23B15571   4.224   0.304  10.537  3.1812 -1.1230 -1.5546
  126CHL1   C2415572   4.119   0.489  10.599 -0.4598  0.6726  0.1633
  126CHL1  H24A15573   4.155   0.479  10.703 -1.1519  0.5094  0.3883
  126CHL1  H24B15574   4.139   0.591  10.558  2.2272  0.3611  0.4997
  126CHL1   C2515575   3.965   0.457  10.575 -0.5537  0.5102 -0.4049
  126CHL1   H2515576   3.946   0.442  10.467 -2.8703 -0.2866  0.0461
  126CHL1   C2615577   3.922   0.330  10.648  0.1241  0.3611  0.3826
  126CHL1  H26A15578   3.990   0.248  10.615  1.6361  2.6409 -2.7322
  126CHL1  H26B15579   3.937   0.350  10.756  1.0748  1.0532  0.1305
  126CHL1  H26C15580   3.816   0.306  10.627  0.6344 -2.1142  0.2743
  126CHL1   C2715581   3.878   0.572  10.612 -0.2543 -0.1155 -0.0874
  126CHL1  H27A15582   3.906   0.619  10.709  2.4672  1.7636 -1.6400
  126CHL1  H27B15583   3.895   0.655  10.540  1.2857  0.6731  1.1328
  126CHL1  H27C15584   3.769   0.547  10.612 -0.2607 -0.2421 -1.7798
  127CHL1    C315585   5.582   6.702   9.672  0.2650  0.4682  0.0978
  127CHL1    H315586   5.586   6.602   9.721  1.3707  0.5985  0.2910
  127CHL1    O315587   5.583   6.683   9.539  0.2325 -0.6679  0.5322
  127CHL1   H3'15588   5.525   6.750   9.501 -0.5951 -1.7861 -0.2269
  127CHL1    C415589   5.443   6.756   9.721 -0.2962 -0.2509  0.4168
  127CHL1   H4A15590   5.425   6.851   9.665  1.9955  1.5870  2.5481
  127CHL1   H4B15591   5.366   6.678   9.701 -0.8011  0.8308 -2.2833
  127CHL1    C515592   5.462   6.787   9.870 -0.4103 -0.3979 -0.2324
  127CHL1    C615593   5.375   6.759   9.969 -0.2640  0.7987 -0.0703
  127CHL1    H615594   5.281   6.712   9.937  1.1180 -0.8364 -1.9252
  127CHL1    C715595   5.391   6.798  10.117  1.0619 -0.1771 -0.1214
  127CHL1   H7A15596   5.296   6.821  10.170  1.5669 -0.4104  0.9151
  127CHL1   H7B15597   5.431   6.718  10.184 -0.2928 -0.3851  0.4711
  127CHL1    C815598   5.489   6.915  10.141 -0.2106 -0.8469 -0.1171
  127CHL1    H815599   5.444   7.011  10.109  0.0950  0.4600  2.9233
  127CHL1   C1415600   5.525   6.918  10.292 -0.1040 -0.6180  0.4183
  127CHL1   H1415601   5.567   6.818  10.314  0.2090 -0.5880 -0.0227
  127CHL1   C1515602   5.411   6.931  10.394 -0.5822  0.2573  0.5442
  127CHL1  H15A15603   5.324   6.995  10.367 -0.5122  0.3291  0.4916
  127CHL1  H15B15604   5.368   6.835  10.432 -1.3722  0.7205  0.8429
  127CHL1   C1615605   5.484   7.002  10.513 -0.0120  0.5600 -0.9089
  127CHL1  H16A15606   5.443   7.105  10.512 -1.6337  0.0419  1.9475
  127CHL1  H16B15607   5.456   6.943  10.602 -1.9408  0.9688 -1.2102
  127CHL1   C1715608   5.633   7.009  10.474 -0.5777 -0.5540 -0.3224
  127CHL1   H1715609   5.681   6.910  10.487  1.0587  0.0376 -1.4730
  127CHL1   C1315610   5.625   7.029  10.318  0.4707 -0.1376 -0.2766
  127CHL1   C1815611   5.568   7.167  10.273 -0.5762  0.3101 -0.4682
  127CHL1  H18A15612   5.465   7.185  10.311 -0.2435  1.7707 -0.2055
  127CHL1  H18B15613   5.646   7.234  10.314 -0.5665 -0.4131  0.7433
  127CHL1  H18C15614   5.563   7.171  10.162  0.2850  0.5253 -0.5041
  127CHL1   C1215615   5.757   6.990  10.248 -0.2897  0.2274  0.4857
  127CHL1  H12A15616   5.834   7.066  10.271 -1.1905  0.9312  1.2858
  127CHL1  H12B15617   5.799   6.897  10.291 -0.1366  0.2668  0.4212
  127CHL1   C1115618   5.737   6.975  10.100  0.6763 -1.2505  0.6079
  127CHL1  H11A15619   5.730   7.078  10.059  4.4912 -1.1627 -0.1398
  127CHL1  H11B15620   5.826   6.931  10.051  0.6653 -0.0996 -0.4900
  127CHL1    C915621   5.616   6.883  10.059 -0.2119 -0.1916 -0.0070
  127CHL1    H915622   5.642   6.784  10.104 -0.3271  0.9178  2.6350
  127CHL1   C1015623   5.590   6.871   9.908  0.1262  0.2991 -0.2111
  127CHL1   C1915624   5.572   7.011   9.850 -0.3415  0.4597  0.3135
  127CHL1  H19A15625   5.559   7.004   9.740  3.4975 -1.1092 -0.2045
  127CHL1  H19B15626   5.490   7.058   9.909 -0.5254 -0.9527  1.2373
  127CHL1  H19C15627   5.663   7.073   9.864  1.3007 -1.8358  0.4920
  127CHL1    C115628   5.718   6.814   9.842  0.0697 -0.5021 -0.3534
  127CHL1   H1A15629   5.795   6.894   9.842  0.4969 -0.7818 -3.6935
  127CHL1   H1B15630   5.748   6.730   9.909 -1.2511  0.7152  1.9121
  127CHL1    C215631   5.702   6.784   9.689 -0.3937 -0.4485 -0.1155
  127CHL1   H2A15632   5.794   6.725   9.666 -1.4249 -1.2771 -2.3895
  127CHL1   H2B15633   5.703   6.874   9.625  0.2630  0.2876  0.9035
  127CHL1   C2015634   5.724   7.110  10.557 -0.4321 -0.3532  0.1619
  127CHL1   H2015635   5.678   7.202  10.514  0.4197 -0.7467 -1.6830
  127CHL1   C2115636   5.877   7.109  10.521 -0.7875 -0.9786 -0.3721
  127CHL1  H21A15637   5.885   7.177  10.434  0.0413 -2.6984 -1.6839
  127CHL1  H21B15638   5.905   7.009  10.481 -0.7414 -0.8722 -0.6033
  127CHL1  H21C15639   5.939   7.148  10.604  1.0880 -0.8402 -1.7736
  127CHL1   C2215640   5.693   7.117  10.711  0.4567 -0.2553  0.4794
  127CHL1  H22A15641   5.737   7.204  10.765 -1.6958  2.7468 -2.2140
  127CHL1  H22B15642   5.583   7.129  10.720  0.6302  0.2766  2.2424
  127CHL1   C2315643   5.724   6.980  10.772 -0.2113  0.0042 -0.0402
  127CHL1  H23A15644   5.679   6.893  10.719  1.5525  0.0818 -1.7840
  127CHL1  H23B15645   5.831   6.962  10.748  0.3187  1.8961  0.7035
  127CHL1   C2415646   5.730   6.975  10.927 -0.5388  0.3330  0.5916
  127CHL1  H24A15647   5.796   7.055  10.966 -0.2116 -0.3274  1.4261
  127CHL1  H24B15648   5.628   6.993  10.967 -1.2238 -3.1717  0.7842
  127CHL1   C2515649   5.775   6.829  10.991 -0.1466  0.3024 -0.3689
  127CHL1   H2515650   5.866   6.790  10.941 -1.4116 -2.3199 -0.7985
  127CHL1   C2615651   5.817   6.843  11.143 -0.0711  0.8731  0.6683
  127CHL1  H26A15652   5.863   6.747  11.173 -0.3118  0.2453 -0.8636
  127CHL1  H26B15653   5.902   6.913  11.157  0.9060 -0.0090 -0.6206
  127CHL1  H26C15654   5.729   6.884  11.197 -0.0014  1.1074  0.6027
  127CHL1   C2715655   5.666   6.728  10.963 -0.1643 -0.8768 -0.5620
  127CHL1  H27A15656   5.677   6.699  10.857  3.5931  0.8692 -0.8019
  127CHL1  H27B15657   5.687   6.636  11.022  1.7322 -1.1405 -1.5588
  127CHL1  H27C15658   5.562   6.766  10.969 -0.6299 -2.0472 -0.8089
  128CHL1    C315659   4.996   4.361  10.007  0.4497  0.1739  0.7107
  128CHL1    H315660   5.105   4.380  10.004  0.6253 -0.8758 -0.8430
  128CHL1    O315661   4.967   4.305   9.885  0.5057  0.8319 -0.4556
  128CHL1   H3'15662   5.012   4.358   9.818  0.1749 -0.7106 -1.9827
  128CHL1    C415663   4.972   4.257  10.120 -0.5394 -0.1252  0.8049
  128CHL1   H4A15664   4.867   4.227  10.095  0.2663  0.1441 -3.6088
  128CHL1   H4B15665   5.022   4.160  10.100 -0.2184  0.2211 -0.1195
  128CHL1    C515666   4.992   4.322  10.257  0.0911  0.7347 -1.3140
  128CHL1    C615667   5.086   4.273  10.348 -0.1670 -0.5837  0.7368
  128CHL1    H615668   5.145   4.187  10.316  2.4506  1.8446 -1.4889
  128CHL1    C715669   5.108   4.316  10.488  0.4251  0.3422  0.3638
  128CHL1   H7A15670   5.126   4.230  10.555  2.4499 -0.2197 -0.8253
  128CHL1   H7B15671   5.206   4.367  10.489  0.6420 -0.0695  0.2992
  128CHL1    C815672   5.000   4.424  10.526  0.5275 -0.0314  0.3886
  128CHL1    H815673   4.909   4.366  10.553  0.2591  0.2862  0.1800
  128CHL1   C1415674   5.058   4.503  10.642  0.1710  0.5568 -0.8928
  128CHL1   H1415675   5.139   4.574  10.611  0.5140  1.3979  1.6711
  128CHL1   C1515676   5.126   4.431  10.758  0.1262 -0.1764  0.3519
  128CHL1  H15A15677   5.078   4.331  10.768 -0.6677  0.3034  1.4562
  128CHL1  H15B15678   5.235   4.428  10.735  0.2474 -1.4437  1.0098
  128CHL1   C1615679   5.101   4.516  10.881  0.2995  0.0978 -0.0846
  128CHL1  H16A15680   5.037   4.462  10.955  0.6742 -0.8868 -0.4591
  128CHL1  H16B15681   5.195   4.541  10.934  0.2796  0.8290 -0.3911
  128CHL1   C1715682   5.024   4.645  10.840 -0.2117  0.0289  0.6495
  128CHL1   H1715683   5.112   4.709  10.815  0.5893 -0.1257  2.8549
  128CHL1   C1315684   4.953   4.595  10.706  0.4153  0.0177  0.2628
  128CHL1   C1815685   4.826   4.518  10.750 -0.1262 -1.0835 -0.3674
  128CHL1  H18A15686   4.751   4.596  10.774  0.0719 -1.1129  0.3656
  128CHL1  H18B15687   4.781   4.464  10.664  1.6123 -0.3152 -1.8386
  128CHL1  H18C15688   4.838   4.436  10.824  1.2647 -1.0288 -0.4962
  128CHL1   C1215689   4.917   4.694  10.598  0.3179 -0.6500  0.7645
  128CHL1  H12A15690   4.846   4.767  10.642 -0.0133  1.2305 -2.4823
  128CHL1  H12B15691   5.007   4.747  10.558  0.1391 -1.0588 -0.2196
  128CHL1   C1115692   4.862   4.631  10.468  0.1412 -0.4008 -0.4831
  128CHL1  H11A15693   4.766   4.587  10.501  1.2096 -2.2838  0.2796
  128CHL1  H11B15694   4.840   4.700  10.384  0.2424 -0.2668 -0.4000
  128CHL1    C915695   4.958   4.518  10.412 -0.0947 -0.0483  0.2016
  128CHL1    H915696   5.055   4.568  10.391  1.6365 -1.9405  2.9490
  128CHL1   C1015697   4.911   4.452  10.281 -0.5832 -0.2448  0.0720
  128CHL1   C1915698   4.762   4.407  10.313  0.2408  0.6604  0.8485
  128CHL1  H19A15699   4.716   4.346  10.232 -1.6321 -1.6643  3.4153
  128CHL1  H19B15700   4.756   4.339  10.401 -1.6763 -0.4141 -0.0355
  128CHL1  H19C15701   4.692   4.492  10.325  0.9282  1.1363  1.5226
  128CHL1    C115702   4.931   4.546  10.159 -0.0396 -0.0913  0.1622
  128CHL1   H1A15703   4.858   4.630  10.165 -0.2675 -0.3274  0.8765
  128CHL1   H1B15704   5.031   4.592  10.169  1.1216 -2.4856  0.0786
  128CHL1    C215705   4.907   4.484  10.026  0.5169  0.3487  0.1816
  128CHL1   H2A15706   4.912   4.558   9.944 -3.2821 -1.4418 -1.9218
  128CHL1   H2B15707   4.798   4.462  10.022  0.6593 -0.3348 -0.0822
  128CHL1   C2015708   4.948   4.707  10.957  0.1298  0.1812  0.1997
  128CHL1   H2015709   4.855   4.648  10.971  0.0525 -0.0988 -1.3592
  128CHL1   C2115710   4.903   4.850  10.925 -0.4085 -0.0232  0.2135
  128CHL1  H21A15711   4.989   4.905  10.880  1.0557 -1.9148  0.5496
  128CHL1  H21B15712   4.848   4.896  11.009 -2.4085  0.0033 -1.0417
  128CHL1  H21C15713   4.837   4.842  10.836  1.4459  0.6810 -1.3146
  128CHL1   C2215714   5.032   4.707  11.088  0.1550 -0.2537 -0.0795
  128CHL1  H22A15715   4.965   4.737  11.171 -1.0221  0.8280 -1.3751
  128CHL1  H22B15716   5.067   4.608  11.125 -0.5610 -0.6944 -0.5677
  128CHL1   C2315717   5.161   4.788  11.086  0.1486 -0.6940  0.9226
  128CHL1  H23A15718   5.240   4.742  11.022 -1.2153  1.5325 -2.6553
  128CHL1  H23B15719   5.145   4.888  11.041  1.0347 -1.1269 -0.4449
  128CHL1   C2415720   5.210   4.821  11.228  0.1388 -0.3786 -0.2403
  128CHL1  H24A15721   5.312   4.865  11.234  0.2662 -0.8418  2.3004
  128CHL1  H24B15722   5.144   4.900  11.271  1.3090 -0.3018  1.5289
  128CHL1   C2515723   5.211   4.712  11.332  0.2843  1.2098  0.1045
  128CHL1   H2515724   5.115   4.657  11.327  0.9175  0.1762 -1.3892
  128CHL1   C2615725   5.338   4.626  11.314  0.8084 -0.0189  0.1913
  128CHL1  H26A15726   5.432   4.683  11.296  2.0934 -2.0679  0.1077
  128CHL1  H26B15727   5.332   4.565  11.407 -1.9422 -1.1956 -0.6377
  128CHL1  H26C15728   5.338   4.547  11.236  3.1271 -1.0941  1.1777
  128CHL1   C2715729   5.232   4.779  11.468  0.8109  0.6945  1.0316
  128CHL1  H27A15730   5.255   4.715  11.555  1.3585  2.4935  2.2702
  128CHL1  H27B15731   5.310   4.858  11.460 -0.1458  1.6431  0.9419
  128CHL1  H27C15732   5.135   4.830  11.483 -0.1907 -0.1538 -1.9187
  129CHL1    C315733   1.948   6.738   9.532  0.6926  0.1353 -0.3253
  129CHL1    H315734   1.859   6.759   9.595  0.2392  1.7001 -1.4230
  129CHL1    O315735   1.903   6.699   9.403  0.4319 -0.6076 -0.0838
  129CHL1   H3'15736   1.811   6.673   9.404  0.8835 -2.3619  0.4923
  129CHL1    C415737   2.035   6.866   9.526 -0.7701 -0.1647 -0.5489
  129CHL1   H4A15738   2.124   6.848   9.462 -0.1506 -0.8159  0.4684
  129CHL1   H4B15739   1.972   6.947   9.483 -1.9451  1.2093  3.3252
  129CHL1    C515740   2.093   6.890   9.661 -0.0329  0.4482  0.5072
  129CHL1    C615741   2.073   7.007   9.712  0.0210 -0.1157 -1.0286
  129CHL1    H615742   2.019   7.082   9.652  1.6854  0.3946 -1.9568
  129CHL1    C715743   2.133   7.054   9.848  0.6103 -0.1737 -0.3373
  129CHL1   H7A15744   2.168   7.160   9.848  0.0079  0.0645  1.4890
  129CHL1   H7B15745   2.050   7.053   9.923  0.9190  1.5302  0.0811
  129CHL1    C815746   2.262   6.972   9.886  0.0846  0.4911  0.2077
  129CHL1    H815747   2.349   6.985   9.818  1.4833 -4.0629  0.8117
  129CHL1   C1415748   2.297   7.000  10.026 -0.8361 -0.4979  0.2427
  129CHL1   H1415749   2.211   6.989  10.095 -1.2808  0.5157 -0.1199
  129CHL1   C1515750   2.348   7.144  10.068  0.0228  0.5863 -0.2761
  129CHL1  H15A15751   2.421   7.179   9.992  0.0373 -2.0599 -1.6017
  129CHL1  H15B15752   2.271   7.222  10.083 -2.7331 -1.9350 -0.3404
  129CHL1   C1615753   2.430   7.130  10.198 -0.1932 -0.3223 -0.0378
  129CHL1  H16A15754   2.531   7.173  10.183  0.4891 -1.8277  0.0364
  129CHL1  H16B15755   2.386   7.185  10.284  2.1201  0.6339  0.6015
  129CHL1   C1715756   2.424   6.974  10.230 -0.0591  0.2353  0.8468
  129CHL1   H1715757   2.335   6.945  10.289 -1.7260  0.1550 -1.5765
  129CHL1   C1315758   2.413   6.915  10.084  0.4591  0.5766 -0.5467
  129CHL1   C1815759   2.542   6.941  10.007  0.3262  0.7337 -0.0515
  129CHL1  H18A15760   2.536   6.928   9.897 -0.7395 -0.9625  0.1637
  129CHL1  H18B15761   2.572   7.048  10.012 -3.0216  1.7924 -0.0756
  129CHL1  H18C15762   2.619   6.871  10.045  0.1069  0.8266  0.5803
  129CHL1   C1215763   2.371   6.766  10.066 -0.0009 -0.2891  0.5948
  129CHL1  H12A15764   2.451   6.695  10.097  0.9200  0.3246 -0.3152
  129CHL1  H12B15765   2.278   6.748  10.123 -0.7265  2.2528  0.3481
  129CHL1   C1115766   2.342   6.725   9.923  0.1374 -0.1403  0.3982
  129CHL1  H11A15767   2.439   6.732   9.869  0.2398  0.2361  0.6248
  129CHL1  H11B15768   2.305   6.622   9.904  2.4641 -0.9028 -0.3395
  129CHL1    C915769   2.232   6.819   9.868 -0.9792  0.2659  0.5072
  129CHL1    H915770   2.144   6.806   9.934 -0.2338 -0.1298  1.4469
  129CHL1   C1015771   2.183   6.777   9.724 -0.1994  0.4017  0.3712
  129CHL1   C1915772   2.308   6.760   9.643  0.8410  0.4121  0.0985
  129CHL1  H19A15773   2.357   6.660   9.654 -0.7020 -0.3981 -0.1377
  129CHL1  H19B15774   2.289   6.787   9.537 -0.8480 -0.4485  0.1587
  129CHL1  H19C15775   2.372   6.841   9.682 -1.9897  2.1373  1.4281
  129CHL1    C115776   2.093   6.654   9.723  0.1822  1.1649 -0.5398
  129CHL1   H1A15777   2.147   6.568   9.768  0.0300 -0.0269 -2.5150
  129CHL1   H1B15778   2.015   6.675   9.798  1.3104  0.4296  0.8901
  129CHL1    C215779   2.027   6.619   9.591  0.0298  0.1887  0.4313
  129CHL1   H2A15780   1.945   6.544   9.597 -1.2904  1.6299  1.2394
  129CHL1   H2B15781   2.102   6.592   9.514  0.0844  3.8648 -1.0280
  129CHL1   C2015782   2.553   6.935  10.307 -0.9325 -0.7400 -0.6892
  129CHL1   H2015783   2.642   6.964  10.248  0.4495 -0.4214  1.4353
  129CHL1   C2115784   2.543   6.789  10.350  0.2115 -0.1493 -0.2567
  129CHL1  H21A15785   2.438   6.767  10.378  0.0546  0.2405 -0.5307
  129CHL1  H21B15786   2.605   6.767  10.439 -2.8813 -0.5640  1.9536
  129CHL1  H21C15787   2.579   6.716  10.274  0.3906  1.0355 -1.3528
  129CHL1   C2215788   2.570   7.025  10.436  0.0010  0.1040  0.3636
  129CHL1  H22A15789   2.661   6.991  10.489 -0.3756 -1.4638  0.0739
  129CHL1  H22B15790   2.600   7.125  10.398 -1.2819 -0.0005 -1.0369
  129CHL1   C2315791   2.446   7.023  10.530  0.0033 -0.2186 -0.0988
  129CHL1  H23A15792   2.359   7.048  10.466 -0.1661 -0.9148 -0.1436
  129CHL1  H23B15793   2.424   6.921  10.566 -0.5905  0.0252  0.2393
  129CHL1   C2415794   2.441   7.120  10.654  0.0312  0.2811 -0.0511
  129CHL1  H24A15795   2.411   7.217  10.607 -0.7449 -1.1940 -2.8414
  129CHL1  H24B15796   2.357   7.086  10.718  0.1829  1.1451  0.6223
  129CHL1   C2515797   2.561   7.133  10.749  0.3249 -0.6872  0.1823
  129CHL1   H2515798   2.641   7.173  10.682 -0.9951 -1.1631 -1.7825
  129CHL1   C2615799   2.530   7.226  10.864 -0.3064  0.0855  0.1604
  129CHL1  H26A15800   2.494   7.320  10.817  0.8690  0.8968  0.8237
  129CHL1  H26B15801   2.444   7.187  10.922  0.0347 -0.6444  0.1761
  129CHL1  H26C15802   2.618   7.257  10.925 -0.9949  0.4655  0.9946
  129CHL1   C2715803   2.598   6.999  10.810 -0.0627  0.1103 -0.0013
  129CHL1  H27A15804   2.504   6.966  10.859 -0.0698  0.0712 -0.0417
  129CHL1  H27B15805   2.618   6.930  10.726 -1.6914 -1.0203  0.4973
  129CHL1  H27C15806   2.675   6.996  10.890 -1.4444  0.6142  1.4137
  130CHL1    C315807   5.278   0.522   9.267  0.1928 -0.0779 -1.1003
  130CHL1    H315808   5.221   0.613   9.236 -1.7389 -1.6128 -2.3424
  130CHL1    O315809   5.287   0.438   9.153 -0.4821  0.0346  0.0558
  130CHL1   H3'15810   5.273   0.352   9.194 -2.4196  0.2269 -0.1089
  130CHL1    C415811   5.414   0.565   9.317  0.0566 -0.0774  0.4138
  130CHL1   H4A15812   5.473   0.480   9.357  1.4630  1.2205  1.1999
  130CHL1   H4B15813   5.472   0.611   9.234 -1.0029 -2.2102 -1.6508
  130CHL1    C515814   5.410   0.654   9.442 -0.2234  0.4796  0.6255
  130CHL1    C615815   5.483   0.765   9.449 -0.0706 -0.4637  0.4140
  130CHL1    H615816   5.560   0.788   9.374  0.7529  0.2781  1.4564
  130CHL1    C715817   5.498   0.859   9.573 -0.2625  0.6438  0.3680
  130CHL1   H7A15818   5.607   0.876   9.577  0.4440 -2.4478 -2.1418
  130CHL1   H7B15819   5.456   0.962   9.565 -0.4147  0.5338 -0.3064
  130CHL1    C815820   5.452   0.779   9.697 -0.6262  0.5900 -0.4336
  130CHL1    H815821   5.519   0.700   9.736 -0.3411  0.1804 -1.7088
  130CHL1   C1415822   5.440   0.876   9.817 -0.0826 -0.2305 -0.7024
  130CHL1   H1415823   5.372   0.958   9.786 -0.2267 -0.2585 -0.4593
  130CHL1   C1515824   5.570   0.952   9.857 -0.1949 -0.5088  0.3127
  130CHL1  H15A15825   5.660   0.886   9.852 -0.6375 -1.1817  0.9569
  130CHL1  H15B15826   5.575   1.038   9.788 -0.0210 -1.6305 -1.1253
  130CHL1   C1615827   5.538   0.987  10.004  0.3181  0.4104 -0.4568
  130CHL1  H16A15828   5.621   0.948  10.067 -0.4141  1.7805  1.4271
  130CHL1  H16B15829   5.541   1.094  10.035 -0.8979  0.5843 -0.8891
  130CHL1   C1715830   5.397   0.926  10.035 -0.2714 -0.7284 -0.1351
  130CHL1   H1715831   5.320   0.995   9.996 -0.1619 -0.3542  0.3060
  130CHL1   C1315832   5.383   0.814   9.938  0.4694  0.5278 -0.1142
  130CHL1   C1815833   5.466   0.694  10.001  0.0828 -0.1435  0.3044
  130CHL1  H18A15834   5.572   0.707  10.033  0.3350 -0.7633 -0.2652
  130CHL1  H18B15835   5.410   0.657  10.089 -1.4060  1.1215 -0.0598
  130CHL1  H18C15836   5.466   0.611   9.928  0.5995 -0.0461  0.1853
  130CHL1   C1215837   5.241   0.774   9.912 -0.0468 -0.0081 -0.3377
  130CHL1  H12A15838   5.191   0.730  10.001 -3.0962  0.2445 -1.8034
  130CHL1  H12B15839   5.174   0.859   9.887 -1.0134 -1.0084 -1.2608
  130CHL1   C1115840   5.236   0.673   9.795  0.1760  0.2435 -0.1701
  130CHL1  H11A15841   5.283   0.580   9.834  3.3667  0.8923 -2.0980
  130CHL1  H11B15842   5.131   0.641   9.779  0.8299 -2.8056  0.8194
  130CHL1    C915843   5.312   0.711   9.674 -0.2291 -0.6494 -0.2121
  130CHL1    H915844   5.251   0.782   9.614 -1.4210 -2.0047 -0.6687
  130CHL1   C1015845   5.330   0.600   9.567 -0.8076 -0.4020  0.6807
  130CHL1   C1915846   5.398   0.477   9.621 -0.1958 -0.2295  0.0860
  130CHL1  H19A15847   5.493   0.516   9.663 -0.2406  1.6790 -1.4788
  130CHL1  H19B15848   5.338   0.424   9.698  0.1333  0.4646  0.8400
  130CHL1  H19C15849   5.413   0.400   9.542 -2.5539 -2.2651  1.4790
  130CHL1    C115850   5.189   0.571   9.502 -0.3964  0.1656 -0.6236
  130CHL1   H1A15851   5.124   0.523   9.578 -0.3325  0.7422 -0.1981
  130CHL1   H1B15852   5.146   0.668   9.470 -0.3710  0.5457  0.4500
  130CHL1    C215853   5.187   0.464   9.386 -0.4812 -0.1635  0.0152
  130CHL1   H2A15854   5.081   0.456   9.355 -0.8543 -0.5066  1.2896
  130CHL1   H2B15855   5.231   0.367   9.420 -1.2988 -0.2647  0.8154
  130CHL1   C2015856   5.365   0.899  10.185 -0.7317  0.4848 -0.6667
  130CHL1   H2015857   5.296   0.812  10.182  0.0904 -0.2585  0.7675
  130CHL1   C2115858   5.291   1.025  10.237 -0.1266  0.1475 -0.4630
  130CHL1  H21A15859   5.207   1.041  10.166 -1.2567  2.1419  1.2310
  130CHL1  H21B15860   5.360   1.112  10.241  0.8603 -0.6721  1.9299
  130CHL1  H21C15861   5.251   1.008  10.339  1.2950 -0.2174  0.0564
  130CHL1   C2215862   5.491   0.880  10.278 -0.5727  0.3923  0.2699
  130CHL1  H22A15863   5.551   0.801  10.228 -1.2280  0.1057 -0.0734
  130CHL1  H22B15864   5.547   0.976  10.286 -0.4140  0.1926  1.8297
  130CHL1   C2315865   5.447   0.817  10.422 -0.0556  0.3143 -0.3993
  130CHL1  H23A15866   5.387   0.895  10.474  1.3574  0.9673  0.3015
  130CHL1  H23B15867   5.390   0.727  10.391  0.9940 -0.0766 -1.2599
  130CHL1   C2415868   5.568   0.795  10.509  0.2042  0.7592  0.4461
  130CHL1  H24A15869   5.642   0.734  10.453 -0.5104 -0.7724  1.1011
  130CHL1  H24B15870   5.611   0.897  10.516  2.5743  0.2006 -3.1968
  130CHL1   C2515871   5.533   0.732  10.651 -0.0562 -0.6075 -0.0190
  130CHL1   H2515872   5.475   0.638  10.643  1.7044 -1.8269  0.8589
  130CHL1   C2615873   5.663   0.705  10.715 -0.0829 -0.2762 -0.4273
  130CHL1  H26A15874   5.735   0.643  10.657  1.1934  0.4204  0.3639
  130CHL1  H26B15875   5.711   0.802  10.739  0.0552 -0.6238  0.7678
  130CHL1  H26C15876   5.661   0.648  10.811 -0.3217  1.0937  0.4006
  130CHL1   C2715877   5.439   0.826  10.730  0.0269  0.2048 -0.0714
  130CHL1  H27A15878   5.450   0.807  10.838  0.1528 -2.4804 -0.4975
  130CHL1  H27B15879   5.472   0.931  10.716  1.3779  0.0486  1.6273
  130CHL1  H27C15880   5.331   0.814  10.706  0.1786  0.4025 -0.9132
  131CHL1    C315881   4.805   6.154  10.055  0.1037 -0.3209  0.1789
  131CHL1    H315882   4.793   6.264  10.063 -0.6899 -0.2501 -1.5501
  131CHL1    O315883   4.804   6.131   9.917 -0.1913 -0.1753 -0.5739
  131CHL1   H3'15884   4.811   6.035   9.918  0.4633 -0.3414  4.8344
  131CHL1    C415885   4.942   6.121  10.115  0.1808 -0.3713  0.2191
  131CHL1   H4A15886   4.943   6.010  10.106 -0.1435 -0.2517 -1.7833
  131CHL1   H4B15887   5.018   6.170  10.051 -0.0073 -1.0524 -0.5541
  131CHL1    C515888   4.962   6.158  10.264 -0.0309 -1.2363  1.1041
  131CHL1    C615889   5.049   6.255  10.305 -0.1500 -0.1723  0.7431
  131CHL1    H615890   5.125   6.306  10.244 -1.3801  1.8485  0.8042
  131CHL1    C715891   5.058   6.308  10.448 -0.5536 -0.1418  0.0746
  131CHL1   H7A15892   5.161   6.327  10.483 -0.5235  0.2049 -0.1964
  131CHL1   H7B15893   5.014   6.409  10.458 -0.2957 -0.2131  2.6011
  131CHL1    C815894   4.978   6.214  10.550  0.1228  0.2319 -0.1390
  131CHL1    H815895   5.038   6.124  10.576 -0.3002  0.0036  0.0502
  131CHL1   C1415896   4.961   6.280  10.690  0.5625  0.5292  0.9151
  131CHL1   H1415897   4.894   6.368  10.674  1.6445  1.7675  2.8161
  131CHL1   C1515898   5.084   6.334  10.757 -0.6207  0.3947 -0.1636
  131CHL1  H15A15899   5.163   6.256  10.761 -0.9515 -0.3061 -3.8546
  131CHL1  H15B15900   5.129   6.422  10.706  0.2517 -0.0446 -0.1575
  131CHL1   C1615901   5.036   6.356  10.902 -0.3526 -0.2831 -0.0495
  131CHL1  H16A15902   5.114   6.330  10.977 -0.0608 -1.7099 -0.8199
  131CHL1  H16B15903   5.015   6.465  10.904  2.7667  0.4068  1.1399
  131CHL1   C1715904   4.897   6.285  10.921  0.4043  0.0070 -0.6873
  131CHL1   H1715905   4.817   6.361  10.915  1.1454  1.3429  3.1192
  131CHL1   C1315906   4.885   6.198  10.793 -0.0828 -0.0102  0.2492
  131CHL1   C1815907   4.956   6.065  10.821  0.2187  0.4976 -0.1720
  131CHL1  H18A15908   4.903   6.002  10.896  2.9221 -0.4338  1.0937
  131CHL1  H18B15909   4.960   5.993  10.737  0.9392 -1.9253  1.7947
  131CHL1  H18C15910   5.063   6.076  10.846  0.4803 -0.7755 -0.6235
  131CHL1   C1215911   4.746   6.175  10.729  0.0139 -0.4267 -0.9560
  131CHL1  H12A15912   4.682   6.112  10.796  0.0776  1.2018  0.6942
  131CHL1  H12B15913   4.690   6.271  10.728  2.0209  0.8138  0.1074
  131CHL1   C1115914   4.753   6.097  10.593 -0.1045  0.7083 -0.1132
  131CHL1  H11A15915   4.794   5.997  10.618 -0.3365  0.4404 -0.7674
  131CHL1  H11B15916   4.650   6.079  10.555 -0.5019  0.9565  0.8348
  131CHL1    C915917   4.839   6.179  10.491  0.4133 -0.0188 -0.7362
  131CHL1    H915918   4.788   6.277  10.484 -1.0153 -0.5870  0.9819
  131CHL1   C1015919   4.846   6.110  10.356  0.2485 -0.6875  0.5601
  131CHL1   C1915920   4.880   5.962  10.371  0.2784 -0.7888 -0.6771
  131CHL1  H19A15921   4.793   5.906  10.412  1.6229 -1.1322  1.8824
  131CHL1  H19B15922   4.902   5.914  10.273  1.2363 -0.1126 -0.8058
  131CHL1  H19C15923   4.961   5.932  10.440  0.3240 -4.6234 -2.1274
  131CHL1    C115924   4.704   6.123  10.284  0.4077 -0.2188 -0.8358
  131CHL1   H1A15925   4.639   6.058  10.347  0.8565 -1.1151 -1.2798
  131CHL1   H1B15926   4.681   6.231  10.299  1.6667  0.0111 -0.4866
  131CHL1    C215927   4.693   6.091  10.129  0.7663 -0.0462 -0.3646
  131CHL1   H2A15928   4.596   6.128  10.089  1.3265  0.0258 -1.6853
  131CHL1   H2B15929   4.700   5.980  10.119 -2.6438 -0.3570 -0.7038
  131CHL1   C2015930   4.860   6.229  11.060 -0.0885  0.2443 -0.0963
  131CHL1   H2015931   4.915   6.133  11.068 -0.7098 -0.2271 -1.2685
  131CHL1   C2115932   4.711   6.175  11.052 -0.5945 -0.5725  0.1749
  131CHL1  H21A15933   4.675   6.182  11.157  2.9583  0.6929  1.5041
  131CHL1  H21B15934   4.712   6.072  11.013 -0.4673 -0.5456  0.1050
  131CHL1  H21C15935   4.645   6.243  10.994 -0.3477 -0.1220  0.4167
  131CHL1   C2215936   4.883   6.321  11.180  0.7698 -0.2140  0.0565
  131CHL1  H22A15937   4.987   6.357  11.195  0.6893  0.1668 -0.2688
  131CHL1  H22B15938   4.813   6.406  11.163 -3.1745 -3.4826 -1.7388
  131CHL1   C2315939   4.840   6.269  11.320 -0.7157  0.0061  0.2009
  131CHL1  H23A15940   4.730   6.259  11.328 -0.5941  0.1215  2.8730
  131CHL1  H23B15941   4.884   6.170  11.347  1.8175  0.9784 -0.0515
  131CHL1   C2415942   4.881   6.373  11.431  0.1153  0.5533 -0.4115
  131CHL1  H24A15943   4.992   6.378  11.435  0.2789  1.3502 -3.2114
  131CHL1  H24B15944   4.856   6.480  11.413  1.5326  1.3917  2.0768
  131CHL1   C2515945   4.835   6.334  11.577 -0.2317 -0.3241  0.2988
  131CHL1   H2515946   4.734   6.290  11.568 -0.9678  1.6098 -2.2193
  131CHL1   C2615947   4.941   6.247  11.638  0.3635 -0.6621 -0.5459
  131CHL1  H26A15948   5.038   6.302  11.637 -1.0133  2.1436  2.4954
  131CHL1  H26B15949   4.928   6.226  11.746  1.5038 -2.3330 -0.6824
  131CHL1  H26C15950   4.953   6.144  11.597  0.4964 -1.0810  0.4987
  131CHL1   C2715951   4.820   6.460  11.660 -0.4749 -0.5860  0.0711
  131CHL1  H27A15952   4.753   6.528  11.604  0.7317 -0.9144 -1.8441
  131CHL1  H27B15953   4.770   6.438  11.757  1.2562 -0.8460  0.9382
  131CHL1  H27C15954   4.922   6.501  11.674 -1.2436  1.3663  0.3285
  132CHL1    C315955   6.426   0.803   8.805 -0.1589 -0.1501  0.4822
  132CHL1    H315956   6.530   0.840   8.810 -0.3571  0.9560 -1.9504
  132CHL1    O315957   6.386   0.780   8.670  0.1291  0.4165  0.1035
  132CHL1   H3'15958   6.323   0.845   8.638  0.6717  0.8178 -0.1677
  132CHL1    C415959   6.432   0.668   8.878  0.4431 -0.0311 -0.3616
  132CHL1   H4A15960   6.334   0.619   8.859  0.8685 -1.7702  1.5239
  132CHL1   H4B15961   6.509   0.600   8.834  0.5638 -0.9971  1.2411
  132CHL1    C515962   6.450   0.672   9.032 -0.2001  0.1366  0.2608
  132CHL1    C615963   6.550   0.609   9.091  0.2531  0.7195  0.8250
  132CHL1    H615964   6.614   0.543   9.030 -2.9659 -3.2093  1.3475
  132CHL1    C715965   6.558   0.597   9.240 -0.0553 -0.6684  0.3587
  132CHL1   H7A15966   6.604   0.500   9.269  2.2252  0.4278  0.6397
  132CHL1   H7B15967   6.639   0.662   9.279  0.7408 -0.2892 -1.7843
  132CHL1    C815968   6.424   0.639   9.313  0.2732  0.3697 -0.7649
  132CHL1    H815969   6.353   0.557   9.294  0.5387  0.1989 -1.0279
  132CHL1   C1415970   6.448   0.660   9.463 -0.5269 -0.4086  0.5255
  132CHL1   H1415971   6.526   0.739   9.455 -0.7330 -0.4202 -3.3632
  132CHL1   C1515972   6.510   0.540   9.534  0.3784 -0.1700  0.7531
  132CHL1  H15A15973   6.470   0.445   9.491 -1.8864  1.2371 -0.4407
  132CHL1  H15B15974   6.620   0.530   9.523  0.5933  2.1621  0.4187
  132CHL1   C1615975   6.480   0.564   9.675  0.4873 -0.0938  0.2060
  132CHL1  H16A15976   6.413   0.483   9.710  0.1568 -0.5981 -1.4981
  132CHL1  H16B15977   6.563   0.575   9.748 -1.6611  1.5531  2.5716
  132CHL1   C1715978   6.405   0.704   9.684 -0.1346  0.1246 -0.0399
  132CHL1   H1715979   6.478   0.786   9.673  0.2590 -0.2677 -0.3871
  132CHL1   C1315980   6.337   0.710   9.546  0.1988  0.8401 -0.0632
  132CHL1   C1815981   6.216   0.611   9.547  0.0966  0.4419 -1.4282
  132CHL1  H18A15982   6.128   0.655   9.598  1.5541  0.9980  0.7552
  132CHL1  H18B15983   6.188   0.576   9.446 -3.0078 -2.8115  0.3066
  132CHL1  H18C15984   6.240   0.511   9.590  0.4818  1.4509  0.8474
  132CHL1   C1215985   6.297   0.847   9.490 -0.6486 -0.3597 -0.0245
  132CHL1  H12A15986   6.220   0.898   9.552  1.0533 -0.0619  1.9577
  132CHL1  H12B15987   6.379   0.920   9.478 -1.3510  0.0602 -3.0490
  132CHL1   C1115988   6.259   0.837   9.339  0.0038 -0.0648  0.0292
  132CHL1  H11A15989   6.174   0.766   9.338  0.0239 -0.1189  0.9608
  132CHL1  H11B15990   6.240   0.935   9.291 -1.9796  0.0892  1.0087
  132CHL1    C915991   6.370   0.765   9.255  0.4507 -0.9013 -0.0122
  132CHL1    H915992   6.453   0.839   9.250 -1.4574  1.3925  0.1475
  132CHL1   C1015993   6.347   0.758   9.099 -0.3773 -0.3065 -0.6052
  132CHL1   C1915994   6.209   0.689   9.084  0.4407  0.7430  0.0051
  132CHL1  H19A15995   6.210   0.582   9.113  0.0017  1.5668  3.5110
  132CHL1  H19B15996   6.127   0.740   9.138 -0.9410 -1.8530  0.4896
  132CHL1  H19C15997   6.189   0.684   8.975  0.3634 -1.0375  0.0827
  132CHL1    C115998   6.340   0.899   9.031  0.2900 -0.4908  0.2330
  132CHL1   H1A15999   6.249   0.944   9.077  0.6385 -0.6821  1.1237
  132CHL1   H1B16000   6.429   0.962   9.055 -1.6636  2.7130 -0.2782
  132CHL1    C216001   6.321   0.898   8.873  0.0534  0.1902 -0.4016
  132CHL1   H2A16002   6.341   0.992   8.818 -1.3123  0.8387  0.1610
  132CHL1   H2B16003   6.220   0.862   8.845 -0.6378  1.0646  0.8996
  132CHL1   C2016004   6.323   0.734   9.805  0.3465  0.7351  0.2615
  132CHL1   H2016005   6.223   0.687   9.811  0.9141 -0.6795 -0.6412
  132CHL1   C2116006   6.294   0.884   9.823  0.3859 -0.3652  0.0251
  132CHL1  H21A16007   6.215   0.918   9.753  1.4427  1.0330 -0.5367
  132CHL1  H21B16008   6.391   0.930   9.797  0.3887 -0.8059 -0.7712
  132CHL1  H21C16009   6.259   0.901   9.927  0.7778  1.1523 -0.0719
  132CHL1   C2216010   6.396   0.697   9.945 -0.6619 -0.1995 -0.1084
  132CHL1  H22A16011   6.335   0.705  10.037  1.1395  1.0092  1.0397
  132CHL1  H22B16012   6.435   0.593   9.943 -0.1337 -0.0036 -1.3936
  132CHL1   C2316013   6.529   0.778   9.963  0.8323 -0.5338  0.7449
  132CHL1  H23A16014   6.587   0.759   9.870 -0.9739 -0.4953 -0.4454
  132CHL1  H23B16015   6.500   0.885   9.969  1.4393 -0.4359  2.4470
  132CHL1   C2416016   6.613   0.740  10.086 -0.6727 -0.1953  0.2331
  132CHL1  H24A16017   6.557   0.782  10.173  2.1796  1.3836  1.4581
  132CHL1  H24B16018   6.634   0.632  10.103  3.0982  0.8129  3.8661
  132CHL1   C2516019   6.756   0.800  10.083  0.1894 -0.3428 -0.0906
  132CHL1   H2516020   6.742   0.903  10.043 -1.3361 -0.6640 -0.4757
  132CHL1   C2616021   6.821   0.803  10.226 -0.3631  0.2579  0.0060
  132CHL1  H26A16022   6.915   0.862  10.223 -0.4308  0.3367 -1.3877
  132CHL1  H26B16023   6.755   0.856  10.297 -0.1477  0.5077  0.0185
  132CHL1  H26C16024   6.847   0.698  10.252  2.8861  0.2759 -2.4742
  132CHL1   C2716025   6.847   0.735   9.992 -0.9965 -0.2441  0.1941
  132CHL1  H27A16026   6.861   0.628  10.022  0.9613 -0.0523  0.1148
  132CHL1  H27B16027   6.829   0.735   9.882  0.1092 -1.7354 -0.0256
  132CHL1  H27C16028   6.950   0.777   9.990 -1.6816  1.5123 -1.5663
  133CHL1    C316029   3.979   4.100  10.076  0.7693  0.5107  0.2310
  133CHL1    H316030   4.055   4.181  10.067  0.8144  1.0145  3.8452
  133CHL1    O316031   3.905   4.085   9.954 -0.1345  0.0742  0.1075
  133CHL1   H3'16032   3.861   4.003   9.979  1.1802 -1.8122 -3.1213
  133CHL1    C416033   4.052   3.963  10.112 -0.5699  0.5099 -0.0428
  133CHL1   H4A16034   3.984   3.876  10.103  0.3827 -0.3916  1.1287
  133CHL1   H4B16035   4.128   3.937  10.035 -1.7691 -1.8387 -0.5109
  133CHL1    C516036   4.114   3.966  10.252  0.1977  0.3642 -0.3711
  133CHL1    C616037   4.242   3.946  10.265 -0.4919  0.2002  0.2871
  133CHL1    H616038   4.303   3.927  10.175 -0.5005 -2.2995  0.7489
  133CHL1    C716039   4.307   3.935  10.399 -0.4299  0.0343  0.3205
  133CHL1   H7A16040   4.384   3.855  10.410 -0.2685  0.4201  2.3409
  133CHL1   H7B16041   4.357   4.032  10.422  0.4078 -0.3555  0.2098
  133CHL1    C816042   4.203   3.913  10.511 -0.5513  0.7251 -0.4702
  133CHL1    H816043   4.167   3.809  10.523  0.5290  0.3046 -0.7858
  133CHL1   C1416044   4.269   3.943  10.645 -0.3100 -0.0256 -0.1126
  133CHL1   H1416045   4.292   4.051  10.639  1.2930 -0.3070  0.3740
  133CHL1   C1516046   4.405   3.873  10.668  0.0258  0.5280 -0.4747
  133CHL1  H15A16047   4.391   3.766  10.643 -0.5013 -0.0171  1.9247
  133CHL1  H15B16048   4.487   3.908  10.601 -0.5681  2.7695 -0.1267
  133CHL1   C1616049   4.429   3.896  10.815  0.4268 -0.2398  0.3915
  133CHL1  H16A16050   4.469   3.805  10.864 -0.8739 -0.8235  0.4140
  133CHL1  H16B16051   4.497   3.982  10.832  0.8080  0.1064 -2.4189
  133CHL1   C1716052   4.291   3.944  10.872 -0.7129 -0.1400 -0.0551
  133CHL1   H1716053   4.305   4.054  10.880  1.2249 -0.4245  1.2093
  133CHL1   C1316054   4.183   3.918  10.764 -0.3328  0.0072 -0.0628
  133CHL1   C1816055   4.133   3.774  10.783  1.0140 -0.4603 -0.8045
  133CHL1  H18A16056   4.067   3.749  10.697 -0.4313 -0.4537  0.2593
  133CHL1  H18B16057   4.218   3.703  10.797  0.6075 -0.8752 -0.3884
  133CHL1  H18C16058   4.074   3.767  10.877  1.3374 -0.0303 -0.5660
  133CHL1   C1216059   4.075   4.022  10.760 -0.1674 -0.4334  0.1527
  133CHL1  H12A16060   4.006   4.021  10.847 -0.0881 -1.0407  0.2118
  133CHL1  H12B16061   4.127   4.120  10.758  0.1420 -0.5919  0.4394
  133CHL1   C1116062   3.991   4.005  10.628  0.1704  0.4267 -0.0934
  133CHL1  H11A16063   3.930   3.912  10.637 -1.7454  1.5803 -0.5635
  133CHL1  H11B16064   3.909   4.081  10.625  1.1633  1.7456  2.5821
  133CHL1    C916065   4.087   4.016  10.503  0.4611  0.1286  0.1419
  133CHL1    H916066   4.132   4.118  10.510 -1.5909  1.0307  0.8774
  133CHL1   C1016067   4.018   4.005  10.366  0.3484  0.5875 -0.3292
  133CHL1   C1916068   3.914   3.888  10.373 -0.6948  0.9587  0.1199
  133CHL1  H19A16069   3.961   3.787  10.385 -1.2228  0.4486 -1.7776
  133CHL1  H19B16070   3.837   3.901  10.452  0.8303  0.4956  1.7425
  133CHL1  H19C16071   3.852   3.877  10.281 -0.9370 -0.9541  0.4554
  133CHL1    C116072   3.943   4.138  10.331 -0.2219 -0.2374  0.2351
  133CHL1   H1A16073   3.866   4.164  10.407 -0.2099 -0.0807  0.1944
  133CHL1   H1B16074   4.014   4.223  10.338  0.7031 -1.1010  1.7829
  133CHL1    C216075   3.887   4.150  10.189 -0.0954 -0.1062 -0.2590
  133CHL1   H2A16076   3.866   4.256  10.162 -1.0272  0.5175  2.5959
  133CHL1   H2B16077   3.791   4.095  10.178  0.0908 -0.2211 -1.5636
  133CHL1   C2016078   4.269   3.900  11.014 -0.6404 -0.2900  0.5364
  133CHL1   H2016079   4.242   3.792  11.012  0.5169 -0.5939  0.9649
  133CHL1   C2116080   4.144   3.978  11.076 -1.2154  0.6186 -0.4445
  133CHL1  H21A16081   4.147   3.968  11.187  1.2019  0.0958 -0.5107
  133CHL1  H21B16082   4.054   3.935  11.026 -0.2398  0.1901 -1.8954
  133CHL1  H21C16083   4.156   4.085  11.049  1.0903  0.7241  0.7510
  133CHL1   C2216084   4.388   3.907  11.110 -0.2453 -0.4326  0.0351
  133CHL1  H22A16085   4.350   3.881  11.211  1.4057 -0.2218  0.7438
  133CHL1  H22B16086   4.451   3.820  11.085 -1.5901 -1.8320  1.2715
  133CHL1   C2316087   4.472   4.042  11.114  0.0170 -0.3853  0.1578
  133CHL1  H23A16088   4.544   4.040  11.030 -1.2577 -0.8547 -0.9520
  133CHL1  H23B16089   4.398   4.126  11.113  1.5324  1.0037  0.7095
  133CHL1   C2416090   4.558   4.073  11.242 -0.5752 -0.3429  0.9574
  133CHL1  H24A16091   4.493   4.064  11.332 -0.4030  0.6505  1.1885
  133CHL1  H24B16092   4.630   3.989  11.252 -1.0093 -0.7426  0.7416
  133CHL1   C2516093   4.634   4.210  11.240 -0.2516 -0.0106  0.8578
  133CHL1   H2516094   4.558   4.289  11.223  1.1295  1.6590  2.0619
  133CHL1   C2616095   4.700   4.245  11.369  0.5428 -0.3134 -0.5800
  133CHL1  H26A16096   4.738   4.350  11.365 -0.9387  0.2766  0.0941
  133CHL1  H26B16097   4.627   4.244  11.453  2.0924 -1.2778  0.8154
  133CHL1  H26C16098   4.783   4.178  11.399 -0.6811 -0.8896  1.6980
  133CHL1   C2716099   4.735   4.198  11.127 -0.0343 -0.8330  0.3400
  133CHL1  H27A16100   4.688   4.185  11.028 -1.3265  3.7695  0.1184
  133CHL1  H27B16101   4.805   4.283  11.116 -1.0703 -0.1966 -1.8156
  133CHL1  H27C16102   4.782   4.099  11.144 -0.4124 -1.5041 -2.1574
  134CHL1    C316103   2.090   5.168  10.027  0.8690  0.2644 -0.0172
  134CHL1    H316104   2.088   5.072   9.971  0.7088  0.1319  0.2126
  134CHL1    O316105   2.088   5.275   9.931  0.0454  0.0134 -0.0024
  134CHL1   H3'16106   2.002   5.252   9.895  0.5211 -2.4478  0.2411
  134CHL1    C416107   1.965   5.180  10.123 -0.3787 -0.0491  0.0167
  134CHL1   H4A16108   1.961   5.285  10.157 -0.1539  0.1666 -0.6162
  134CHL1   H4B16109   1.880   5.155  10.056 -0.7172 -1.0562  0.7958
  134CHL1    C516110   1.966   5.071  10.230  0.0257 -1.0031  0.8373
  134CHL1    C616111   1.856   4.991  10.240  0.2635  0.0464 -0.3311
  134CHL1    H616112   1.769   4.994  10.173  1.0158 -3.4653 -1.7238
  134CHL1    C716113   1.848   4.888  10.353 -0.6675 -0.2341  0.3242
  134CHL1   H7A16114   1.744   4.878  10.390 -1.7979 -2.3879 -2.9402
  134CHL1   H7B16115   1.875   4.791  10.307 -1.1191  0.3385 -1.2229
  134CHL1    C816116   1.960   4.906  10.467  0.0158  0.2232  0.0100
  134CHL1    H816117   1.924   4.992  10.528 -3.1646 -0.8051 -0.2893
  134CHL1   C1416118   1.974   4.773  10.543 -1.0810 -0.1659  0.0976
  134CHL1   H1416119   2.029   4.699  10.481 -0.4625 -1.4585  2.0861
  134CHL1   C1516120   1.850   4.716  10.605  0.6095  0.7361 -0.6533
  134CHL1  H15A16121   1.786   4.795  10.650  0.9222 -0.3265  1.8253
  134CHL1  H15B16122   1.782   4.662  10.535 -1.2621  0.7393  1.0429
  134CHL1   C1616123   1.897   4.626  10.722 -0.3236 -0.0331  0.2859
  134CHL1  H16A16124   1.848   4.653  10.818 -0.9243  2.7590 -0.7074
  134CHL1  H16B16125   1.897   4.516  10.706  2.2731  0.1477 -1.6188
  134CHL1   C1716126   2.052   4.660  10.723  0.3742  0.3360 -0.4716
  134CHL1   H1716127   2.092   4.583  10.654 -0.4450  0.7651 -1.4336
  134CHL1   C1316128   2.078   4.788  10.655  0.0049 -0.5504 -0.1673
  134CHL1   C1816129   2.042   4.905  10.748  0.4060 -0.2711 -0.6222
  134CHL1  H18A16130   2.045   5.006  10.700  1.1216  0.2999  0.5607
  134CHL1  H18B16131   1.942   4.892  10.792  0.8011 -0.8587  0.1213
  134CHL1  H18C16132   2.106   4.923  10.838 -1.2776  1.0750  0.3701
  134CHL1   C1216133   2.212   4.810  10.592  0.2437 -0.8024 -0.0900
  134CHL1  H12A16134   2.291   4.812  10.670  1.0542  1.7772 -0.8871
  134CHL1  H12B16135   2.233   4.720  10.530  1.9207  1.4337 -2.9568
  134CHL1   C1116136   2.215   4.935  10.505 -0.4419  0.0871  0.3204
  134CHL1  H11A16137   2.206   5.024  10.571  2.3599  1.4074 -0.9102
  134CHL1  H11B16138   2.313   4.940  10.452  0.2816 -0.1930  1.5901
  134CHL1    C916139   2.094   4.942  10.402  0.1839  0.2298  0.7841
  134CHL1    H916140   2.113   4.851  10.340  0.9435  1.2555 -0.5607
  134CHL1   C1016141   2.099   5.069  10.312  0.0151 -0.4392  0.5638
  134CHL1   C1916142   2.086   5.196  10.406  0.5848  0.4154  0.5162
  134CHL1  H19A16143   2.091   5.294  10.354 -1.2816 -0.1157 -0.7782
  134CHL1  H19B16144   1.988   5.184  10.457  0.5545 -0.4090  0.2835
  134CHL1  H19C16145   2.169   5.209  10.479 -0.6267  0.7341  1.8827
  134CHL1    C116146   2.226   5.067  10.219 -1.0079  0.2455 -0.5538
  134CHL1   H1A16147   2.312   5.088  10.287 -2.4090 -0.0153  1.3751
  134CHL1   H1B16148   2.231   4.962  10.182 -0.6018 -0.0333  0.2641
  134CHL1    C216149   2.221   5.170  10.103  0.0333  0.9490 -0.0291
  134CHL1   H2A16150   2.310   5.157  10.038  0.6683 -1.5588  1.2399
  134CHL1   H2B16151   2.229   5.271  10.147  2.3717  0.9247 -0.2629
  134CHL1   C2016152   2.129   4.631  10.851 -0.4346  0.1174 -0.7396
  134CHL1   H2016153   2.209   4.708  10.860 -3.6128  3.5630  1.0584
  134CHL1   C2116154   2.191   4.484  10.847 -0.2008 -0.1228 -0.7871
  134CHL1  H21A16155   2.106   4.413  10.857 -0.6130  0.2174 -1.8015
  134CHL1  H21B16156   2.251   4.474  10.940 -2.5724  0.8410  0.9344
  134CHL1  H21C16157   2.248   4.472  10.752 -1.3400 -2.2515 -1.2642
  134CHL1   C2216158   2.055   4.643  10.987  0.3684  0.2573 -0.9845
  134CHL1  H22A16159   2.002   4.740  10.980 -0.6322 -0.1295  0.6710
  134CHL1  H22B16160   1.976   4.565  10.986 -0.6733  1.2773 -0.5933
  134CHL1   C2316161   2.128   4.646  11.120  0.9404 -0.3397 -0.9667
  134CHL1  H23A16162   2.143   4.546  11.166  4.3346  0.3133 -0.3557
  134CHL1  H23B16163   2.228   4.693  11.103  0.8858  0.7693  1.3956
  134CHL1   C2416164   2.056   4.743  11.224  0.2268  0.0194 -0.1946
  134CHL1  H24A16165   2.036   4.837  11.169  0.5001  1.2016  1.6451
  134CHL1  H24B16166   1.959   4.699  11.258  0.9586 -1.9341 -0.4872
  134CHL1   C2516167   2.131   4.769  11.351 -0.1619  0.2496  0.2441
  134CHL1   H2516168   2.236   4.802  11.339 -1.0210  4.1527  1.8088
  134CHL1   C2616169   2.063   4.887  11.420  0.1610  0.4695  0.3560
  134CHL1  H26A16170   1.959   4.860  11.449 -0.1454  0.5489 -0.6490
  134CHL1  H26B16171   2.116   4.921  11.512  0.7362  3.6988 -1.0456
  134CHL1  H26C16172   2.060   4.971  11.348  0.7436  1.4082  1.3835
  134CHL1   C2716173   2.125   4.652  11.449 -0.1201  0.1930 -0.0208
  134CHL1  H27A16174   2.199   4.579  11.409 -1.4467 -1.3290  0.2167
  134CHL1  H27B16175   2.156   4.692  11.549 -1.5478 -2.3518  1.5384
  134CHL1  H27C16176   2.028   4.600  11.460  0.5626 -1.1999 -0.3645
  135CHL1    C316177   1.436   4.490   9.916 -0.2100 -0.6461  0.0717
  135CHL1    H316178   1.439   4.379   9.919  0.7681 -0.6078  0.8587
  135CHL1    O316179   1.437   4.536   9.785  0.1106  0.5179  0.5877
  135CHL1   H3'16180   1.402   4.626   9.781  0.2676  0.5567 -0.0735
  135CHL1    C416181   1.315   4.555   9.985 -0.3077  0.3343  0.0027
  135CHL1   H4A16182   1.317   4.665   9.979  0.4376  0.3521  0.3431
  135CHL1   H4B16183   1.222   4.536   9.928 -1.8859  2.7012  1.6278
  135CHL1    C516184   1.303   4.520  10.128  0.7249  0.2600  0.4983
  135CHL1    C616185   1.202   4.447  10.184 -0.2317  0.4296  0.5487
  135CHL1    H616186   1.117   4.411  10.124  1.6059  0.2093 -2.0916
  135CHL1    C716187   1.179   4.431  10.326 -0.3555  0.4935 -0.6469
  135CHL1   H7A16188   1.079   4.473  10.352  1.1501  2.4098  2.6264
  135CHL1   H7B16189   1.181   4.321  10.344 -1.0997  0.3308 -1.4752
  135CHL1    C816190   1.279   4.509  10.417  0.9053 -0.2829  0.3732
  135CHL1    H816191   1.227   4.607  10.425 -0.5018 -0.8233 -1.3640
  135CHL1   C1416192   1.278   4.441  10.558  0.0616  0.0754  0.7656
  135CHL1   H1416193   1.324   4.343  10.534  0.2275  0.5370 -0.9501
  135CHL1   C1516194   1.154   4.395  10.633 -0.3628 -0.2277 -0.1038
  135CHL1  H15A16195   1.078   4.476  10.637  0.9172  0.9868  3.2792
  135CHL1  H15B16196   1.106   4.304  10.590 -0.0573  0.4364 -1.9644
  135CHL1   C1616197   1.199   4.373  10.779 -0.5232 -0.2247  0.1201
  135CHL1  H16A16198   1.146   4.439  10.850  1.0634  0.0878  1.0749
  135CHL1  H16B16199   1.181   4.266  10.807  0.0998 -0.5485 -0.6778
  135CHL1   C1716200   1.353   4.404  10.771  0.0901 -0.1659 -0.5237
  135CHL1   H1716201   1.405   4.309  10.746 -0.7440 -1.0330  0.8646
  135CHL1   C1316202   1.374   4.504  10.654 -0.0457 -0.4326  0.2674
  135CHL1   C1816203   1.324   4.651  10.692  0.4665 -0.3426 -0.5639
  135CHL1  H18A16204   1.235   4.645  10.759  1.3082  0.0805  0.6221
  135CHL1  H18B16205   1.401   4.701  10.754 -0.4023 -1.2951  1.3595
  135CHL1  H18C16206   1.312   4.720  10.606  0.8828  3.0904  1.9165
  135CHL1   C1216207   1.521   4.517  10.590  0.1570 -0.1010  0.0742
  135CHL1  H12A16208   1.603   4.565  10.647 -0.2380  1.9857 -1.0265
  135CHL1  H12B16209   1.555   4.412  10.576 -0.1321 -0.6455  2.9131
  135CHL1   C1116210   1.514   4.599  10.456  0.1430 -0.2756  0.1111
  135CHL1  H11A16211   1.478   4.701  10.482  1.9973  0.4137  0.0905
  135CHL1  H11B16212   1.618   4.608  10.417 -0.1336 -2.6377 -1.3697
  135CHL1    C916213   1.423   4.522  10.364 -0.3059  0.2716 -0.4531
  135CHL1    H916214   1.462   4.419  10.357 -1.9386 -0.3764 -0.5579
  135CHL1   C1016215   1.421   4.573  10.215 -0.4117  0.3770  0.1813
  135CHL1   C1916216   1.412   4.721  10.233 -0.7828  0.3711 -0.3495
  135CHL1  H19A16217   1.509   4.766  10.264 -1.0861  0.5140  0.4048
  135CHL1  H19B16218   1.391   4.765  10.133  0.7036 -2.4176 -2.0543
  135CHL1  H19C16219   1.327   4.760  10.293  0.3435  1.6924  0.4383
  135CHL1    C116220   1.555   4.516  10.143  0.0558 -0.5196 -0.0605
  135CHL1   H1A16221   1.643   4.572  10.182  1.4717 -0.6319 -2.8310
  135CHL1   H1B16222   1.580   4.409  10.159  1.1039 -0.0192  1.9883
  135CHL1    C216223   1.560   4.543   9.988 -0.0618  0.1809  0.3835
  135CHL1   H2A16224   1.640   4.481   9.944 -0.7646 -0.6480  0.2480
  135CHL1   H2B16225   1.582   4.650   9.964 -0.8587  0.6034  1.4097
  135CHL1   C2016226   1.408   4.437  10.915  0.1040  0.1885  0.3267
  135CHL1   H2016227   1.351   4.528  10.944  0.8953  1.1672 -1.0673
  135CHL1   C2116228   1.561   4.448  10.909  1.0451 -0.8229 -0.0927
  135CHL1  H21A16229   1.590   4.529  10.838 -1.7030  1.5145  1.2321
  135CHL1  H21B16230   1.608   4.355  10.872  3.3538 -0.5282  1.8704
  135CHL1  H21C16231   1.615   4.469  11.004 -0.6907  0.5184  0.6756
  135CHL1   C2216232   1.380   4.329  11.017  0.0684 -0.1367 -0.7156
  135CHL1  H22A16233   1.270   4.316  11.022 -0.0134  0.9634  1.0302
  135CHL1  H22B16234   1.432   4.235  10.987  1.7870  0.9950 -1.4463
  135CHL1   C2316235   1.419   4.364  11.163 -0.3623 -0.4888  0.0843
  135CHL1  H23A16236   1.528   4.378  11.178  0.1391 -0.2378 -3.1178
  135CHL1  H23B16237   1.372   4.463  11.185 -0.4978  0.3065 -3.3300
  135CHL1   C2416238   1.354   4.272  11.266  0.5631  0.1451 -0.0362
  135CHL1  H24A16239   1.243   4.263  11.255  0.3691  0.9681  1.1231
  135CHL1  H24B16240   1.393   4.168  11.262  0.1998  0.0418 -1.3978
  135CHL1   C2516241   1.364   4.318  11.417 -0.0416  0.3175 -0.7409
  135CHL1   H2516242   1.309   4.414  11.419  0.7487  0.7722  0.2568
  135CHL1   C2616243   1.299   4.216  11.515 -0.6804 -0.0991 -0.6249
  135CHL1  H26A16244   1.196   4.185  11.484 -0.7462 -0.0332 -0.4735
  135CHL1  H26B16245   1.360   4.126  11.537 -0.4333  0.3211  0.4738
  135CHL1  H26C16246   1.298   4.264  11.615  2.0572  2.1879 -1.5887
  135CHL1   C2716247   1.507   4.359  11.458  0.0309  0.3865 -0.7270
  135CHL1  H27A16248   1.539   4.456  11.414 -1.2583  0.4749 -1.5451
  135CHL1  H27B16249   1.522   4.364  11.568  0.4477 -0.4530 -0.7416
  135CHL1  H27C16250   1.583   4.288  11.420  1.4228  0.6636  1.4038
  136CHL1    C316251   2.101   2.352   9.504  0.2386  0.1288 -0.0465
  136CHL1    H316252   2.200   2.364   9.554  0.2608  0.4764 -0.1711
  136CHL1    O316253   2.118   2.388   9.368 -0.3565 -0.0051 -0.5812
  136CHL1   H3'16254   2.031   2.381   9.329  0.3542 -0.6936 -2.1113
  136CHL1    C416255   2.047   2.217   9.525  0.0614  0.4443 -0.1389
  136CHL1   H4A16256   1.946   2.200   9.483 -0.3177 -0.0305  0.9214
  136CHL1   H4B16257   2.109   2.144   9.467  0.1739 -1.1064  1.7900
  136CHL1    C516258   2.044   2.176   9.668 -0.1227 -0.9330  0.5203
  136CHL1    C616259   2.106   2.068   9.717 -0.1098 -0.2065  0.0875
  136CHL1    H616260   2.169   2.007   9.650 -1.3591 -0.7481 -0.6290
  136CHL1    C716261   2.087   2.023   9.861  0.1830  0.3776  0.6386
  136CHL1   H7A16262   2.071   1.913   9.864  0.8562  0.2424 -0.2634
  136CHL1   H7B16263   2.182   2.046   9.914 -1.3319 -0.2333  3.8820
  136CHL1    C816264   1.975   2.099   9.933  0.2459 -0.4770 -0.3777
  136CHL1    H816265   1.879   2.053   9.900  0.8309 -1.0558 -1.3092
  136CHL1   C1416266   1.995   2.080  10.084  0.5427  0.7445 -0.7383
  136CHL1   H1416267   2.094   2.125  10.105  0.2768  1.1656 -0.3485
  136CHL1   C1516268   2.002   1.941  10.142 -1.1353  0.0330 -0.5824
  136CHL1  H15A16269   1.917   1.883  10.100  0.9530 -1.5974 -2.8338
  136CHL1  H15B16270   2.099   1.897  10.111 -0.7817  0.1422  0.3397
  136CHL1   C1616271   1.977   1.958  10.291 -0.0594  0.0537 -0.9253
  136CHL1  H16A16272   1.896   1.890  10.326  1.0436 -0.1440  1.4288
  136CHL1  H16B16273   2.073   1.944  10.345 -0.7156  0.1566  0.3027
  136CHL1   C1716274   1.931   2.107  10.314  0.1270 -0.1315 -0.2132
  136CHL1   H1716275   2.021   2.167  10.337 -0.6128  1.3817 -1.1521
  136CHL1   C1316276   1.889   2.153  10.176 -0.6730 -0.0292  1.3148
  136CHL1   C1816277   1.747   2.100  10.141 -0.1190 -0.3550 -0.5095
  136CHL1  H18A16278   1.742   1.994  10.173 -0.4307 -0.6591 -1.5387
  136CHL1  H18B16279   1.672   2.165  10.190 -1.9188 -1.6763 -1.3979
  136CHL1  H18C16280   1.732   2.086  10.032  1.0907 -1.5434 -0.5446
  136CHL1   C1216281   1.909   2.300  10.147 -0.2376 -0.0059 -0.0683
  136CHL1  H12A16282   1.842   2.364  10.208 -0.1155 -1.1932  1.3856
  136CHL1  H12B16283   2.015   2.329  10.162  0.0981 -0.5211 -1.2938
  136CHL1   C1116284   1.887   2.333   9.993  0.1855 -0.8654  0.2536
  136CHL1  H11A16285   1.779   2.312   9.980  0.2754  0.0986 -2.8197
  136CHL1  H11B16286   1.897   2.443   9.986  1.3034 -0.8930  1.1480
  136CHL1    C916287   1.977   2.252   9.900  0.1890  0.4040 -0.3823
  136CHL1    H916288   2.082   2.273   9.929 -0.3176  1.2966  0.8661
  136CHL1   C1016289   1.961   2.278   9.750  0.4898 -0.4494 -0.5326
  136CHL1   C1916290   1.814   2.262   9.712 -0.0388  0.3236 -0.0192
  136CHL1  H19A16291   1.791   2.296   9.609  0.2340 -0.5737 -0.3892
  136CHL1  H19B16292   1.789   2.156   9.734  1.1024 -0.0007 -0.1857
  136CHL1  H19C16293   1.746   2.327   9.771 -1.3456  0.8836 -2.0695
  136CHL1    C116294   2.007   2.423   9.722  0.3946 -0.0477 -0.4067
  136CHL1   H1A16295   1.940   2.493   9.776 -1.0025  0.9045 -3.1794
  136CHL1   H1B16296   2.107   2.430   9.770 -0.5715  0.8933  1.5521
  136CHL1    C216297   2.013   2.451   9.574 -0.2266 -0.6418  0.7589
  136CHL1   H2A16298   2.051   2.552   9.549  2.0159 -2.1694 -2.8004
  136CHL1   H2B16299   1.911   2.452   9.530  0.3798 -0.5509 -0.6769
  136CHL1   C2016300   1.834   2.121  10.436 -0.9351  0.6722 -0.1942
  136CHL1   H2016301   1.745   2.060  10.412 -0.9995  1.0652 -0.9765
  136CHL1   C2116302   1.786   2.267  10.461 -0.5217  0.4800 -0.2035
  136CHL1  H21A16303   1.725   2.301  10.374  0.5428 -1.7417 -1.9272
  136CHL1  H21B16304   1.869   2.339  10.479 -0.4532  0.4374 -0.3439
  136CHL1  H21C16305   1.725   2.279  10.553  0.6656  1.6833  0.4609
  136CHL1   C2216306   1.908   2.056  10.559  0.0988  0.2079  0.4680
  136CHL1  H22A16307   1.927   1.948  10.540  0.3424  0.8130 -3.6613
  136CHL1  H22B16308   2.008   2.104  10.564  0.2479  0.7376 -3.6782
  136CHL1   C2316309   1.830   2.087  10.690  0.4840  0.4763 -0.3737
  136CHL1  H23A16310   1.835   2.196  10.708  0.0529  0.3481  0.5975
  136CHL1  H23B16311   1.724   2.066  10.664  0.2877  2.1191 -1.0258
  136CHL1   C2416312   1.898   2.012  10.801  0.6470  0.2230 -0.1722
  136CHL1  H24A16313   1.909   1.910  10.760 -4.0467 -0.6004  0.1471
  136CHL1  H24B16314   2.001   2.051  10.816  0.8865 -0.3413 -0.3291
  136CHL1   C2516315   1.837   2.009  10.939 -0.2443  0.2471  0.0746
  136CHL1   H2516316   1.732   1.977  10.925 -0.1974  0.9710 -2.4301
  136CHL1   C2616317   1.901   1.910  11.039 -0.5071 -0.2367  0.1544
  136CHL1  H26A16318   1.875   1.803  11.030  0.8667 -0.4250 -2.6098
  136CHL1  H26B16319   2.012   1.915  11.037 -0.4563 -1.4503 -1.4670
  136CHL1  H26C16320   1.864   1.951  11.136  1.8531  0.0452  1.0272
  136CHL1   C2716321   1.838   2.153  10.999 -0.5320 -0.4139  0.3723
  136CHL1  H27A16322   1.942   2.194  10.998  0.2764 -2.3411  0.6179
  136CHL1  H27B16323   1.771   2.207  10.929 -0.9109 -1.1470  0.1561
  136CHL1  H27C16324   1.794   2.147  11.101  0.8070 -1.3520  0.9331
  137CHL1    C316325   3.370   3.576   9.995 -0.4284 -0.1014  0.3287
  137CHL1    H316326   3.267   3.542   9.973 -1.1744  1.6228  0.9638
  137CHL1    O316327   3.436   3.633   9.884 -0.4591 -0.2651 -0.3511
  137CHL1   H3'16328   3.378   3.703   9.851  0.8744  0.8207 -0.4799
  137CHL1    C416329   3.364   3.676  10.103  0.0052 -0.8581  0.1215
  137CHL1   H4A16330   3.461   3.723  10.128 -1.0152  1.5819 -0.2189
  137CHL1   H4B16331   3.317   3.767  10.061  2.3427  0.3044 -0.1056
  137CHL1    C516332   3.315   3.621  10.239  0.2886 -0.3074  0.2892
  137CHL1    C616333   3.202   3.666  10.299  0.4206 -0.0167  0.9631
  137CHL1    H616334   3.142   3.750  10.259 -0.1221 -0.2800  1.2140
  137CHL1    C716335   3.155   3.617  10.427 -0.2800 -0.1795  0.4166
  137CHL1   H7A16336   3.124   3.698  10.496 -0.3607  0.8893 -0.8265
  137CHL1   H7B16337   3.072   3.544  10.417  0.2182 -0.7220  0.1493
  137CHL1    C816338   3.269   3.531  10.499  1.1961 -0.1026  0.7437
  137CHL1    H816339   3.342   3.600  10.547  0.9947  0.5453  0.1535
  137CHL1   C1416340   3.196   3.455  10.600  0.4331  0.4971  0.6378
  137CHL1   H1416341   3.125   3.385  10.551  2.2291 -1.4184  0.6591
  137CHL1   C1516342   3.115   3.541  10.703 -0.1342 -0.3947  0.5716
  137CHL1  H15A16343   3.183   3.624  10.730 -0.5438  0.3079 -0.4649
  137CHL1  H15B16344   3.021   3.586  10.662  0.1081  0.9685  1.4516
  137CHL1   C1616345   3.084   3.446  10.817 -0.0053 -0.6934 -0.0280
  137CHL1  H16A16346   3.120   3.488  10.913  0.5528  0.1585 -0.5991
  137CHL1  H16B16347   2.976   3.420  10.813 -0.0218 -0.8232  1.0547
  137CHL1   C1716348   3.158   3.313  10.784  0.1114  0.0813  0.3825
  137CHL1   H1716349   3.091   3.254  10.718  0.2213 -0.7034  0.9596
  137CHL1   C1316350   3.274   3.354  10.686 -0.1378 -0.2916  0.9600
  137CHL1   C1816351   3.376   3.443  10.763 -0.5442 -0.3177 -0.1095
  137CHL1  H18A16352   3.335   3.523  10.829 -0.2084  0.4542 -0.8204
  137CHL1  H18B16353   3.440   3.379  10.827 -2.5013 -0.0244  2.3103
  137CHL1  H18C16354   3.442   3.488  10.686 -0.5418  1.8497  1.0766
  137CHL1   C1216355   3.334   3.251  10.591  0.0384  0.2311 -0.1135
  137CHL1  H12A16356   3.398   3.182  10.651 -2.3120 -1.6188  0.4261
  137CHL1  H12B16357   3.251   3.195  10.542  0.6142  0.4741 -1.4080
  137CHL1   C1116358   3.413   3.317  10.473  0.4925  0.2003 -0.4928
  137CHL1  H11A16359   3.504   3.363  10.517  0.3697 -1.5230  1.7341
  137CHL1  H11B16360   3.441   3.239  10.400  2.1969  1.0829 -0.8193
  137CHL1    C916361   3.333   3.433  10.406 -0.2388 -0.4957 -0.1024
  137CHL1    H916362   3.249   3.384  10.351  0.5650 -1.9737 -0.0542
  137CHL1   C1016363   3.405   3.499  10.289 -0.1930 -0.0506  0.1435
  137CHL1   C1916364   3.544   3.555  10.331  0.2044 -0.3875 -0.6036
  137CHL1  H19A16365   3.607   3.470  10.365  0.3820 -0.6367 -1.5192
  137CHL1  H19B16366   3.604   3.610  10.256 -0.4763 -1.1739 -1.7483
  137CHL1  H19C16367   3.528   3.622  10.419  0.3130 -1.3414  0.1581
  137CHL1    C116368   3.417   3.400  10.171 -0.1849  0.1327  0.5208
  137CHL1   H1A16369   3.481   3.316  10.205 -0.8374 -0.4324  0.3885
  137CHL1   H1B16370   3.315   3.359  10.152 -0.5102  0.3343  1.7457
  137CHL1    C216371   3.467   3.458  10.037  0.4843  0.2207  0.0355
  137CHL1   H2A16372   3.469   3.380   9.957 -0.3898  0.5719 -0.3379
  137CHL1   H2B16373   3.569   3.498  10.057  0.2701  0.8245 -0.0580
  137CHL1   C2016374   3.190   3.237  10.910  0.0487  0.5493 -0.6908
  137CHL1   H2016375   3.268   3.279  10.977 -0.1715 -1.7826  1.1729
  137CHL1   C2116376   3.242   3.097  10.867  0.1673 -0.5256 -0.2373
  137CHL1  H21A16377   3.235   3.022  10.949  1.2501  0.3873  0.7344
  137CHL1  H21B16378   3.348   3.098  10.834  0.2169  1.4387 -0.0817
  137CHL1  H21C16379   3.176   3.055  10.788 -0.7396 -1.3906  0.9479
  137CHL1   C2216380   3.066   3.234  11.001 -0.0349 -0.0701  0.4475
  137CHL1  H22A16381   3.114   3.190  11.091  0.4440  1.2345  0.8547
  137CHL1  H22B16382   3.022   3.334  11.025  1.4347  0.1704  2.4865
  137CHL1   C2316383   2.951   3.136  10.960  0.6546 -0.0678 -0.0896
  137CHL1  H23A16384   2.901   3.179  10.871  1.1820  0.3257 -0.2029
  137CHL1  H23B16385   2.981   3.042  10.909 -3.4118 -0.8738 -1.4026
  137CHL1   C2416386   2.866   3.101  11.080 -0.2861 -0.3781  0.1158
  137CHL1  H24A16387   2.923   3.109  11.175  0.0577 -0.6426 -0.0642
  137CHL1  H24B16388   2.785   3.175  11.096 -0.2227 -0.6889  2.2324
  137CHL1   C2516389   2.804   2.964  11.066 -0.0086  0.0549 -0.1149
  137CHL1   H2516390   2.894   2.899  11.062  0.0502  0.1611 -0.5618
  137CHL1   C2616391   2.729   2.933  11.191  0.2757 -0.1766 -0.1212
  137CHL1  H26A16392   2.701   2.827  11.207  0.5921 -0.4400 -1.1994
  137CHL1  H26B16393   2.788   2.969  11.278 -0.0845  0.1118  0.0051
  137CHL1  H26C16394   2.640   2.999  11.198  1.4896  1.8455 -1.9977
  137CHL1   C2716395   2.713   2.944  10.944  0.1342 -0.4038 -0.7020
  137CHL1  H27A16396   2.768   2.945  10.847  0.2453  1.2983 -0.6517
  137CHL1  H27B16397   2.648   2.855  10.958  0.3581 -0.5113 -0.3448
  137CHL1  H27C16398   2.648   3.034  10.946  1.4025  0.5322 -0.4953
  138CHL1    C316399   3.090   2.144   9.582 -0.1109  0.1400 -0.0988
  138CHL1    H316400   3.030   2.050   9.572  0.6137 -0.4578  0.9587
  138CHL1    O316401   3.131   2.186   9.456  0.1421 -0.3520 -0.3955
  138CHL1   H3'16402   3.072   2.257   9.429  0.0400 -0.5988 -0.8347
  138CHL1    C416403   3.017   2.253   9.654 -0.4049 -0.1731 -0.8348
  138CHL1   H4A16404   3.072   2.348   9.637  0.1398 -0.5767 -1.3716
  138CHL1   H4B16405   2.918   2.264   9.603 -1.4494  0.8537  1.2854
  138CHL1    C516406   2.993   2.214   9.799 -0.8319  0.6144 -0.2371
  138CHL1    C616407   2.870   2.213   9.852 -0.3101 -0.0427 -0.0907
  138CHL1    H616408   2.781   2.234   9.791  0.6961  0.3973 -1.4620
  138CHL1    C716409   2.850   2.181   9.996 -0.2012 -0.3107 -0.4136
  138CHL1   H7A16410   2.773   2.256  10.024  0.6791  1.0826 -1.6041
  138CHL1   H7B16411   2.802   2.080   9.997  0.6850 -0.7450 -0.8564
  138CHL1    C816412   2.979   2.194  10.080  0.6154 -0.1116 -0.4673
  138CHL1    H816413   3.006   2.302  10.090  0.5766 -0.2555  1.5508
  138CHL1   C1416414   2.948   2.131  10.213 -0.8456 -0.7704 -0.1849
  138CHL1   H1416415   2.910   2.029  10.190 -2.0966  0.0463 -2.0487
  138CHL1   C1516416   2.830   2.192  10.288  0.3524  0.3353 -0.3947
  138CHL1  H15A16417   2.829   2.302  10.274 -1.2589  0.5765  1.2045
  138CHL1  H15B16418   2.729   2.162  10.253  0.2381  1.1649 -0.8033
  138CHL1   C1616419   2.850   2.149  10.436 -0.5025  0.5626 -0.0539
  138CHL1  H16A16420   2.865   2.238  10.501  1.8930  2.7538 -3.2862
  138CHL1  H16B16421   2.772   2.078  10.472 -2.9574  3.1338  0.0306
  138CHL1   C1716422   2.994   2.070  10.436  0.0887 -0.1663 -0.6255
  138CHL1   H1716423   2.978   1.961  10.422  1.4112 -0.4840  0.1572
  138CHL1   C1316424   3.069   2.126  10.310  0.2474 -0.5777 -0.4656
  138CHL1   C1816425   3.110   2.277  10.339 -0.2489 -0.5779 -0.2491
  138CHL1  H18A16426   3.017   2.336  10.355 -0.0226  0.4446 -2.3896
  138CHL1  H18B16427   3.172   2.280  10.432 -0.0277  1.1827 -0.4190
  138CHL1  H18C16428   3.147   2.330  10.249 -1.2173 -0.3019 -0.4932
  138CHL1   C1216429   3.177   2.041  10.241  0.4461  0.2106 -0.0086
  138CHL1  H12A16430   3.255   2.035  10.319 -2.6447 -1.5021  3.2639
  138CHL1  H12B16431   3.126   1.943  10.230 -0.7227  1.0151 -3.0392
  138CHL1   C1116432   3.216   2.093  10.105  0.0527 -0.2612 -0.2742
  138CHL1  H11A16433   3.268   2.190  10.119  1.2126 -0.9125  0.0502
  138CHL1  H11B16434   3.277   2.019  10.049 -1.4820 -1.1500 -0.8571
  138CHL1    C916435   3.091   2.116  10.015 -0.3029 -0.3832 -0.7642
  138CHL1    H916436   3.047   2.015  10.001 -0.0711 -0.5693 -0.2024
  138CHL1   C1016437   3.121   2.169   9.878  0.0394  0.8342 -0.1567
  138CHL1   C1916438   3.215   2.298   9.887 -0.5268 -0.0178 -0.4882
  138CHL1  H19A16439   3.216   2.360   9.795 -0.3668 -2.4937 -2.2546
  138CHL1  H19B16440   3.173   2.366   9.964 -0.3944  0.9322 -1.2318
  138CHL1  H19C16441   3.318   2.267   9.916 -1.0973  0.1576  1.9663
  138CHL1    C116442   3.209   2.059   9.793  0.0452 -0.4756  0.0445
  138CHL1   H1A16443   3.308   2.064   9.843  0.5100 -0.2315 -0.8720
  138CHL1   H1B16444   3.164   1.960   9.812 -0.7572  0.4230  3.6394
  138CHL1    C216445   3.226   2.105   9.649  0.3885 -0.4597 -0.1422
  138CHL1   H2A16446   3.274   2.019   9.597  1.3632  0.3519 -0.6092
  138CHL1   H2B16447   3.299   2.188   9.641 -1.7882  1.4545 -1.2012
  138CHL1   C2016448   3.057   2.069  10.580  0.3147 -1.2855 -0.0424
  138CHL1   H2016449   3.066   2.175  10.614  2.3300 -0.9772 -1.3973
  138CHL1   C2116450   3.200   2.014  10.584 -0.4668  0.2358  0.7228
  138CHL1  H21A16451   3.247   1.994  10.682 -0.2375  1.5934  0.9178
  138CHL1  H21B16452   3.278   2.075  10.533  0.3431 -1.1757  0.2262
  138CHL1  H21C16453   3.197   1.922  10.522  0.2669  1.4348 -1.2071
  138CHL1   C2216454   2.968   1.997  10.686  0.2451  0.2284 -0.3513
  138CHL1  H22A16455   2.864   2.034  10.674 -1.0126 -3.0483 -0.5720
  138CHL1  H22B16456   2.961   1.887  10.669 -0.9238  0.3686 -0.8437
  138CHL1   C2316457   3.014   2.008  10.831  0.1055 -0.6074 -0.2326
  138CHL1  H23A16458   3.124   2.001  10.843  0.2808 -0.3867 -1.5228
  138CHL1  H23B16459   2.975   2.111  10.847 -1.8196 -0.5356 -4.0651
  138CHL1   C2416460   2.936   1.914  10.920  0.2435 -0.1087  0.8906
  138CHL1  H24A16461   2.828   1.932  10.900  0.4578 -0.6216 -0.8922
  138CHL1  H24B16462   2.953   1.809  10.889  2.2031  1.0012 -2.1313
  138CHL1   C2516463   2.962   1.923  11.068  0.9082  0.2894 -0.1015
  138CHL1   H2516464   2.967   2.031  11.094 -1.8545  0.0500  1.9354
  138CHL1   C2616465   2.842   1.863  11.139 -0.0271  0.3176 -0.4554
  138CHL1  H26A16466   2.839   1.877  11.249 -2.0709 -1.9323 -0.1418
  138CHL1  H26B16467   2.750   1.910  11.100  0.2263  2.3101  1.1819
  138CHL1  H26C16468   2.830   1.754  11.121 -0.8716  0.0156  1.6968
  138CHL1   C2716469   3.095   1.851  11.103  0.5373 -0.3217  0.0500
  138CHL1  H27A16470   3.107   1.841  11.213 -0.3825  2.1655  0.4584
  138CHL1  H27B16471   3.121   1.759  11.048  1.6667 -0.6553  1.0944
  138CHL1  H27C16472   3.172   1.923  11.070  0.5086 -0.1128  0.4256
  139CHL1    C316473   2.992   1.221   9.215  0.0018  0.3288 -0.7506
  139CHL1    H316474   2.914   1.150   9.250 -0.4002  0.8795 -0.5122
  139CHL1    O316475   2.970   1.274   9.084  0.4474 -0.4312 -0.0134
  139CHL1   H3'16476   3.052   1.317   9.062 -0.6726  1.4647 -0.6833
  139CHL1    C416477   2.998   1.343   9.311  0.0379  0.7786 -0.3120
  139CHL1   H4A16478   3.052   1.429   9.265  0.8134 -0.3248 -1.5081
  139CHL1   H4B16479   2.899   1.394   9.312 -0.3265  0.0768  0.0722
  139CHL1    C516480   3.036   1.300   9.448 -1.0310 -0.6534 -0.2941
  139CHL1    C616481   2.959   1.326   9.550  0.2888 -1.1940  0.7987
  139CHL1    H616482   2.869   1.388   9.538  1.5379  0.8731  1.5069
  139CHL1    C716483   3.003   1.280   9.687 -0.3094  0.0408  0.6198
  139CHL1   H7A16484   2.967   1.347   9.769 -1.3798  2.2232 -1.5006
  139CHL1   H7B16485   2.966   1.176   9.695 -2.9077  0.8178 -0.3004
  139CHL1    C816486   3.157   1.267   9.706 -0.6452 -0.1864  0.0576
  139CHL1    H816487   3.207   1.365   9.692 -0.6861 -0.1053  0.4568
  139CHL1   C1416488   3.205   1.212   9.842  0.0010 -0.1736  0.1088
  139CHL1   H1416489   3.160   1.110   9.851  3.1252 -1.6778  0.0178
  139CHL1   C1516490   3.158   1.277   9.972 -0.2556  0.3170  0.8841
  139CHL1  H15A16491   3.175   1.387   9.975 -0.4789  0.3620  0.5628
  139CHL1  H15B16492   3.051   1.260   9.997  0.0727  1.1094  3.1584
  139CHL1   C1616493   3.244   1.212  10.078 -0.3324 -0.7174 -0.1591
  139CHL1  H16A16494   3.278   1.296  10.141  2.3106 -0.9058 -1.1960
  139CHL1  H16B16495   3.176   1.148  10.138 -0.2819 -0.2607  0.3912
  139CHL1   C1716496   3.349   1.134  10.011 -0.2589  0.2307 -0.4760
  139CHL1   H1716497   3.314   1.029  10.022 -1.2655  0.5100 -0.9453
  139CHL1   C1316498   3.351   1.177   9.863 -0.5469 -0.0283 -0.2502
  139CHL1   C1816499   3.435   1.303   9.858  0.2286  0.8725  0.1567
  139CHL1  H18A16500   3.543   1.275   9.855 -0.3434 -1.8283 -3.9984
  139CHL1  H18B16501   3.421   1.354   9.760  3.9799 -0.0963 -1.0820
  139CHL1  H18C16502   3.418   1.367   9.947  0.7628  1.3441 -0.0707
  139CHL1   C1216503   3.390   1.073   9.761 -0.0879 -0.0824 -0.0396
  139CHL1  H12A16504   3.498   1.047   9.752 -0.2497 -0.8498  0.1343
  139CHL1  H12B16505   3.337   0.976   9.773  1.7993 -1.3932 -1.5355
  139CHL1   C1116506   3.348   1.125   9.619  0.2300  0.1439 -0.0901
  139CHL1  H11A16507   3.429   1.197   9.599  2.1385 -1.2720  2.0934
  139CHL1  H11B16508   3.362   1.037   9.552 -0.1481 -0.1273  0.1808
  139CHL1    C916509   3.202   1.172   9.597 -0.6491  0.3916 -0.2833
  139CHL1    H916510   3.153   1.073   9.607 -0.4681  0.3414  0.1187
  139CHL1   C1016511   3.170   1.220   9.455  0.8227 -0.4481  0.4907
  139CHL1   C1916512   3.285   1.313   9.409  0.2650  0.0197 -0.3922
  139CHL1  H19A16513   3.313   1.384   9.490 -1.4617 -1.7920  1.9387
  139CHL1  H19B16514   3.372   1.247   9.389 -0.5331 -1.1651 -0.0962
  139CHL1  H19C16515   3.268   1.367   9.314  0.2661  1.6062  0.4765
  139CHL1    C116516   3.160   1.097   9.357 -0.5387 -0.6558  0.6310
  139CHL1   H1A16517   3.263   1.056   9.346  0.8323  2.6240  0.1333
  139CHL1   H1B16518   3.093   1.019   9.399  0.1553 -1.4570  0.2854
  139CHL1    C216519   3.119   1.136   9.212 -0.6135 -0.2364 -0.1694
  139CHL1   H2A16520   3.109   1.037   9.163  1.9482 -0.8596  0.3897
  139CHL1   H2B16521   3.201   1.194   9.163  0.0640 -3.0191 -2.5976
  139CHL1   C2016522   3.484   1.117  10.091  0.4392  0.6413 -0.0463
  139CHL1   H2016523   3.549   1.202  10.059 -0.5608  0.2073 -3.5723
  139CHL1   C2116524   3.558   0.992  10.042  0.1816  0.5263 -0.0735
  139CHL1  H21A16525   3.571   0.987   9.932  0.0019 -1.4515 -0.0316
  139CHL1  H21B16526   3.483   0.914  10.068  0.3888  0.9063  1.8196
  139CHL1  H21C16527   3.659   0.966  10.082 -0.4452 -0.8491  0.7039
  139CHL1   C2216528   3.462   1.133  10.246  0.1501 -0.4411 -0.1846
  139CHL1  H22A16529   3.434   1.234  10.281  2.9073  0.5171 -0.5038
  139CHL1  H22B16530   3.377   1.071  10.283  1.6808 -1.8116  1.2241
  139CHL1   C2316531   3.589   1.089  10.327 -0.1466 -0.0521 -0.0292
  139CHL1  H23A16532   3.613   0.982  10.312  0.0224  0.1355 -1.2356
  139CHL1  H23B16533   3.677   1.145  10.287  0.7576 -1.3788  0.0340
  139CHL1   C2416534   3.582   1.129  10.474 -1.3180  0.1599 -0.1270
  139CHL1  H24A16535   3.564   1.239  10.478 -0.3309  0.3046  0.9061
  139CHL1  H24B16536   3.496   1.073  10.518  0.2582 -1.8747  0.5238
  139CHL1   C2516537   3.703   1.092  10.564 -0.6432 -0.5446  0.1673
  139CHL1   H2516538   3.787   1.150  10.522 -1.2280  0.5607  0.4828
  139CHL1   C2616539   3.685   1.140  10.710 -0.0926 -0.0358  0.3633
  139CHL1  H26A16540   3.769   1.113  10.778  0.9293 -1.7803 -1.4962
  139CHL1  H26B16541   3.668   1.249  10.719 -2.9312 -0.2585 -1.2839
  139CHL1  H26C16542   3.589   1.111  10.757 -0.0421  1.0998  1.1936
  139CHL1   C2716543   3.737   0.943  10.556 -0.4772  0.1185  0.0461
  139CHL1  H27A16544   3.810   0.911  10.633 -1.6971 -0.6896  0.8992
  139CHL1  H27B16545   3.635   0.902  10.571 -1.0725  1.0681 -1.2138
  139CHL1  H27C16546   3.776   0.922  10.454 -0.2913  0.7901 -0.0283
  140CHL1    C316547   3.813   2.131   9.384 -0.0757  0.7761  0.7946
  140CHL1    H316548   3.867   2.222   9.417  0.1064  0.5396  1.1623
  140CHL1    O316549   3.831   2.107   9.243 -0.3711  0.3633 -0.0071
  140CHL1   H3'16550   3.840   2.012   9.234 -1.2731  0.1277  1.3902
  140CHL1    C416551   3.861   2.004   9.459 -0.4108  0.2418  0.0901
  140CHL1   H4A16552   3.801   1.915   9.432 -0.3630  0.2746 -0.1313
  140CHL1   H4B16553   3.964   1.976   9.426  0.1054  2.3986 -0.2841
  140CHL1    C516554   3.855   2.033   9.607 -0.4367 -0.0110 -1.0129
  140CHL1    C616555   3.966   2.041   9.684 -0.6479  0.3416 -0.0925
  140CHL1    H616556   4.069   2.030   9.646  0.1116 -2.9838  2.4188
  140CHL1    C716557   3.962   2.059   9.831  0.1963 -0.6138 -0.1891
  140CHL1   H7A16558   4.012   1.966   9.866 -0.2009 -1.4198 -1.6594
  140CHL1   H7B16559   4.008   2.151   9.871  0.7634 -1.2305  0.6164
  140CHL1    C816560   3.819   2.061   9.891 -0.1476 -0.4445 -0.5600
  140CHL1    H816561   3.782   1.956   9.892  2.8145 -1.7417 -3.6960
  140CHL1   C1416562   3.815   2.126  10.028 -0.0777 -0.0736  0.0969
  140CHL1   H1416563   3.843   2.229   9.997 -1.2741  0.5390  1.0160
  140CHL1   C1516564   3.917   2.086  10.135  0.0824 -0.3182  0.0624
  140CHL1  H15A16565   3.908   1.975  10.137 -0.4752 -0.2711  0.5344
  140CHL1  H15B16566   4.015   2.122  10.096 -1.5713  1.4129 -2.8093
  140CHL1   C1616567   3.873   2.148  10.263  0.1754  0.2646 -0.5492
  140CHL1  H16A16568   3.859   2.071  10.342  0.4003  0.1651 -0.6047
  140CHL1  H16B16569   3.942   2.225  10.305  2.2155 -1.7098 -0.1222
  140CHL1   C1716570   3.731   2.208  10.232 -0.3914  0.4015 -0.1267
  140CHL1   H1716571   3.749   2.313  10.201  1.1783  0.1647 -0.0832
  140CHL1   C1316572   3.688   2.144  10.100 -0.2460 -0.6212  0.2740
  140CHL1   C1816573   3.640   1.998  10.120  0.1735  0.1625 -0.2341
  140CHL1  H18A16574   3.616   1.957  10.020 -0.9785  1.0535 -0.3501
  140CHL1  H18B16575   3.699   1.923  10.176 -3.7289 -2.0818  1.2315
  140CHL1  H18C16576   3.541   2.002  10.171 -0.1085 -0.3843 -0.7357
  140CHL1   C1216577   3.592   2.230  10.015 -0.4321 -0.6177  0.5950
  140CHL1  H12A16578   3.487   2.232  10.051 -0.5887 -0.1138  0.1211
  140CHL1  H12B16579   3.631   2.333  10.000 -0.4754 -0.5377  1.0063
  140CHL1   C1116580   3.584   2.172   9.873 -0.2273 -0.1524  0.5578
  140CHL1  H11A16581   3.518   2.083   9.865  0.8678 -0.9544  0.2397
  140CHL1  H11B16582   3.537   2.257   9.818  0.4575  1.1569  1.9076
  140CHL1    C916583   3.722   2.132   9.802 -0.3085  0.0713 -0.4191
  140CHL1    H916584   3.782   2.223   9.782  0.6077 -0.5588 -0.5842
  140CHL1   C1016585   3.716   2.073   9.663  0.0947 -0.6867 -0.1358
  140CHL1   C1916586   3.625   1.946   9.665 -0.1347  0.0838  0.4266
  140CHL1  H19A16587   3.613   1.900   9.565  0.0068  0.0276  0.4351
  140CHL1  H19B16588   3.683   1.868   9.718 -1.4794 -0.9994  0.3619
  140CHL1  H19C16589   3.525   1.951   9.714 -0.4899 -0.1660 -0.2591
  140CHL1    C116590   3.650   2.185   9.568 -0.1520  0.5959 -0.1316
  140CHL1   H1A16591   3.544   2.197   9.599 -0.3489 -0.3834 -0.3966
  140CHL1   H1B16592   3.705   2.281   9.584  3.1926 -0.7441 -2.4473
  140CHL1    C216593   3.667   2.155   9.418 -0.6127  0.2941  0.7684
  140CHL1   H2A16594   3.640   2.244   9.357 -0.4205 -0.0645  0.1531
  140CHL1   H2B16595   3.603   2.068   9.392  1.5957 -1.0276 -0.5033
  140CHL1   C2016596   3.637   2.221  10.361  0.9088 -0.3457  0.3539
  140CHL1   H2016597   3.707   2.243  10.445  0.1739 -2.3486  1.5578
  140CHL1   C2116598   3.578   2.089  10.408  0.7318  0.7488  0.4817
  140CHL1  H21A16599   3.489   2.065  10.346  3.2557 -2.3696 -2.3074
  140CHL1  H21B16600   3.561   2.086  10.518 -1.0340 -2.9686  0.2559
  140CHL1  H21C16601   3.652   2.009  10.384  1.3098  1.4280 -0.0354
  140CHL1   C2216602   3.526   2.334  10.368  1.0055  1.0597  0.8428
  140CHL1  H22A16603   3.582   2.428  10.352  1.6694  0.5525  0.1220
  140CHL1  H22B16604   3.451   2.314  10.289  0.9166  1.0259  0.9357
  140CHL1   C2316605   3.453   2.348  10.505 -0.9072 -0.5231 -0.4585
  140CHL1  H23A16606   3.396   2.442  10.488 -1.0572 -0.6309 -0.5532
  140CHL1  H23B16607   3.382   2.264  10.519 -0.2326 -0.9732  0.4183
  140CHL1   C2416608   3.544   2.370  10.628 -0.3600 -0.0979 -0.7890
  140CHL1  H24A16609   3.615   2.288  10.653 -0.5355  0.9072  4.0271
  140CHL1  H24B16610   3.609   2.453  10.593 -1.8326  1.1368 -0.6826
  140CHL1   C2516611   3.457   2.412  10.746  0.2873  0.6000 -1.0652
  140CHL1   H2516612   3.375   2.481  10.715 -0.9013  0.9806  2.5194
  140CHL1   C2616613   3.529   2.472  10.868 -0.4067 -0.0087  0.1226
  140CHL1  H26A16614   3.465   2.492  10.956 -0.7056 -1.1349  0.1732
  140CHL1  H26B16615   3.602   2.397  10.905  0.3380 -0.2223 -1.6579
  140CHL1  H26C16616   3.591   2.562  10.846  0.5258 -0.0726  2.2959
  140CHL1   C2716617   3.382   2.279  10.800 -0.3429  0.2670 -0.6701
  140CHL1  H27A16618   3.324   2.284  10.894  2.4314  0.9220  1.1054
  140CHL1  H27B16619   3.303   2.249  10.727 -0.7877 -2.0462  0.6676
  140CHL1  H27C16620   3.449   2.193  10.821 -2.1611 -1.3663 -1.2422
  141DOPC     N16621   0.586   4.653  14.326  0.2901  0.0828  0.2559
  141DOPC   C1216622   0.595   4.808  14.312 -0.4698 -0.6036 -0.1378
  141DOPC  H12A16623   0.676   4.852  14.367 -1.2746 -0.4516  0.9466
  141DOPC  H12B16624   0.518   4.859  14.367 -0.5492 -0.1777 -0.6386
  141DOPC   C1316625   0.440   4.613  14.309  0.8124 -0.1431 -0.3417
  141DOPC  H13A16626   0.381   4.651  14.226  0.0705  0.0443  0.2530
  141DOPC  H13B16627   0.435   4.505  14.310  0.5725 -0.1468  1.5195
  141DOPC  H13C16628   0.381   4.643  14.394  1.7722 -0.1387  0.3371
  141DOPC   C1416629   0.634   4.622  14.465 -0.3892 -0.5865  0.3905
  141DOPC  H14A16630   0.592   4.681  14.545 -1.6721 -1.8268  0.6646
  141DOPC  H14B16631   0.607   4.521  14.488  0.4921 -0.8988  0.0974
  141DOPC  H14C16632   0.741   4.633  14.475 -0.3920  2.7589 -1.6736
  141DOPC   C1516633   0.673   4.570  14.232 -0.1211  0.0331  0.1802
  141DOPC  H15A16634   0.642   4.606  14.135 -0.2657  1.4361  0.7094
  141DOPC  H15B16635   0.665   4.463  14.238 -0.8499 -0.0089 -1.0752
  141DOPC  H15C16636   0.773   4.597  14.263 -0.9124 -0.2541  3.2641
  141DOPC   C1116637   0.578   4.861  14.162  0.3003  0.2655 -0.7650
  141DOPC  H11A16638   0.604   4.969  14.167  2.9908 -0.3237 -0.5851
  141DOPC  H11B16639   0.659   4.823  14.096  1.7873  1.3021  0.3791
  141DOPC     P16640   0.426   4.850  13.954 -0.1957  0.2185  0.0699
  141DOPC   O1316641   0.439   4.991  13.902 -0.2478  0.3496  0.7102
  141DOPC   O1416642   0.290   4.790  13.935 -0.0580  0.3228 -0.2972
  141DOPC   O1216643   0.447   4.853  14.114 -0.3833 -0.1680 -0.0361
  141DOPC   O1116644   0.534   4.760  13.887  0.2497 -0.3665  0.1007
  141DOPC    C116645   0.642   4.809  13.808 -0.5616 -0.5285  0.4711
  141DOPC    HA16646   0.722   4.732  13.806  0.7875  0.8260 -1.3658
  141DOPC    HB16647   0.687   4.902  13.849 -0.1436 -0.7280  0.4762
  141DOPC    C216648   0.607   4.821  13.659  0.7084  0.2916 -0.5039
  141DOPC    HS16649   0.703   4.814  13.604  2.1376  1.2530  1.7182
  141DOPC   O2116650   0.539   4.943  13.616  0.0675  0.3592  0.1370
  141DOPC   C2116651   0.618   5.046  13.621  0.0846 -0.3538 -0.2313
  141DOPC   O2216652   0.738   5.043  13.640 -0.1166 -0.1999 -0.1961
  141DOPC   C2216653   0.543   5.179  13.622  1.1195  0.7528 -0.2882
  141DOPC   H2R16654   0.572   5.237  13.712  2.1041  0.8684 -0.6633
  141DOPC   H2S16655   0.433   5.172  13.621  1.1448  0.3981 -0.7435
  141DOPC    C316656   0.510   4.697  13.627 -0.4940  0.2167 -0.4021
  141DOPC    HX16657   0.406   4.721  13.655  0.3047  3.5274  0.2081
  141DOPC    HY16658   0.544   4.618  13.698  0.1145  0.6365 -0.2147
  141DOPC   O3116659   0.534   4.653  13.496 -1.0201  0.3760  0.2974
  141DOPC   C3116660   0.446   4.579  13.437 -0.2044 -0.1609 -0.4740
  141DOPC   O3216661   0.344   4.529  13.480 -0.5883  0.5361  0.2354
  141DOPC   C3216662   0.486   4.570  13.289 -0.1100 -0.1691  0.6317
  141DOPC   H2X16663   0.438   4.657  13.241 -0.0501  0.2435  1.3085
  141DOPC   H2Y16664   0.597   4.571  13.276 -0.3367 -0.4217 -1.7409
  141DOPC   C2316665   0.576   5.270  13.504  0.3603  1.2305  0.4558
  141DOPC   H3R16666   0.686   5.284  13.500  0.7253 -1.3653 -0.9564
  141DOPC   H3S16667   0.537   5.371  13.529 -1.8619  0.7995 -1.0096
  141DOPC   C2416668   0.518   5.235  13.368 -0.1371 -0.2609 -0.2687
  141DOPC   H4R16669   0.408   5.225  13.372 -0.1566 -0.0004 -0.0742
  141DOPC   H4S16670   0.559   5.138  13.335  1.5800 -0.1289  1.2814
  141DOPC   C2516671   0.547   5.339  13.268 -0.2320  0.2221  0.3761
  141DOPC   H5R16672   0.656   5.354  13.252 -0.1874 -0.3368  0.1419
  141DOPC   H5S16673   0.505   5.436  13.304  1.7881  1.2883  0.0218
  141DOPC   C2616674   0.486   5.318  13.125  0.3457 -0.7047  0.0776
  141DOPC   H6R16675   0.489   5.408  13.060  0.0375 -1.3423 -0.8373
  141DOPC   H6S16676   0.379   5.296  13.147 -0.3448  1.9601 -0.2690
  141DOPC   C2716677   0.554   5.205  13.047 -0.3297  0.1607  0.5438
  141DOPC   H7R16678   0.480   5.171  12.972 -0.1242 -0.5185  0.6410
  141DOPC   H7S16679   0.578   5.124  13.120  0.2345 -1.2013 -1.0969
  141DOPC   C2816680   0.683   5.255  12.971 -0.3174 -0.2622 -0.0842
  141DOPC   H8R16681   0.764   5.284  13.041  0.7369 -0.5822 -1.1420
  141DOPC   H8S16682   0.657   5.354  12.928 -1.3967  0.6567  2.4394
  141DOPC   C2916683   0.742   5.156  12.877  0.2265  0.3144  0.0171
  141DOPC   H9R16684   0.811   5.084  12.922 -0.0770  0.1261  0.1870
  141DOPC  C21016685   0.698   5.137  12.750 -0.3905 -0.6381  0.5009
  141DOPC  H10R16686   0.751   5.060  12.693 -1.0512  1.2858 -3.0147
  141DOPC  C21116687   0.594   5.219  12.673  0.4542  0.1600 -0.5448
  141DOPC  H11R16688   0.556   5.300  12.739 -0.2121 -1.4411  1.1044
  141DOPC  H11S16689   0.509   5.150  12.659 -0.4173  0.7015  1.6386
  141DOPC  C21216690   0.648   5.281  12.548 -0.6481 -0.1503 -0.9422
  141DOPC  H12R16691   0.750   5.320  12.569 -0.7619 -0.3177 -0.0067
  141DOPC  H12S16692   0.581   5.368  12.530  1.6234  1.5987 -1.2513
  141DOPC  C21316693   0.651   5.181  12.433  0.2884  0.0016  0.6038
  141DOPC  H13R16694   0.555   5.125  12.439  1.1668 -1.5400  0.5730
  141DOPC  H13S16695   0.733   5.109  12.453  1.4129  0.6298 -1.4625
  141DOPC  C21416696   0.653   5.251  12.295 -0.3464 -0.3886  0.0730
  141DOPC  H14R16697   0.751   5.301  12.283  0.0339 -0.8463  1.1486
  141DOPC  H14S16698   0.575   5.330  12.291  2.4972  2.6387  0.3479
  141DOPC  C21516699   0.624   5.157  12.182  0.1521  0.2784  0.5089
  141DOPC  H15R16700   0.529   5.105  12.206  0.0234  0.3531  0.1739
  141DOPC  H15S16701   0.702   5.079  12.175  1.2155  1.2796  1.0029
  141DOPC  C21616702   0.606   5.238  12.055  0.1607 -0.8638  1.2883
  141DOPC  H16R16703   0.704   5.280  12.024 -1.2289  1.9055  0.3023
  141DOPC  H16S16704   0.531   5.316  12.082  0.3629  0.4317 -1.5126
  141DOPC  C21716705   0.550   5.159  11.933 -0.4266  0.2425 -0.2522
  141DOPC  H17R16706   0.446   5.126  11.950 -0.4889  0.4092 -0.3094
  141DOPC  H17S16707   0.601   5.061  11.924 -3.0388 -1.2412  0.2206
  141DOPC  C21816708   0.564   5.241  11.803  0.0344 -0.6430 -0.4481
  141DOPC  H18R16709   0.467   5.289  11.780 -0.9586 -1.3943  1.8970
  141DOPC  H18S16710   0.590   5.185  11.711 -0.3798 -2.6634  0.6003
  141DOPC  H18T16711   0.637   5.323  11.821 -0.4552 -0.9401  4.2838
  141DOPC   C3316712   0.422   4.447  13.217  0.0776 -0.8092  0.1206
  141DOPC   H3X16713   0.312   4.450  13.230  0.0666  0.3513 -0.1259
  141DOPC   H3Y16714   0.460   4.355  13.266 -0.6337 -1.5097 -0.6140
  141DOPC   C3416715   0.475   4.440  13.068  0.3132 -0.1267  0.1679
  141DOPC   H4X16716   0.585   4.455  13.059  0.5372 -2.6309 -3.1794
  141DOPC   H4Y16717   0.424   4.530  13.026  0.9117  0.5497  0.8568
  141DOPC   C3516718   0.425   4.327  12.985  0.3430 -0.2870 -0.2077
  141DOPC   H5X16719   0.316   4.334  12.963  0.1608  0.9973  0.9601
  141DOPC   H5Y16720   0.440   4.232  13.040 -1.1126 -0.8726 -0.7657
  141DOPC   C3616721   0.481   4.334  12.843 -0.1844 -0.4051  0.0089
  141DOPC   H6X16722   0.450   4.429  12.795 -0.4267 -0.1120  0.7223
  141DOPC   H6Y16723   0.591   4.332  12.858 -0.2934  0.6699  1.1428
  141DOPC   C3716724   0.419   4.240  12.740 -0.6691 -0.0563  0.0819
  141DOPC   H7X16725   0.449   4.142  12.781  1.0999  1.2509  2.1825
  141DOPC   H7Y16726   0.308   4.246  12.736 -0.6793  2.9769  1.7485
  141DOPC   C3816727   0.470   4.280  12.599  0.0371 -0.1721  0.0059
  141DOPC   H8X16728   0.579   4.261  12.586  0.3549  1.0874  0.5661
  141DOPC   H8Y16729   0.461   4.391  12.590  0.7335 -0.1754 -0.8958
  141DOPC   C3916730   0.399   4.220  12.483  0.3274  0.1126 -0.5174
  141DOPC   H9X16731   0.352   4.122  12.504 -2.0784  0.4154 -3.5931
  141DOPC  C31016732   0.388   4.256  12.353 -0.0539  0.2051  0.5449
  141DOPC  H10X16733   0.342   4.183  12.285  0.5098 -1.8512  2.2431
  141DOPC  C31116734   0.448   4.386  12.298  0.9480  0.3772 -0.1902
  141DOPC  H11X16735   0.554   4.368  12.270  1.1591  1.7878 -0.4119
  141DOPC  H11Y16736   0.443   4.465  12.376  0.4068  0.1428  0.0164
  141DOPC  C31216737   0.390   4.417  12.158 -0.5548 -0.0881 -0.2287
  141DOPC  H12X16738   0.431   4.351  12.079  0.7551  0.6795 -0.2199
  141DOPC  H12Y16739   0.416   4.524  12.139  2.4434 -0.5369  0.7907
  141DOPC  C31316740   0.236   4.414  12.138  0.5508 -0.1597 -0.4473
  141DOPC  H13X16741   0.196   4.313  12.163 -1.6938  0.8417  0.2499
  141DOPC  H13Y16742   0.208   4.490  12.214  0.1897  0.5418 -1.2588
  141DOPC  C31416743   0.190   4.453  11.994 -0.8820 -0.2463 -0.0892
  141DOPC  H14X16744   0.082   4.479  11.994 -0.4191  1.8874  0.6141
  141DOPC  H14Y16745   0.234   4.554  11.983 -0.5085 -0.5078 -1.2167
  141DOPC  C31516746   0.240   4.359  11.878 -0.2813 -0.3028 -0.5366
  141DOPC  H15X16747   0.220   4.254  11.909 -0.7173 -0.7305 -2.1882
  141DOPC  H15Y16748   0.350   4.374  11.868 -0.2713 -0.4598 -0.6624
  141DOPC  C31616749   0.156   4.378  11.752 -0.0611 -0.2161  0.6537
  141DOPC  H16X16750   0.050   4.366  11.783 -0.3156  2.0628  0.8599
  141DOPC  H16Y16751   0.177   4.482  11.718 -0.4947 -0.0778  0.7993
  141DOPC  C31716752   0.200   4.299  11.631  0.0404 -0.0129 -1.2271
  141DOPC  H17X16753   0.303   4.336  11.610 -0.0232  1.4231  0.7038
  141DOPC  H17Y16754   0.196   4.191  11.656 -0.9939  0.4494  0.8142
  141DOPC  C31816755   0.108   4.318  11.516 -0.0037 -0.2206 -0.3327
  141DOPC  H18X16756   0.142   4.255  11.430  0.0874 -1.5492  0.6367
  141DOPC  H18Y16757   0.004   4.287  11.542  0.3796 -1.9343 -0.6763
  141DOPC  H18Z16758   0.100   4.423  11.481 -2.0247  0.4530  1.8990
  142DOPC     N16759   1.353   5.069  14.104  0.1172 -0.7912  0.2252
  142DOPC   C1216760   1.326   5.101  13.956 -0.4521 -0.0851  0.4700
  142DOPC  H12A16761   1.322   5.209  13.954 -2.6027 -0.1397  0.0498
  142DOPC  H12B16762   1.231   5.063  13.923  0.9894 -2.9032 -0.8921
  142DOPC   C1316763   1.244   5.128  14.189 -0.2503  0.6540  0.9678
  142DOPC  H13A16764   1.242   5.236  14.180 -0.8603  0.5684 -0.0646
  142DOPC  H13B16765   1.147   5.096  14.154  0.6391 -0.2893 -0.8147
  142DOPC  H13C16766   1.258   5.093  14.290  1.0904 -0.7211  0.3438
  142DOPC   C1416767   1.484   5.142  14.136  0.2345  0.2380 -0.1968
  142DOPC  H14A16768   1.554   5.087  14.075  0.3836  2.1013 -1.8120
  142DOPC  H14B16769   1.492   5.244  14.102  2.9311 -0.0443 -0.5822
  142DOPC  H14C16770   1.503   5.139  14.242  2.6226 -0.0010 -0.5807
  142DOPC   C1516771   1.365   4.925  14.128  0.0401  0.9505 -0.3058
  142DOPC  H15A16772   1.275   4.871  14.101  0.2501  0.2103  0.4266
  142DOPC  H15B16773   1.374   4.906  14.234 -0.9012  0.3703 -0.3232
  142DOPC  H15C16774   1.454   4.886  14.080  0.0324  1.1562 -0.4882
  142DOPC   C1116775   1.438   5.064  13.857 -0.6132 -0.3301  0.1238
  142DOPC  H11A16776   1.484   4.964  13.874 -1.2896 -0.9958 -1.6642
  142DOPC  H11B16777   1.389   5.063  13.756  0.0443 -1.8480 -0.2150
  142DOPC     P16778   1.531   5.309  13.809  0.2712  0.1721  0.3118
  142DOPC   O1316779   1.664   5.366  13.812 -0.8936  0.6206 -0.7075
  142DOPC   O1416780   1.427   5.389  13.884  0.0623 -0.6898  0.4161
  142DOPC   O1216781   1.535   5.163  13.861 -0.5166 -0.5447  0.2294
  142DOPC   O1116782   1.484   5.289  13.660  0.3835  0.0945  0.0636
  142DOPC    C116783   1.546   5.197  13.574  0.5105 -0.6884  0.2758
  142DOPC    HA16784   1.594   5.116  13.633  1.0958 -0.7979 -0.3511
  142DOPC    HB16785   1.629   5.245  13.518  0.3103  0.0644  0.6041
  142DOPC    C216786   1.442   5.144  13.472  1.0298 -0.4281  0.0811
  142DOPC    HS16787   1.346   5.146  13.529  1.9746 -0.8049  1.7683
  142DOPC   O2116788   1.478   5.016  13.423  0.4817 -0.3400 -0.0675
  142DOPC   C2116789   1.422   4.911  13.485 -0.4528 -0.0619  0.2596
  142DOPC   O2216790   1.335   4.914  13.570 -0.7381 -0.7132 -0.5539
  142DOPC   C2216791   1.484   4.785  13.428  0.0760  0.6262 -0.1688
  142DOPC   H2R16792   1.482   4.710  13.510  1.1810  0.1656 -0.5404
  142DOPC   H2S16793   1.591   4.803  13.403 -0.1264  2.1827 -0.0226
  142DOPC    C316794   1.412   5.245  13.357 -0.4066 -0.3832 -0.5097
  142DOPC    HX16795   1.499   5.263  13.290  0.1792 -1.1792  0.0056
  142DOPC    HY16796   1.397   5.346  13.399 -0.8200  0.0564 -1.6993
  142DOPC   O3116797   1.305   5.212  13.270  0.8841  0.1307  0.0958
  142DOPC   C3116798   1.181   5.228  13.325 -0.2474  0.1309  0.1325
  142DOPC   O3216799   1.158   5.288  13.428  0.6627  0.0080  0.3540
  142DOPC   C3216800   1.080   5.152  13.243 -0.8016  0.8222 -0.1259
  142DOPC   H2X16801   1.073   5.060  13.305 -2.1870  1.5509  0.8579
  142DOPC   H2Y16802   0.989   5.216  13.238 -0.6638  1.0312  0.0119
  142DOPC   C2316803   1.399   4.719  13.314  0.4107  0.2936  0.3711
  142DOPC   H3R16804   1.295   4.711  13.355  0.7467  4.7837  2.7467
  142DOPC   H3S16805   1.444   4.620  13.297  1.9624  0.8752  0.9470
  142DOPC   C2416806   1.381   4.794  13.177 -0.0882  0.7430 -0.0422
  142DOPC   H4R16807   1.478   4.803  13.124 -1.0889  2.2875 -1.7051
  142DOPC   H4S16808   1.339   4.895  13.198  1.5631  1.1793  1.4703
  142DOPC   C2516809   1.284   4.710  13.091 -0.1389 -0.3056  0.3192
  142DOPC   H5R16810   1.182   4.727  13.132 -0.5016 -1.0404 -0.2516
  142DOPC   H5S16811   1.305   4.601  13.093 -0.3702 -0.3524  1.6131
  142DOPC   C2616812   1.288   4.766  12.948 -0.5055  0.3158  0.5608
  142DOPC   H6R16813   1.391   4.759  12.909 -0.6082  0.7431  0.2006
  142DOPC   H6S16814   1.267   4.875  12.962  0.0579  0.5799 -0.5329
  142DOPC   C2716815   1.177   4.695  12.858 -0.7454 -0.0554  0.0519
  142DOPC   H7R16816   1.081   4.703  12.913 -1.2395 -2.4558 -0.3523
  142DOPC   H7S16817   1.215   4.591  12.844  0.2004  0.3367 -0.3777
  142DOPC   C2816818   1.149   4.761  12.721  0.6344  0.5348 -0.1991
  142DOPC   H8R16819   1.097   4.858  12.736 -1.5801 -0.7969  1.5204
  142DOPC   H8S16820   1.065   4.702  12.677 -1.2341  1.8797  1.3911
  142DOPC   C2916821   1.277   4.776  12.639  0.1173  0.5310  0.4439
  142DOPC   H9R16822   1.369   4.787  12.698  1.0898 -1.3351 -0.6379
  142DOPC  C21016823   1.296   4.745  12.508 -0.4118 -0.7723 -0.8450
  142DOPC  H10R16824   1.393   4.753  12.456  0.5248  0.4817  1.0115
  142DOPC  C21116825   1.201   4.712  12.394 -0.2642 -0.1783 -0.6385
  142DOPC  H11R16826   1.211   4.788  12.314 -0.3166 -1.3784 -1.8183
  142DOPC  H11S16827   1.098   4.719  12.434  0.9122 -1.2050  2.9675
  142DOPC  C21216828   1.223   4.573  12.344 -0.4163  0.4304 -0.2355
  142DOPC  H12R16829   1.132   4.552  12.283  0.2652 -0.7618 -0.8740
  142DOPC  H12S16830   1.229   4.498  12.426  0.6223  1.1984  0.4024
  142DOPC  C21316831   1.342   4.566  12.257 -0.8433  0.4778 -0.2805
  142DOPC  H13R16832   1.435   4.606  12.304 -0.7303 -1.0157  0.8681
  142DOPC  H13S16833   1.326   4.635  12.172  0.7637  1.2852  0.0276
  142DOPC  C21416834   1.378   4.428  12.206 -0.3340  0.4651  0.6679
  142DOPC  H14R16835   1.281   4.378  12.183 -0.4697  0.5272  1.1066
  142DOPC  H14S16836   1.430   4.366  12.282  0.3884 -1.3204 -1.1886
  142DOPC  C21516837   1.471   4.423  12.086 -0.3250 -0.2785 -0.3449
  142DOPC  H15R16838   1.567   4.471  12.112  0.9081 -3.7119  2.1846
  142DOPC  H15S16839   1.427   4.478  12.000 -4.0066 -1.0868  0.8276
  142DOPC  C21616840   1.502   4.286  12.026  0.2774  0.4620  0.4587
  142DOPC  H16R16841   1.525   4.210  12.105  0.3366 -0.9182 -0.8461
  142DOPC  H16S16842   1.598   4.287  11.970  0.0265  1.2074  0.0329
  142DOPC  C21716843   1.392   4.230  11.931  0.3155 -0.2050 -0.3492
  142DOPC  H17R16844   1.375   4.303  11.848  1.5385  0.3077 -0.1817
  142DOPC  H17S16845   1.296   4.210  11.983  0.0932  0.9117 -0.3003
  142DOPC  C21816846   1.431   4.095  11.879  0.6506  0.0471  0.3114
  142DOPC  H18R16847   1.511   4.090  11.802 -0.7333 -1.6538 -1.1191
  142DOPC  H18S16848   1.339   4.053  11.834 -0.9510  3.6396 -0.1845
  142DOPC  H18T16849   1.460   4.033  11.966 -1.4265  1.2729  2.0056
  142DOPC   C3316850   1.112   5.122  13.099  0.5616  0.2251  0.2276
  142DOPC   H3X16851   1.023   5.077  13.050  0.4399  0.9942 -0.2773
  142DOPC   H3Y16852   1.199   5.055  13.082 -0.4350 -1.0473 -0.0871
  142DOPC   C3416853   1.140   5.247  13.013  0.1657 -0.2530 -1.0848
  142DOPC   H4X16854   1.190   5.323  13.077  0.0730 -0.5801 -0.6139
  142DOPC   H4Y16855   1.047   5.298  12.983  0.3727  1.3680  0.8053
  142DOPC   C3516856   1.214   5.224  12.881  0.2303 -0.5233 -0.1634
  142DOPC   H5X16857   1.309   5.170  12.899 -0.3876 -1.3830  0.6277
  142DOPC   H5Y16858   1.241   5.324  12.843  1.6602 -1.2760 -1.2379
  142DOPC   C3616859   1.124   5.149  12.782  0.0947  0.4611  0.1863
  142DOPC   H6X16860   1.105   5.049  12.826  0.1561  0.3959  0.0658
  142DOPC   H6Y16861   1.024   5.198  12.783  0.4879  1.3435 -1.0760
  142DOPC   C3716862   1.190   5.142  12.648 -0.9115 -0.7458 -0.0643
  142DOPC   H7X16863   1.254   5.228  12.619  0.7809 -1.8762  0.1098
  142DOPC   H7Y16864   1.267   5.062  12.649  0.4703  0.5382  0.6151
  142DOPC   C3816865   1.084   5.093  12.543 -0.3103 -0.4128 -0.0773
  142DOPC   H8X16866   1.009   5.173  12.521  0.0680 -0.4512 -1.6227
  142DOPC   H8Y16867   1.032   5.005  12.586 -1.0672  0.2618  0.4338
  142DOPC   C3916868   1.159   5.066  12.415 -0.2174  0.2252 -0.0267
  142DOPC   H9X16869   1.247   5.005  12.438 -0.7703 -1.0421 -1.1226
  142DOPC  C31016870   1.124   5.100  12.291  0.2083  0.7445  0.7909
  142DOPC  H10X16871   1.190   5.065  12.210 -0.3253 -2.7039  1.6817
  142DOPC  C31116872   0.999   5.166  12.245  0.4568 -0.6732  0.1873
  142DOPC  H11X16873   0.967   5.238  12.324  2.4598  1.5334 -0.8764
  142DOPC  H11Y16874   0.917   5.092  12.249  0.6957 -0.9184  3.6552
  142DOPC  C31216875   1.010   5.231  12.109  0.2699  0.1244 -0.6326
  142DOPC  H12X16876   1.094   5.303  12.098  1.4959 -1.2994 -0.7421
  142DOPC  H12Y16877   0.917   5.293  12.101 -1.6928 -2.7083 -1.2793
  142DOPC  C31316878   0.999   5.134  11.995  0.0649  0.2078 -0.2916
  142DOPC  H13X16879   1.094   5.078  11.987 -0.3817 -0.3479 -1.9212
  142DOPC  H13Y16880   0.915   5.064  12.017 -0.3076  0.5339 -0.6573
  142DOPC  C31416881   0.957   5.193  11.857 -0.5755 -0.5627  0.7659
  142DOPC  H14X16882   0.861   5.247  11.868  0.3184  1.4756 -0.8295
  142DOPC  H14Y16883   1.036   5.265  11.828 -1.7984  0.4011 -0.2784
  142DOPC  C31516884   0.923   5.078  11.756  0.1573 -0.0981  0.1394
  142DOPC  H15X16885   0.833   5.020  11.787  0.2968  0.2037  1.1217
  142DOPC  H15Y16886   1.007   5.006  11.762  1.0212  0.9127  0.3975
  142DOPC  C31616887   0.897   5.126  11.606 -0.6516  0.3583  0.7082
  142DOPC  H16X16888   0.820   5.207  11.602 -1.1507 -0.0734  1.3744
  142DOPC  H16Y16889   0.993   5.167  11.571 -0.7645 -0.6177 -0.8235
  142DOPC  C31716890   0.840   5.020  11.502  0.4557  0.1792  0.5666
  142DOPC  H17X16891   0.906   4.931  11.503 -0.2100 -0.4231 -2.1226
  142DOPC  H17Y16892   0.740   4.975  11.519 -0.6619  1.9728 -0.8850
  142DOPC  C31816893   0.833   5.078  11.355  0.1898 -0.7113 -0.7777
  142DOPC  H18X16894   0.755   5.156  11.342  0.0795 -0.6419  0.2130
  142DOPC  H18Y16895   0.928   5.130  11.331 -0.3837  1.0961  0.6566
  142DOPC  H18Z16896   0.811   4.997  11.282 -1.6780 -2.9251  2.0039
  143DOPC     N16897   5.597   6.303  14.720  0.1409 -0.2961  0.3647
  143DOPC   C1216898   5.652   6.420  14.634  0.4256  0.0839  0.0942
  143DOPC  H12A16899   5.734   6.383  14.575  0.3645  1.0035 -0.6001
  143DOPC  H12B16900   5.702   6.494  14.696  2.0296 -1.4455  0.6988
  143DOPC   C1316901   5.683   6.276  14.837  0.1037 -0.0811  0.2777
  143DOPC  H13A16902   5.720   6.368  14.879  0.4242  0.0277 -0.2390
  143DOPC  H13B16903   5.631   6.228  14.918  0.5430  0.5711  0.9564
  143DOPC  H13C16904   5.766   6.213  14.806  0.6028 -1.0275  3.2066
  143DOPC   C1416905   5.576   6.177  14.635 -0.2329 -0.2813  0.6743
  143DOPC  H14A16906   5.532   6.203  14.540 -0.7865 -0.5872  0.8399
  143DOPC  H14B16907   5.672   6.130  14.624 -0.7399 -1.4040  0.9080
  143DOPC  H14C16908   5.505   6.103  14.668 -2.0184  1.7275  1.6178
  143DOPC   C1516909   5.457   6.337  14.770 -0.3207 -0.1836 -0.1391
  143DOPC  H15A16910   5.385   6.349  14.691  0.4538  1.1063 -0.6930
  143DOPC  H15B16911   5.464   6.422  14.837  0.4366 -0.3030 -0.0546
  143DOPC  H15C16912   5.426   6.260  14.838 -0.2560  0.5733  0.7673
  143DOPC   C1116913   5.559   6.486  14.529  0.1699 -0.0149 -0.0447
  143DOPC  H11A16914   5.471   6.533  14.579  0.4455  0.5762 -0.1064
  143DOPC  H11B16915   5.623   6.568  14.489 -1.0116  1.9248  1.8563
  143DOPC     P16916   5.590   6.317  14.330 -0.0189  0.1401  0.4809
  143DOPC   O1316917   5.526   6.187  14.325  0.8155  0.0045  0.3203
  143DOPC   O1416918   5.735   6.321  14.371  0.3099 -0.0907  0.0232
  143DOPC   O1216919   5.507   6.401  14.429 -0.2145  0.4380 -0.6857
  143DOPC   O1116920   5.572   6.392  14.194 -0.4317  0.3005  0.2728
  143DOPC    C116921   5.436   6.401  14.143  0.1165  0.6321 -0.7373
  143DOPC    HA16922   5.375   6.468  14.207 -0.6456 -0.9482  0.2511
  143DOPC    HB16923   5.389   6.301  14.154  1.0506  0.0987 -1.4170
  143DOPC    C216924   5.431   6.435  13.988 -0.0286 -0.6732  0.6191
  143DOPC    HS16925   5.329   6.414  13.949 -0.5273  1.8118  0.4070
  143DOPC   O2116926   5.522   6.346  13.916  0.0611 -0.3358 -0.0251
  143DOPC   C2116927   5.484   6.225  13.909  0.0228  0.7371 -0.2188
  143DOPC   O2216928   5.373   6.180  13.943 -0.6173 -0.3058 -0.8297
  143DOPC   C2216929   5.593   6.133  13.854  0.0292  0.8119 -0.4261
  143DOPC   H2R16930   5.550   6.032  13.873 -1.7251  1.2981 -1.5528
  143DOPC   H2S16931   5.684   6.141  13.917  1.1205 -0.2617 -1.7957
  143DOPC    C316932   5.480   6.582  13.969  0.2979 -0.8352 -0.4100
  143DOPC    HX16933   5.584   6.582  14.008  0.2060  0.3353 -0.1314
  143DOPC    HY16934   5.409   6.645  14.026  0.9683 -0.9260  0.5510
  143DOPC   O3116935   5.484   6.616  13.834  0.4832  1.0603  0.1886
  143DOPC   C3116936   5.604   6.606  13.764  0.1965 -0.3702 -0.9672
  143DOPC   O3216937   5.712   6.589  13.815  0.6054 -0.5817 -0.4314
  143DOPC   C3216938   5.581   6.627  13.616  0.5207 -0.4247 -0.1281
  143DOPC   H2X16939   5.605   6.529  13.570 -1.0102 -0.5514 -0.7110
  143DOPC   H2Y16940   5.481   6.668  13.590  1.0185  0.6393 -0.4136
  143DOPC   C2316941   5.623   6.136  13.702 -0.1023  0.1355  0.1726
  143DOPC   H3R16942   5.695   6.219  13.683 -0.0917 -0.4091 -2.7045
  143DOPC   H3S16943   5.531   6.166  13.647 -1.8007 -2.6893  1.2995
  143DOPC   C2416944   5.674   6.000  13.650 -0.1299  0.6895  0.1496
  143DOPC   H4R16945   5.593   5.931  13.682  1.1416 -0.6798  0.5384
  143DOPC   H4S16946   5.765   5.972  13.709 -1.1960 -2.5099  0.4731
  143DOPC   C2516947   5.708   5.985  13.494  0.2198 -0.3075 -0.9552
  143DOPC   H5R16948   5.717   5.875  13.482  2.1101 -0.1500 -1.4242
  143DOPC   H5S16949   5.803   6.034  13.463 -0.8532  1.7253 -1.1892
  143DOPC   C2616950   5.605   6.050  13.400  0.3368  0.0101 -0.3456
  143DOPC   H6R16951   5.625   6.158  13.382 -2.9834  0.5007 -1.6338
  143DOPC   H6S16952   5.505   6.037  13.446  0.3903 -0.7410 -0.4185
  143DOPC   C2716953   5.576   5.982  13.267 -0.3277 -0.2262 -0.3304
  143DOPC   H7R16954   5.672   5.982  13.211  0.6341 -1.5555  1.2319
  143DOPC   H7S16955   5.512   6.050  13.207  1.3941  0.6195 -1.2833
  143DOPC   C2816956   5.537   5.835  13.287  0.1784  0.1218 -0.0596
  143DOPC   H8R16957   5.506   5.818  13.392  3.0865  0.7236  0.9848
  143DOPC   H8S16958   5.621   5.763  13.276 -0.6620 -0.7387 -1.1413
  143DOPC   C2916959   5.424   5.791  13.194  0.2317 -0.4582  0.2638
  143DOPC   H9R16960   5.324   5.813  13.233 -0.0226 -1.3660  0.1273
  143DOPC  C21016961   5.434   5.776  13.062  0.4502 -0.5102 -0.6454
  143DOPC  H10R16962   5.340   5.746  13.013 -1.5564  1.2314  1.8197
  143DOPC  C21116963   5.557   5.785  12.978  0.1669 -0.0146  0.0969
  143DOPC  H11R16964   5.570   5.694  12.916 -0.2745  0.0787 -0.1435
  143DOPC  H11S16965   5.646   5.798  13.043  0.2210  1.2838 -0.2160
  143DOPC  C21216966   5.551   5.901  12.883 -0.1383  0.0847  0.5500
  143DOPC  H12R16967   5.650   5.897  12.834 -1.3591 -0.6188 -1.9931
  143DOPC  H12S16968   5.541   5.995  12.943  1.1745  0.7626 -0.2352
  143DOPC  C21316969   5.457   5.876  12.765  0.6402  0.6327  0.0200
  143DOPC  H13R16970   5.353   5.889  12.801 -0.8746 -2.0962 -2.8490
  143DOPC  H13S16971   5.451   5.771  12.729 -2.0790  0.1285  1.6927
  143DOPC  C21416972   5.474   5.969  12.647 -0.2921  0.2639 -0.0262
  143DOPC  H14R16973   5.583   5.960  12.631 -0.3933 -0.8106 -0.2202
  143DOPC  H14S16974   5.442   6.071  12.675  0.7467  0.1928  1.5249
  143DOPC  C21516975   5.413   5.928  12.509 -0.6415 -0.6421 -0.4973
  143DOPC  H15R16976   5.314   5.978  12.504 -0.5317  0.0011  2.3357
  143DOPC  H15S16977   5.381   5.822  12.505 -0.3805 -0.6907 -1.8345
  143DOPC  C21616978   5.487   5.975  12.385 -0.2524 -0.6574  0.7888
  143DOPC  H16R16979   5.584   5.922  12.390 -0.4319 -1.0560  0.2147
  143DOPC  H16S16980   5.509   6.083  12.375 -0.9481 -0.5459  0.3717
  143DOPC  C21716981   5.419   5.925  12.256 -0.3477 -0.2076  0.7090
  143DOPC  H17R16982   5.372   5.826  12.278  0.2345 -1.0524 -1.4834
  143DOPC  H17S16983   5.502   5.912  12.182  0.2541 -0.4032  1.4108
  143DOPC  C21816984   5.315   6.022  12.195  0.0829 -0.2397  0.7323
  143DOPC  H18R16985   5.247   5.966  12.126  0.0197  4.2151 -3.3806
  143DOPC  H18S16986   5.359   6.104  12.134 -0.3989  0.8765  1.8564
  143DOPC  H18T16987   5.244   6.067  12.267  0.2758  1.5983 -0.1579
  143DOPC   C3316988   5.689   6.723  13.558 -0.9890  0.0036  0.3028
  143DOPC   H3X16989   5.789   6.699  13.599  0.7713  2.8560 -1.8543
  143DOPC   H3Y16990   5.665   6.829  13.583  0.8503  0.6037 -0.2462
  143DOPC   C3416991   5.696   6.695  13.405  0.1925  0.8416 -0.1978
  143DOPC   H4X16992   5.609   6.750  13.362  0.0530 -0.6223 -1.8974
  143DOPC   H4Y16993   5.667   6.590  13.385 -0.5209  0.4796  2.3099
  143DOPC   C3516994   5.812   6.744  13.323 -0.1781  0.0928 -0.1025
  143DOPC   H5X16995   5.905   6.684  13.314  1.4274  2.5674 -1.1146
  143DOPC   H5Y16996   5.840   6.831  13.385  0.8733 -1.4458  1.6707
  143DOPC   C3616997   5.777   6.798  13.185  0.8964 -0.6354 -0.4234
  143DOPC   H6X16998   5.671   6.830  13.179  0.2641 -1.0995  4.2036
  143DOPC   H6Y16999   5.844   6.882  13.157 -1.6181  0.4489 -3.7601
  143DOPC   C3717000   5.796   6.693  13.076 -0.0734 -0.5689  0.3232
  143DOPC   H7X17001   5.905   6.670  13.069 -0.5508 -3.6581  1.2640
  143DOPC   H7Y17002   5.767   6.594  13.118  3.8058 -1.2604  1.8226
  143DOPC   C3817003   5.721   6.729  12.955 -0.6542  0.1795  0.2019
  143DOPC   H8X17004   5.611   6.743  12.971 -0.5766  1.1876 -0.0763
  143DOPC   H8Y17005   5.728   6.644  12.884  2.9209  0.2976  0.2620
  143DOPC   C3917006   5.774   6.857  12.888  0.0432  0.1671 -0.8579
  143DOPC   H9X17007   5.759   6.950  12.944 -1.8169 -0.0008 -1.0220
  143DOPC  C31017008   5.852   6.854  12.779  0.3621  0.4559  0.1277
  143DOPC  H10X17009   5.859   6.951  12.728 -0.6405  0.5617  0.1616
  143DOPC  C31117010   5.876   6.732  12.699  0.2307 -0.2815 -0.7824
  143DOPC  H11X17011   5.877   6.644  12.768  0.0518 -0.4680 -1.0164
  143DOPC  H11Y17012   5.974   6.743  12.648 -0.0925  0.6150 -1.2115
  143DOPC  C31217013   5.768   6.702  12.592  0.7098 -0.4859  0.3806
  143DOPC  H12X17014   5.743   6.804  12.558  0.4216  0.2315  2.5717
  143DOPC  H12Y17015   5.672   6.660  12.630 -0.7449  0.1675 -2.2913
  143DOPC  C31317016   5.823   6.619  12.478  0.1988 -0.8135 -0.4446
  143DOPC  H13X17017   5.917   6.659  12.436 -0.5302  0.2548 -1.1096
  143DOPC  H13Y17018   5.838   6.512  12.505 -0.8333 -1.1520 -1.1422
  143DOPC  C31417019   5.732   6.628  12.355  0.1411 -0.3066 -0.1273
  143DOPC  H14X17020   5.767   6.551  12.283 -0.4043 -0.4693 -0.2209
  143DOPC  H14Y17021   5.629   6.604  12.388  0.7425 -0.1519  2.0195
  143DOPC  C31517022   5.744   6.765  12.271 -0.2402 -0.5867 -0.3782
  143DOPC  H15X17023   5.848   6.765  12.232  0.3780  2.3104  1.0139
  143DOPC  H15Y17024   5.728   6.852  12.338  0.6536 -0.9181  0.2830
  143DOPC  C31617025   5.649   6.769  12.147 -0.3469  0.6998  0.0026
  143DOPC  H16X17026   5.680   6.693  12.072 -0.3285  0.7200 -0.0093
  143DOPC  H16Y17027   5.540   6.754  12.162 -0.8281  0.1192 -3.4310
  143DOPC  C31717028   5.667   6.900  12.070  0.1672  0.5375 -0.8174
  143DOPC  H17X17029   5.636   6.985  12.134  0.2716 -0.5700  0.7467
  143DOPC  H17Y17030   5.773   6.916  12.038  0.3296 -0.0753 -0.5904
  143DOPC  C31817031   5.576   6.911  11.947 -0.0313  0.5332 -0.0352
  143DOPC  H18X17032   5.571   6.813  11.895  3.3307  0.0564  0.2815
  143DOPC  H18Y17033   5.482   6.937  11.999  1.3214  1.4846  2.0864
  143DOPC  H18Z17034   5.604   6.987  11.872 -1.4263 -0.0772 -1.2240
  144DOPC     N17035   6.723   2.971  14.240  0.1936  0.2128 -0.1297
  144DOPC   C1217036   6.637   3.012  14.123  0.5813  0.2159  0.1432
  144DOPC  H12A17037   6.619   2.921  14.067 -0.5143  0.4329  0.1304
  144DOPC  H12B17038   6.696   3.085  14.069 -0.5615  1.0440 -0.0339
  144DOPC   C1317039   6.635   2.891  14.333  0.2674  0.7478  0.0798
  144DOPC  H13A17040   6.692   2.866  14.422  1.1047 -2.8793 -1.2891
  144DOPC  H13B17041   6.547   2.946  14.361 -0.5306 -0.5320  0.1874
  144DOPC  H13C17042   6.599   2.804  14.279  0.7783  1.3949 -1.3551
  144DOPC   C1417043   6.778   3.091  14.314 -0.3709  0.1580  0.7174
  144DOPC  H14A17044   6.816   3.160  14.241  0.6886 -1.0221  0.1026
  144DOPC  H14B17045   6.698   3.138  14.369 -0.4995  0.0598  0.6141
  144DOPC  H14C17046   6.859   3.065  14.380 -0.1461  0.6713  0.6445
  144DOPC   C1517047   6.842   2.887  14.189  0.0371 -0.1583 -0.4748
  144DOPC  H15A17048   6.910   2.941  14.126  0.4586  0.4998  0.5121
  144DOPC  H15B17049   6.813   2.794  14.142 -0.0558  0.5684 -1.9078
  144DOPC  H15C17050   6.892   2.867  14.283  0.9092  1.1535 -0.6370
  144DOPC   C1117051   6.497   3.069  14.138  0.4973 -0.2795  0.2819
  144DOPC  H11A17052   6.501   3.164  14.196  1.2183  0.0220 -0.2545
  144DOPC  H11B17053   6.457   3.095  14.038  1.2805 -2.9161 -0.8011
  144DOPC     P17054   6.327   2.861  14.115 -0.2066  0.2908  0.2728
  144DOPC   O1317055   6.181   2.886  14.115  0.5041  0.2764  0.1435
  144DOPC   O1417056   6.376   2.728  14.160 -0.6127  0.1186  0.0807
  144DOPC   O1217057   6.395   2.980  14.199 -0.1281 -0.3269 -0.0817
  144DOPC   O1117058   6.373   2.891  13.965 -0.7769 -0.0659 -0.1396
  144DOPC    C117059   6.326   2.807  13.858  0.0111  0.5914  0.3506
  144DOPC    HA17060   6.217   2.827  13.848 -0.5105 -2.0599  0.0897
  144DOPC    HB17061   6.335   2.700  13.885 -1.5394  0.2306 -0.4204
  144DOPC    C217062   6.394   2.835  13.722  0.2300 -0.4285 -0.0614
  144DOPC    HS17063   6.505   2.829  13.733  0.0509 -1.7644  1.2287
  144DOPC   O2117064   6.340   2.958  13.664  0.3315 -0.5162 -0.0386
  144DOPC   C2117065   6.423   3.065  13.681 -0.9155 -0.3197 -0.1190
  144DOPC   O2217066   6.531   3.063  13.739  0.4948 -0.0268 -0.2323
  144DOPC   C2217067   6.373   3.173  13.592 -0.5282  0.3196  0.4189
  144DOPC   H2R17068   6.264   3.196  13.593 -0.4641  0.8646 -1.5336
  144DOPC   H2S17069   6.403   3.153  13.487 -1.2391  0.9695  0.0819
  144DOPC    C317070   6.356   2.716  13.630 -0.1802  0.1035 -0.3553
  144DOPC    HX17071   6.246   2.699  13.635 -0.2665  0.0383 -1.9467
  144DOPC    HY17072   6.400   2.635  13.692 -0.6599  0.3836  0.3710
  144DOPC   O3117073   6.406   2.731  13.490  0.3294  0.5853  0.1693
  144DOPC   C3117074   6.528   2.691  13.450  0.5606 -0.1708 -0.0240
  144DOPC   O3217075   6.596   2.606  13.506 -0.3263 -0.6098  0.5290
  144DOPC   C3217076   6.579   2.784  13.336 -0.8614 -0.6923  0.0801
  144DOPC   H2X17077   6.499   2.785  13.260  1.5691 -0.1416 -2.6429
  144DOPC   H2Y17078   6.594   2.884  13.382 -1.4329 -1.6335  2.4669
  144DOPC   C2317079   6.451   3.302  13.632  0.5605  0.2811 -0.1708
  144DOPC   H3R17080   6.558   3.302  13.662  0.6618  2.9157 -0.2427
  144DOPC   H3S17081   6.395   3.342  13.719  0.1555  0.7327 -0.6293
  144DOPC   C2417082   6.450   3.413  13.525  0.1093  0.4378  0.3332
  144DOPC   H4R17083   6.343   3.422  13.496  0.0875  0.8193  0.5291
  144DOPC   H4S17084   6.503   3.380  13.433 -2.6034 -0.6749 -0.9402
  144DOPC   C2517085   6.492   3.554  13.575  1.0323 -1.1729  0.1212
  144DOPC   H5R17086   6.578   3.551  13.645  0.3075  1.5201  1.2444
  144DOPC   H5S17087   6.399   3.604  13.611  0.4934  0.1393 -2.7957
  144DOPC   C2617088   6.541   3.638  13.459 -0.2708  0.2421 -0.0262
  144DOPC   H6R17089   6.621   3.588  13.400  0.0597 -0.1840  0.7627
  144DOPC   H6S17090   6.589   3.726  13.507 -1.1472 -0.5904  2.6018
  144DOPC   C2717091   6.435   3.694  13.363 -0.7420 -0.1531 -0.6959
  144DOPC   H7R17092   6.380   3.776  13.414  2.5771  0.8156  1.6307
  144DOPC   H7S17093   6.364   3.616  13.326 -0.7103 -0.3313 -0.3864
  144DOPC   C2817094   6.500   3.774  13.242 -0.6420  0.6427 -0.5366
  144DOPC   H8R17095   6.581   3.833  13.289 -2.5963  0.5212  3.4609
  144DOPC   H8S17096   6.426   3.843  13.196 -1.0983 -0.0166 -0.8089
  144DOPC   C2917097   6.568   3.696  13.128  0.5038  0.3873  0.8671
  144DOPC   H9R17098   6.672   3.667  13.146  0.9452 -0.7798 -2.7548
  144DOPC  C21017099   6.528   3.665  13.005 -0.7881 -0.1764 -0.8485
  144DOPC  H10R17100   6.600   3.615  12.939  0.5173 -0.5107  0.7913
  144DOPC  C21117101   6.393   3.696  12.935  0.0398  0.4804 -0.2421
  144DOPC  H11R17102   6.309   3.731  12.999 -0.3984 -2.3438  0.8533
  144DOPC  H11S17103   6.345   3.601  12.903 -1.4779  1.5686 -1.3176
  144DOPC  C21217104   6.406   3.781  12.808 -0.1243 -0.3968  0.1627
  144DOPC  H12R17105   6.483   3.861  12.822 -2.0328  1.4970  0.3721
  144DOPC  H12S17106   6.313   3.824  12.766  0.6205  0.1659 -0.9582
  144DOPC  C21317107   6.444   3.698  12.684  0.5283 -0.6204  0.1384
  144DOPC  H13R17108   6.358   3.629  12.669 -1.8386  2.3200 -0.8810
  144DOPC  H13S17109   6.543   3.652  12.703  0.1499 -0.9573  1.4139
  144DOPC  C21417110   6.433   3.778  12.546 -0.1088  0.1119 -0.0812
  144DOPC  H14R17111   6.512   3.855  12.538  0.6843 -0.7564 -0.8924
  144DOPC  H14S17112   6.337   3.833  12.547 -0.6302 -0.7855  0.1567
  144DOPC  C21517113   6.444   3.689  12.422  0.1835  0.0769  0.0118
  144DOPC  H15R17114   6.403   3.590  12.453  2.6766 -0.6716  1.2172
  144DOPC  H15S17115   6.553   3.676  12.407  0.5682  1.1350  1.6546
  144DOPC  C21617116   6.388   3.751  12.291  0.2851  0.3755  0.7175
  144DOPC  H16R17117   6.401   3.861  12.293  2.9257  0.2132 -1.3614
  144DOPC  H16S17118   6.286   3.715  12.268  1.4221 -1.7236 -1.5433
  144DOPC  C21717119   6.467   3.695  12.172 -0.3060  0.2429  0.1449
  144DOPC  H17R17120   6.417   3.722  12.076 -1.6767 -2.3848  0.0222
  144DOPC  H17S17121   6.475   3.585  12.187 -1.0034  0.0984 -0.5073
  144DOPC  C21817122   6.611   3.744  12.169  0.9424  0.3006 -0.5308
  144DOPC  H18R17123   6.645   3.779  12.069  0.4276  0.0658 -0.7887
  144DOPC  H18S17124   6.676   3.661  12.204 -1.2103 -0.9890  0.5730
  144DOPC  H18T17125   6.617   3.830  12.240 -0.6602  0.6639 -0.8062
  144DOPC   C3317126   6.711   2.749  13.260 -0.0365 -0.0566  0.7547
  144DOPC   H3X17127   6.718   2.639  13.249  1.6370  0.2191 -1.5983
  144DOPC   H3Y17128   6.791   2.763  13.336  0.4418 -1.3846  0.5120
  144DOPC   C3417129   6.745   2.813  13.125 -0.5759 -0.2784 -0.2595
  144DOPC   H4X17130   6.768   2.921  13.137 -0.6744  0.0155 -2.3630
  144DOPC   H4Y17131   6.653   2.810  13.063  0.2752  0.8928 -1.6325
  144DOPC   C3517132   6.865   2.743  13.062 -0.1995  0.3902 -0.3064
  144DOPC   H5X17133   6.838   2.637  13.045 -2.1646  0.9127 -0.6719
  144DOPC   H5Y17134   6.942   2.742  13.141 -0.6532 -1.8912  0.1889
  144DOPC   C3617135   6.904   2.792  12.925  0.1743  0.1390 -0.7421
  144DOPC   H6X17136   6.940   2.897  12.928 -1.9587  0.9085  0.6048
  144DOPC   H6Y17137   6.984   2.717  12.905  1.2315 -0.0715  3.3879
  144DOPC   C3717138   6.787   2.776  12.824  0.5580  0.4485 -0.0632
  144DOPC   H7X17139   6.733   2.679  12.833  0.3191  0.6303  0.5043
  144DOPC   H7Y17140   6.714   2.857  12.845 -0.0479 -0.3725  1.0864
  144DOPC   C3817141   6.830   2.791  12.674 -0.5235 -0.1771  0.1995
  144DOPC   H8X17142   6.765   2.736  12.602  0.8350 -0.7616 -0.6227
  144DOPC   H8Y17143   6.925   2.736  12.661 -0.6932 -0.4860  0.2487
  144DOPC   C3917144   6.871   2.934  12.635  0.6066 -0.7739 -0.5881
  144DOPC   H9X17145   6.822   3.013  12.693 -2.2912 -1.4753 -1.9196
  144DOPC  C31017146   6.944   2.965  12.528  0.5328  0.1009  0.0327
  144DOPC  H10X17147   6.977   3.070  12.518  0.3275  0.0581 -1.2867
  144DOPC  C31117148   6.991   2.870  12.421  0.1328 -0.0283 -0.7081
  144DOPC  H11X17149   6.945   2.769  12.425 -4.1246  1.6907  0.1103
  144DOPC  H11Y17150   7.098   2.845  12.434 -0.3625 -1.2785  1.5846
  144DOPC  C31217151   6.955   2.936  12.288 -0.3749 -0.5217  0.1247
  144DOPC  H12X17152   7.012   3.030  12.280 -1.0741 -0.1305 -0.3564
  144DOPC  H12Y17153   6.849   2.969  12.283 -0.3673 -0.6233 -0.9666
  144DOPC  C31317154   6.984   2.858  12.155  0.4057 -0.3505  0.1911
  144DOPC  H13X17155   7.080   2.802  12.148  1.5321  1.0573  2.9876
  144DOPC  H13Y17156   6.922   2.766  12.159  1.2347 -0.9327 -0.0793
  144DOPC  C31417157   6.953   2.926  12.018 -0.1224 -0.0162  0.1691
  144DOPC  H14X17158   6.920   2.847  11.948 -2.0629 -0.3557  1.3935
  144DOPC  H14Y17159   6.875   3.004  12.036  1.1369  1.5366 -0.7906
  144DOPC  C31517160   7.077   3.000  11.957 -0.7459  0.5557 -0.7874
  144DOPC  H15X17161   7.150   2.924  11.921  0.7460  1.3914  0.3734
  144DOPC  H15Y17162   7.116   3.063  12.039 -0.7718 -0.3166 -0.0895
  144DOPC  C31617163   7.050   3.097  11.839  0.5592 -0.0243 -0.3538
  144DOPC  H16X17164   6.974   3.050  11.772 -0.9560  0.2506  1.0916
  144DOPC  H16Y17165   7.005   3.191  11.877 -1.0247 -0.2164 -1.6079
  144DOPC  C31717166   7.153   3.120  11.730 -0.1984 -0.3289  0.4706
  144DOPC  H17X17167   7.173   3.028  11.672 -0.4269  1.9695 -3.6294
  144DOPC  H17Y17168   7.106   3.196  11.665  1.0926  2.7849  2.8955
  144DOPC  C31817169   7.292   3.170  11.775 -0.0579 -0.0576 -0.1610
  144DOPC  H18X17170   7.326   3.119  11.867 -0.9633 -0.4030 -0.0067
  144DOPC  H18Y17171   7.362   3.139  11.694 -1.1666 -0.2568 -1.0822
  144DOPC  H18Z17172   7.295   3.280  11.790 -1.7342 -0.4830  5.1958
  145DOPC     N17173   6.548   6.306  14.104 -0.5200  0.4508  0.3388
  145DOPC   C1217174   6.523   6.303  13.958  0.0910  0.5277  0.2224
  145DOPC  H12A17175   6.577   6.384  13.913  1.2367 -1.8690 -3.1528
  145DOPC  H12B17176   6.423   6.341  13.943 -0.0519  1.6073  3.2174
  145DOPC   C1317177   6.505   6.429  14.179 -0.1260 -0.0385  0.3336
  145DOPC  H13A17178   6.485   6.407  14.282  0.2737 -0.7416  0.2691
  145DOPC  H13B17179   6.586   6.501  14.172  1.1299 -1.4945 -1.2189
  145DOPC  H13C17180   6.418   6.469  14.130  0.1598 -1.8989 -1.9193
  145DOPC   C1417181   6.696   6.286  14.119 -0.1683  0.4104  0.3453
  145DOPC  H14A17182   6.730   6.298  14.221  0.3157 -0.5294  0.3093
  145DOPC  H14B17183   6.711   6.182  14.095  1.5354 -0.1742  3.4137
  145DOPC  H14C17184   6.752   6.349  14.053 -0.3733  0.3737  0.1338
  145DOPC   C1517185   6.464   6.203  14.169  0.5341  0.5199 -0.2753
  145DOPC  H15A17186   6.479   6.198  14.276  1.2654 -2.5023 -0.4313
  145DOPC  H15B17187   6.502   6.109  14.130  1.9026  0.1366  1.8494
  145DOPC  H15C17188   6.358   6.214  14.148  0.9529  0.7368 -2.4943
  145DOPC   C1117189   6.552   6.165  13.885  0.5887 -0.0767  0.2856
  145DOPC  H11A17190   6.502   6.082  13.939 -3.4657  1.1257 -1.2509
  145DOPC  H11B17191   6.503   6.177  13.786  2.3882 -2.1629 -0.9495
  145DOPC     P17192   6.770   6.237  13.761  0.4186  0.3714 -0.0955
  145DOPC   O1317193   6.910   6.249  13.801  0.1264  0.0660  0.8396
  145DOPC   O1417194   6.700   6.362  13.731 -0.0638 -0.8546 -0.0705
  145DOPC   O1217195   6.695   6.154  13.866 -0.3376  0.4179 -0.3607
  145DOPC   O1117196   6.772   6.156  13.623 -0.1751  0.4492 -0.6648
  145DOPC    C117197   6.851   6.037  13.593  0.1167 -0.8587  0.3887
  145DOPC    HA17198   6.808   5.944  13.637  1.1116 -1.0651  0.9354
  145DOPC    HB17199   6.952   6.043  13.638  0.4102 -0.3491 -0.3153
  145DOPC    C217200   6.847   6.017  13.441  0.2904 -0.7537  0.0184
  145DOPC    HS17201   6.891   5.918  13.417  0.5249 -0.6898  0.1828
  145DOPC   O2117202   6.908   6.123  13.360 -0.1831  0.5991 -0.1911
  145DOPC   C2117203   7.042   6.114  13.347  0.1088  0.4695  1.0591
  145DOPC   O2217204   7.120   6.048  13.414  0.1944 -0.2718 -0.0921
  145DOPC   C2217205   7.082   6.191  13.217  0.5120 -0.2154 -0.8398
  145DOPC   H2R17206   7.164   6.248  13.266 -0.6610 -0.5745  1.7098
  145DOPC   H2S17207   6.996   6.258  13.194 -0.8780 -1.9995 -1.0875
  145DOPC    C317208   6.691   5.999  13.405  0.1296  0.0552 -0.0239
  145DOPC    HX17209   6.637   6.090  13.436 -0.0340  1.0719 -2.9230
  145DOPC    HY17210   6.654   5.903  13.447  1.7577  0.7193  3.2041
  145DOPC   O3117211   6.671   5.987  13.262 -0.0757 -0.8532 -0.4100
  145DOPC   C3117212   6.700   5.875  13.197 -0.7659 -0.0960 -0.5927
  145DOPC   O3217213   6.720   5.767  13.253 -0.4305 -0.9685 -0.2597
  145DOPC   C3217214   6.713   5.906  13.053  0.5563  0.3370  0.6747
  145DOPC   H2X17215   6.630   5.976  13.031 -1.1503 -2.0119 -0.8362
  145DOPC   H2Y17216   6.803   5.961  13.017 -3.0033  5.6253 -1.4484
  145DOPC   C2317217   7.122   6.102  13.095 -0.7930 -0.2347  0.0295
  145DOPC   H3R17218   7.044   6.023  13.086 -0.4936 -0.7996  1.9505
  145DOPC   H3S17219   7.221   6.056  13.114 -0.2633  0.5675 -0.7475
  145DOPC   C2417220   7.134   6.181  12.964 -0.1056 -0.2935 -0.3795
  145DOPC   H4R17221   7.222   6.249  12.964 -0.3065 -0.0342 -0.6602
  145DOPC   H4S17222   7.045   6.247  12.960  1.2545  1.6555  0.0281
  145DOPC   C2517223   7.133   6.082  12.845  0.2346 -0.5823 -0.1725
  145DOPC   H5R17224   7.046   6.016  12.864  0.1770 -0.4602 -0.0115
  145DOPC   H5S17225   7.219   6.012  12.848 -0.2733 -1.2121 -0.0181
  145DOPC   C2617226   7.116   6.155  12.710  0.2749 -0.5361  0.3372
  145DOPC   H6R17227   7.203   6.224  12.698 -1.1593  1.2164 -0.3204
  145DOPC   H6S17228   7.030   6.225  12.715 -0.2162 -0.9783 -1.2203
  145DOPC   C2717229   7.101   6.067  12.592 -0.2217  0.3292 -0.3068
  145DOPC   H7R17230   7.009   6.012  12.621  0.3469 -1.1684 -1.2315
  145DOPC   H7S17231   7.192   6.003  12.584  0.4070  1.2985 -1.3201
  145DOPC   C2817232   7.084   6.141  12.455 -0.5894 -0.0436 -0.2340
  145DOPC   H8R17233   7.163   6.219  12.451 -0.2584 -0.1639  2.2926
  145DOPC   H8S17234   6.984   6.188  12.450 -0.7959 -0.6064 -1.8154
  145DOPC   C2917235   7.076   6.049  12.336 -0.6392 -0.1180 -0.0626
  145DOPC   H9R17236   7.003   5.967  12.345 -1.3746  0.5810  0.5340
  145DOPC  C21017237   7.152   6.056  12.226  0.2086  0.0432  0.6444
  145DOPC  H10R17238   7.153   5.977  12.149  0.3457 -0.3263  1.0203
  145DOPC  C21117239   7.269   6.155  12.197 -0.1971 -0.5725 -0.1837
  145DOPC  H11R17240   7.356   6.100  12.155 -0.3513 -0.8084 -0.1973
  145DOPC  H11S17241   7.296   6.210  12.290 -0.2769 -0.9824  0.0834
  145DOPC  C21217242   7.252   6.250  12.078  0.3284 -0.0763  1.4553
  145DOPC  H12R17243   7.343   6.312  12.064  0.6031 -0.8421 -0.4838
  145DOPC  H12S17244   7.164   6.318  12.089 -2.8188 -3.4584 -0.4818
  145DOPC  C21317245   7.212   6.177  11.942  0.4170 -0.6867 -0.0154
  145DOPC  H13R17246   7.104   6.159  11.921  1.0381 -0.6992 -3.8722
  145DOPC  H13S17247   7.263   6.080  11.925 -1.1408 -1.5457  0.0025
  145DOPC  C21417248   7.233   6.262  11.820  0.2099 -0.4662  0.2780
  145DOPC  H14R17249   7.341   6.286  11.815 -0.0223  1.1780  1.9556
  145DOPC  H14S17250   7.170   6.353  11.830  1.7101  0.4589  1.8744
  145DOPC  C21517251   7.187   6.180  11.697 -0.3604 -0.5242 -0.3062
  145DOPC  H15R17252   7.095   6.122  11.724  0.0541 -0.7079  0.7741
  145DOPC  H15S17253   7.257   6.095  11.686  0.7353  0.1194  1.3839
  145DOPC  C21617254   7.171   6.255  11.561  0.5787  0.4593  0.5218
  145DOPC  H16R17255   7.275   6.283  11.533  1.1470  0.4939  2.5621
  145DOPC  H16S17256   7.107   6.345  11.570  1.1775  0.8083  1.3916
  145DOPC  C21717257   7.111   6.166  11.456 -0.2729 -0.5438 -0.0932
  145DOPC  H17R17258   7.024   6.116  11.503  0.1787  0.4564  1.9101
  145DOPC  H17S17259   7.190   6.092  11.430  2.0364  1.9640 -0.6520
  145DOPC  C21817260   7.066   6.237  11.332 -0.4727  0.3459  0.6427
  145DOPC  H18R17261   6.991   6.308  11.374  0.3965  0.4520  2.0667
  145DOPC  H18S17262   7.014   6.170  11.260  1.2529  0.4922 -0.8206
  145DOPC  H18T17263   7.149   6.293  11.284 -1.5458  0.8827 -0.6676
  145DOPC   C3317264   6.704   5.779  12.957 -0.5320 -1.2129 -0.0882
  145DOPC   H3X17265   6.627   5.709  12.996  0.4910 -2.5736 -0.4377
  145DOPC   H3Y17266   6.805   5.732  12.954 -0.3094 -0.7184 -2.5668
  145DOPC   C3417267   6.675   5.831  12.813 -0.2709  0.3140 -0.5672
  145DOPC   H4X17268   6.756   5.908  12.807 -1.4643  1.7280  0.5872
  145DOPC   H4Y17269   6.577   5.878  12.793 -0.2244  1.4526  1.5243
  145DOPC   C3517270   6.698   5.736  12.695 -0.0397  0.6300  0.1243
  145DOPC   H5X17271   6.629   5.649  12.693 -0.4398  0.9392  0.3787
  145DOPC   H5Y17272   6.806   5.710  12.706  0.2436  1.9446  0.6853
  145DOPC   C3617273   6.704   5.813  12.565 -0.5408  0.5035  0.3862
  145DOPC   H6X17274   6.615   5.875  12.540  0.8352  2.6941  0.6458
  145DOPC   H6Y17275   6.780   5.893  12.581  0.6435 -0.6504  0.7583
  145DOPC   C3717276   6.740   5.720  12.444  0.3492 -0.0448  0.3543
  145DOPC   H7X17277   6.834   5.666  12.471  0.8647  0.8901  0.4600
  145DOPC   H7Y17278   6.664   5.639  12.448  0.8298 -0.4577  3.0089
  145DOPC   C3817279   6.745   5.794  12.311 -0.5074 -0.1876  0.5113
  145DOPC   H8X17280   6.819   5.877  12.322 -1.8401  1.3859 -1.6608
  145DOPC   H8Y17281   6.647   5.842  12.292 -0.5085  0.2366  1.5287
  145DOPC   C3917282   6.779   5.702  12.196  0.0011  0.4560 -0.9024
  145DOPC   H9X17283   6.830   5.607  12.215  0.4490  0.7499 -0.6041
  145DOPC  C31017284   6.763   5.723  12.068 -0.1460 -0.5988  0.2172
  145DOPC  H10X17285   6.782   5.639  12.000  0.9403  0.6819 -1.1344
  145DOPC  C31117286   6.711   5.855  11.999 -0.1132 -0.7014 -0.2716
  145DOPC  H11X17287   6.697   5.942  12.068 -2.6340  0.7362 -2.4112
  145DOPC  H11Y17288   6.608   5.843  11.958  0.2203  0.6026 -1.5769
  145DOPC  C31217289   6.802   5.886  11.878  0.3911  0.4501 -0.1757
  145DOPC  H12X17290   6.908   5.859  11.897  0.9305  2.5328  0.0167
  145DOPC  H12Y17291   6.810   5.995  11.860 -0.9967  0.4174 -1.1307
  145DOPC  C31317292   6.762   5.815  11.747 -0.1487  0.2212  0.2321
  145DOPC  H13X17293   6.756   5.706  11.771 -0.4624 -0.0655 -1.0715
  145DOPC  H13Y17294   6.661   5.855  11.726 -0.9997  0.8893  4.6269
  145DOPC  C31417295   6.859   5.838  11.629 -0.0970  0.4584  0.0508
  145DOPC  H14X17296   6.866   5.949  11.618 -2.0034  0.6959  0.9265
  145DOPC  H14Y17297   6.959   5.802  11.659 -0.3153  0.4905  0.8410
  145DOPC  C31517298   6.814   5.765  11.506  1.0558  0.3642 -0.0284
  145DOPC  H15X17299   6.704   5.775  11.489  1.1707  0.7760 -0.5446
  145DOPC  H15Y17300   6.835   5.658  11.527  0.1736 -0.1093 -1.4576
  145DOPC  C31617301   6.894   5.804  11.379  0.5276  0.3071 -0.3200
  145DOPC  H16X17302   6.909   5.913  11.362  1.8435  0.2956  0.6831
  145DOPC  H16Y17303   7.000   5.783  11.405  0.3566  0.5969  0.6429
  145DOPC  C31717304   6.849   5.744  11.244  0.1134  0.0289  0.5003
  145DOPC  H17X17305   6.813   5.640  11.261 -0.6720  0.0094 -1.0903
  145DOPC  H17Y17306   6.764   5.801  11.202 -1.4742 -2.1906  0.5189
  145DOPC  C31817307   6.955   5.747  11.138  0.2780 -0.2154  0.8446
  145DOPC  H18X17308   6.907   5.711  11.044  2.4245  1.1836 -0.8784
  145DOPC  H18Y17309   6.982   5.852  11.116 -1.0689 -0.2762 -1.3846
  145DOPC  H18Z17310   7.048   5.689  11.156  0.4596 -0.6967 -1.3337
  146DOPC     N17311   6.296   3.840  14.036  0.1086 -0.2959  0.2648
  146DOPC   C1217312   6.314   3.701  13.982 -0.0836  0.0287 -0.3301
  146DOPC  H12A17313   6.233   3.679  13.914 -0.3473 -0.4997  0.1472
  146DOPC  H12B17314   6.302   3.634  14.065  3.6131  1.2836  1.4485
  146DOPC   C1317315   6.154   3.849  14.100 -0.3491 -0.4516 -0.6872
  146DOPC  H13A17316   6.135   3.948  14.139  2.3804 -0.4703  0.9280
  146DOPC  H13B17317   6.077   3.830  14.027  0.3840  2.4067 -2.3397
  146DOPC  H13C17318   6.140   3.795  14.193  1.5730 -0.1353 -0.1804
  146DOPC   C1417319   6.301   3.941  13.925 -0.3613  0.4461  0.1837
  146DOPC  H14A17320   6.238   3.908  13.844 -0.7872  2.1555 -0.2313
  146DOPC  H14B17321   6.262   4.040  13.947  0.7104  0.8642  0.2545
  146DOPC  H14C17322   6.396   3.938  13.874  0.1104 -1.1818  1.0967
  146DOPC   C1517323   6.401   3.877  14.130 -0.4196  0.1256  0.2826
  146DOPC  H15A17324   6.379   3.824  14.221 -1.9908  1.8632  0.9709
  146DOPC  H15B17325   6.397   3.982  14.156  2.3579 -0.3134  3.1015
  146DOPC  H15C17326   6.498   3.856  14.087 -0.2923 -0.9226  1.0529
  146DOPC   C1117327   6.450   3.661  13.922 -0.3529 -0.0623  0.6005
  146DOPC  H11A17328   6.447   3.563  13.869 -0.1497  0.7442 -0.9388
  146DOPC  H11B17329   6.467   3.730  13.837 -0.6174  0.2411  0.7948
  146DOPC     P17330   6.566   3.554  14.123  0.1671  0.4205  0.2876
  146DOPC   O1317331   6.429   3.504  14.146  0.2967 -0.4275 -0.4050
  146DOPC   O1417332   6.625   3.610  14.249 -0.0791 -0.1062  0.5460
  146DOPC   O1217333   6.561   3.665  14.015 -0.0524  0.0938  0.5009
  146DOPC   O1117334   6.659   3.444  14.048 -0.0800  0.3410 -0.2259
  146DOPC    C117335   6.802   3.467  14.048  0.1723  0.3680 -0.1273
  146DOPC    HA17336   6.850   3.424  14.138 -0.3888  0.4313  0.2075
  146DOPC    HB17337   6.820   3.576  14.035 -2.5018  0.9271  0.1787
  146DOPC    C217338   6.860   3.400  13.925 -0.3847  0.1525  0.0990
  146DOPC    HS17339   6.968   3.375  13.936 -0.2259  1.8029  3.2886
  146DOPC   O2117340   6.825   3.473  13.804 -0.5169 -0.3504  0.4433
  146DOPC   C2117341   6.908   3.572  13.783 -0.5973 -0.0352 -0.9145
  146DOPC   O2217342   6.992   3.620  13.862 -0.1292  0.3394  0.5876
  146DOPC   C2217343   6.871   3.641  13.658  0.1052  0.1085  0.4780
  146DOPC   H2R17344   6.775   3.698  13.656  0.6873  1.0935 -0.8294
  146DOPC   H2S17345   6.868   3.566  13.577  0.0544  0.1328  0.4576
  146DOPC    C317346   6.805   3.252  13.912 -0.4761  0.7603  0.6337
  146DOPC    HX17347   6.696   3.262  13.894 -0.5424 -1.6539 -0.7658
  146DOPC    HY17348   6.833   3.194  14.003 -0.7406  0.0168  0.2457
  146DOPC   O3117349   6.862   3.188  13.790 -0.2517 -0.2305 -0.0365
  146DOPC   C3117350   6.834   3.053  13.800 -0.3763  0.1860  0.3175
  146DOPC   O3217351   6.785   2.999  13.896 -0.6049  0.1639 -0.6438
  146DOPC   C3217352   6.888   2.983  13.676 -0.2164 -0.3073 -0.1019
  146DOPC   H2X17353   6.984   3.034  13.652 -0.7493  1.4096  1.2233
  146DOPC   H2Y17354   6.906   2.877  13.705 -2.1361 -0.5908  0.2214
  146DOPC   C2317355   6.969   3.753  13.627  0.1971  0.1909 -0.1913
  146DOPC   H3R17356   7.070   3.705  13.620  0.1838  0.0776  0.3096
  146DOPC   H3S17357   6.961   3.831  13.705 -1.8748  0.7627 -0.9166
  146DOPC   C2417358   6.944   3.823  13.492  0.7525 -0.4352  0.5482
  146DOPC   H4R17359   6.853   3.886  13.499 -0.1374 -1.2962 -2.1608
  146DOPC   H4S17360   6.928   3.753  13.407  2.9423  0.2796 -0.5386
  146DOPC   C2517361   7.072   3.891  13.444 -0.3059 -0.2015  0.2785
  146DOPC   H5R17362   7.050   3.947  13.350 -1.5677  0.0095  0.6881
  146DOPC   H5S17363   7.152   3.819  13.416  2.0300  2.8932 -1.6407
  146DOPC   C2617364   7.132   3.990  13.541 -0.1296 -0.5988  0.5446
  146DOPC   H6R17365   7.202   3.939  13.610  3.3681  2.0965 -0.6685
  146DOPC   H6S17366   7.054   4.032  13.608 -0.6298 -0.0146 -0.3877
  146DOPC   C2717367   7.199   4.115  13.472  0.2351 -1.0871  0.3618
  146DOPC   H7R17368   7.213   4.190  13.554  1.8592 -1.4826  0.4687
  146DOPC   H7S17369   7.136   4.170  13.399  1.1537  0.4184  0.6588
  146DOPC   C2817370   7.329   4.092  13.392 -0.1826  0.1482 -0.6439
  146DOPC   H8R17371   7.338   4.166  13.309 -0.1735 -1.4508 -2.1247
  146DOPC   H8S17372   7.318   3.993  13.343  3.2621 -1.4250  1.4350
  146DOPC   C2917373   7.449   4.096  13.482  0.1140 -0.0408  0.3552
  146DOPC   H9R17374   7.448   4.017  13.559  1.4765 -0.5793 -0.1372
  146DOPC  C21017375   7.551   4.185  13.477  0.3918  0.1826 -0.3029
  146DOPC  H10R17376   7.628   4.181  13.555  1.2830 -0.4691 -1.2048
  146DOPC  C21117377   7.560   4.303  13.372 -0.1487  0.7294 -0.5700
  146DOPC  H11R17378   7.590   4.397  13.424  0.9255  0.4204 -0.6229
  146DOPC  H11S17379   7.466   4.323  13.316 -0.3571 -1.4332 -1.0817
  146DOPC  C21217380   7.668   4.270  13.267 -0.9647  0.1399 -0.5865
  146DOPC  H12R17381   7.677   4.161  13.250  2.2107 -0.0192  1.2819
  146DOPC  H12S17382   7.766   4.294  13.314 -1.4052 -2.7763  2.1480
  146DOPC  C21317383   7.642   4.344  13.133  1.1586  0.1778 -0.4222
  146DOPC  H13R17384   7.658   4.452  13.154  3.3028  0.3021 -2.3561
  146DOPC  H13S17385   7.534   4.327  13.113  1.0411 -1.1162  1.0247
  146DOPC  C21417386   7.715   4.299  13.007  0.5234  0.4653 -0.4745
  146DOPC  H14R17387   7.689   4.191  12.997  0.3478  0.4327  0.2794
  146DOPC  H14S17388   7.826   4.301  13.007  0.5349  1.3641  1.4814
  146DOPC  C21517389   7.670   4.385  12.883  0.0164 -0.2540  0.5984
  146DOPC  H15R17390   7.666   4.494  12.906  0.3720 -0.2381  0.5935
  146DOPC  H15S17391   7.569   4.351  12.854  0.2503 -0.7784  0.3831
  146DOPC  C21617392   7.769   4.360  12.761  0.1364 -0.2497  0.4139
  146DOPC  H16R17393   7.779   4.251  12.744  2.9257  0.3532 -2.7921
  146DOPC  H16S17394   7.862   4.418  12.774  1.1145 -1.0540 -2.4177
  146DOPC  C21717395   7.728   4.401  12.616  0.3399  0.0674 -0.4750
  146DOPC  H17R17396   7.812   4.364  12.554 -0.3912 -4.1255  0.7467
  146DOPC  H17S17397   7.723   4.512  12.613  0.3175  0.1241  0.8753
  146DOPC  C21817398   7.589   4.347  12.568 -0.0286 -0.5390 -0.0901
  146DOPC  H18R17399   7.511   4.384  12.638  0.7274  0.5396  0.2244
  146DOPC  H18S17400   7.582   4.237  12.555 -0.6739 -0.3496 -1.5290
  146DOPC  H18T17401   7.564   4.389  12.468 -0.0664 -1.0304 -0.2887
  146DOPC   C3317402   6.785   2.988  13.555 -0.3880  0.4872  0.1004
  146DOPC   H3X17403   6.690   2.941  13.588  1.1171 -1.4595  1.9101
  146DOPC   H3Y17404   6.819   2.915  13.479 -0.6091  0.4716  0.0159
  146DOPC   C3417405   6.768   3.133  13.497  0.6608  0.6276 -0.9082
  146DOPC   H4X17406   6.864   3.187  13.480  1.7743 -0.9780  0.0331
  146DOPC   H4Y17407   6.722   3.197  13.576  1.2473 -0.2971  0.1982
  146DOPC   C3517408   6.696   3.127  13.357 -0.0939  0.6276  0.4726
  146DOPC   H5X17409   6.587   3.106  13.363 -0.3086  0.6530 -2.3859
  146DOPC   H5Y17410   6.738   3.039  13.305  2.9669  1.7750  0.8219
  146DOPC   C3617411   6.707   3.261  13.287  0.0834 -0.4755  0.5070
  146DOPC   H6X17412   6.698   3.335  13.369  1.0144  0.3207 -0.0919
  146DOPC   H6Y17413   6.808   3.282  13.246 -0.0649  0.8001  0.7498
  146DOPC   C3717414   6.603   3.297  13.174  0.1751  0.8467  0.0780
  146DOPC   H7X17415   6.508   3.333  13.220 -0.9545 -1.6451 -0.1612
  146DOPC   H7Y17416   6.644   3.386  13.121  0.8769  0.0876 -0.6726
  146DOPC   C3817417   6.584   3.191  13.060 -0.1771  0.4093 -0.6773
  146DOPC   H8X17418   6.502   3.217  12.989  0.7786  2.4730 -1.1291
  146DOPC   H8Y17419   6.562   3.096  13.112 -0.3072  1.6592  1.7062
  146DOPC   C3917420   6.702   3.171  12.963  0.2847 -0.5236  0.4479
  146DOPC   H9X17421   6.791   3.132  13.015  2.6963  0.4661 -2.6322
  146DOPC  C31017422   6.708   3.217  12.835 -0.3080 -0.2714  0.2916
  146DOPC  H10X17423   6.791   3.174  12.777 -2.0952 -0.7860 -2.0290
  146DOPC  C31117424   6.603   3.294  12.762 -0.1537 -0.2283  0.5949
  146DOPC  H11X17425   6.534   3.356  12.823 -0.4367  1.2406 -1.1159
  146DOPC  H11Y17426   6.539   3.217  12.714  0.7142 -0.8687  0.4383
  146DOPC  C31217427   6.652   3.386  12.649  0.4058  0.0379 -0.0261
  146DOPC  H12X17428   6.732   3.446  12.698  1.4436  0.2894 -1.9334
  146DOPC  H12Y17429   6.569   3.457  12.628  0.4525  0.8952  2.3660
  146DOPC  C31317430   6.680   3.309  12.520  0.0036 -0.5349  0.1828
  146DOPC  H13X17431   6.750   3.225  12.544  0.5010  0.1211  1.0637
  146DOPC  H13Y17432   6.587   3.261  12.482  0.9416 -0.7065 -2.1227
  146DOPC  C31417433   6.757   3.387  12.412  0.6806 -0.1492  0.4189
  146DOPC  H14X17434   6.684   3.470  12.399  1.0130  0.2925  1.2545
  146DOPC  H14Y17435   6.840   3.453  12.446 -0.8796  0.9953  2.2216
  146DOPC  C31517436   6.770   3.306  12.282  0.3160  0.4484 -0.2800
  146DOPC  H15X17437   6.683   3.242  12.256  0.7560 -0.5887  0.6685
  146DOPC  H15Y17438   6.859   3.239  12.281 -0.3207 -0.4087 -1.1515
  146DOPC  C31617439   6.764   3.408  12.166  0.3745 -0.5355  0.5077
  146DOPC  H16X17440   6.674   3.472  12.178  1.7177  1.3623  0.9074
  146DOPC  H16Y17441   6.847   3.479  12.181  1.0558 -0.5783 -2.4811
  146DOPC  C31717442   6.766   3.339  12.029  0.0170  0.2555  0.1601
  146DOPC  H17X17443   6.869   3.301  12.018  0.8621  2.2864  0.6779
  146DOPC  H17Y17444   6.707   3.249  12.002  2.1412 -0.8027 -1.1798
  146DOPC  C31817445   6.747   3.437  11.909  0.0643 -0.3099 -0.4575
  146DOPC  H18X17446   6.814   3.526  11.911 -2.2160  1.5129 -0.0408
  146DOPC  H18Y17447   6.747   3.381  11.813  1.8300 -0.4882 -0.3937
  146DOPC  H18Z17448   6.651   3.491  11.924  1.0806  1.1879  1.0616
  147DOPC     N17449   5.164   4.481  14.500 -0.1980  0.5048  0.2243
  147DOPC   C1217450   5.236   4.440  14.371  0.1019 -0.1139 -0.1266
  147DOPC  H12A17451   5.273   4.339  14.359  1.9560  0.3898  0.9000
  147DOPC  H12B17452   5.335   4.483  14.364  1.5930 -3.3782 -0.9536
  147DOPC   C1317453   5.266   4.464  14.605 -0.4762  0.0107 -0.6868
  147DOPC  H13A17454   5.229   4.481  14.705  3.3306  1.4131  0.6958
  147DOPC  H13B17455   5.310   4.366  14.594 -1.7397 -0.3693 -2.9251
  147DOPC  H13C17456   5.352   4.525  14.581 -0.0815 -0.9352 -1.8006
  147DOPC   C1417457   5.050   4.394  14.529  0.6546 -0.1886 -0.6885
  147DOPC  H14A17458   4.976   4.426  14.457  1.2427 -2.0741 -2.2388
  147DOPC  H14B17459   5.067   4.289  14.512 -1.0134 -0.9060  1.5911
  147DOPC  H14C17460   5.008   4.414  14.626  0.2124  1.5230 -1.2000
  147DOPC   C1517461   5.116   4.622  14.500  0.0076 -0.3647  0.1285
  147DOPC  H15A17462   5.058   4.646  14.588 -0.1814  0.5848 -0.2364
  147DOPC  H15B17463   5.056   4.645  14.413 -0.1026 -0.0189  0.2905
  147DOPC  H15C17464   5.201   4.689  14.500  0.6074 -1.1115  0.9614
  147DOPC   C1117465   5.174   4.488  14.238  0.1782  0.3674 -0.4016
  147DOPC  H11A17466   5.229   4.428  14.163 -0.0157 -0.6088  0.2190
  147DOPC  H11B17467   5.068   4.455  14.225  0.6279 -0.5356 -1.9854
  147DOPC     P17468   5.103   4.709  14.132  0.0841 -0.0751  0.0449
  147DOPC   O1317469   5.155   4.851  14.141 -0.3672 -0.1294  0.4751
  147DOPC   O1417470   4.963   4.691  14.182 -0.1277 -0.0262  0.6800
  147DOPC   O1217471   5.195   4.626  14.222  0.2284  0.1658  0.2251
  147DOPC   O1117472   5.122   4.634  13.991 -0.6049  0.3097 -0.4661
  147DOPC    C117473   5.256   4.624  13.932 -0.0024  0.4529 -0.4636
  147DOPC    HA17474   5.283   4.520  13.902  0.8963  0.9240 -1.3359
  147DOPC    HB17475   5.337   4.660  13.999  0.2309 -2.0380  0.7239
  147DOPC    C217476   5.272   4.710  13.804  0.2771  0.1248  0.3512
  147DOPC    HS17477   5.204   4.794  13.832  1.9957  1.4145  0.7833
  147DOPC   O2117478   5.217   4.637  13.687 -0.0555  0.0738 -0.4850
  147DOPC   C2117479   5.137   4.709  13.603  0.3056  0.0398  0.5404
  147DOPC   O2217480   5.114   4.827  13.614  0.5844  0.1503  0.6797
  147DOPC   C2217481   5.093   4.615  13.489  0.2764 -0.4239 -0.9770
  147DOPC   H2R17482   4.995   4.577  13.523  0.3722 -0.5374 -0.8236
  147DOPC   H2S17483   5.164   4.529  13.486  2.9219  1.5214  1.1245
  147DOPC    C317484   5.413   4.757  13.778 -0.5507  0.4113  0.1921
  147DOPC    HX17485   5.473   4.666  13.756 -0.9072  0.0149  0.8439
  147DOPC    HY17486   5.459   4.807  13.866  0.1722 -0.8310  0.5354
  147DOPC   O3117487   5.420   4.840  13.658  0.3304  0.1107 -0.3478
  147DOPC   C3117488   5.382   4.964  13.682  0.2927  0.0699  0.6738
  147DOPC   O3217489   5.339   5.009  13.779 -0.1085 -0.6631  0.0056
  147DOPC   C3217490   5.414   5.046  13.547 -0.5117  0.2581 -0.1608
  147DOPC   H2X17491   5.320   5.100  13.525  0.0617  2.9543  3.1325
  147DOPC   H2Y17492   5.474   5.127  13.594  2.7328 -0.9761 -1.8424
  147DOPC   C2317493   5.100   4.697  13.356 -0.4438  0.2704 -0.7084
  147DOPC   H3R17494   5.200   4.741  13.332 -0.5315 -0.1946 -2.0155
  147DOPC   H3S17495   5.027   4.781  13.353 -0.5017  0.2773  0.4609
  147DOPC   C2417496   5.068   4.602  13.239  0.0934  0.2773  0.6754
  147DOPC   H4R17497   4.963   4.572  13.259 -0.1315  1.0969  0.7604
  147DOPC   H4S17498   5.135   4.514  13.245 -1.5926 -1.2151 -0.9032
  147DOPC   C2517499   5.074   4.664  13.100  0.1383  0.1333  0.7907
  147DOPC   H5R17500   5.175   4.707  13.087 -0.1211  0.2951 -1.0467
  147DOPC   H5S17501   4.999   4.746  13.103 -0.8868 -0.7500  0.3596
  147DOPC   C2617502   5.046   4.560  12.997 -0.2862 -0.6265 -0.0717
  147DOPC   H6R17503   4.958   4.499  13.027  0.2983 -2.5648 -2.0377
  147DOPC   H6S17504   5.133   4.492  12.989  0.8205  0.9188 -1.9729
  147DOPC   C2717505   5.009   4.611  12.850  0.7724  0.3969 -0.3795
  147DOPC   H7R17506   5.088   4.688  12.834  1.8570 -0.3054  1.2869
  147DOPC   H7S17507   4.906   4.653  12.851  0.2149 -0.8526 -2.0291
  147DOPC   C2817508   4.999   4.486  12.761 -0.2743 -0.2339  0.2813
  147DOPC   H8R17509   4.927   4.416  12.808  0.7920 -0.4294  1.7225
  147DOPC   H8S17510   5.100   4.438  12.758 -0.5351 -0.7320 -0.5968
  147DOPC   C2917511   4.953   4.519  12.621 -0.2911  0.2933  0.6627
  147DOPC   H9R17512   4.845   4.504  12.607 -0.2441  1.7703 -1.7602
  147DOPC  C21017513   5.034   4.562  12.516  0.3200  0.8191  0.6745
  147DOPC  H10R17514   4.997   4.581  12.415 -0.6966  1.1475  1.0939
  147DOPC  C21117515   5.180   4.579  12.523 -0.2455  1.1690  0.2353
  147DOPC  H11R17516   5.219   4.547  12.622 -0.0348  0.3645 -0.0958
  147DOPC  H11S17517   5.214   4.681  12.495 -0.3487  0.7305 -1.6350
  147DOPC  C21217518   5.250   4.477  12.425 -0.4871  0.2861  0.6582
  147DOPC  H12R17519   5.226   4.371  12.448 -0.1695 -0.0225 -0.3556
  147DOPC  H12S17520   5.361   4.480  12.430 -0.4840  1.2121  0.2317
  147DOPC  C21317521   5.213   4.500  12.275  0.1093 -0.6511  0.2905
  147DOPC  H13R17522   5.216   4.610  12.267  0.2673 -0.7791 -1.9581
  147DOPC  H13S17523   5.109   4.468  12.249  0.3678 -0.0445 -1.6232
  147DOPC  C21417524   5.312   4.437  12.180 -0.2431  0.2410 -0.0910
  147DOPC  H14R17525   5.412   4.486  12.178 -0.4749  0.6975 -0.4653
  147DOPC  H14S17526   5.262   4.446  12.081  0.5629  0.7507 -0.4554
  147DOPC  C21517527   5.330   4.282  12.192  0.0402 -0.7359 -0.4919
  147DOPC  H15R17528   5.241   4.227  12.155  0.2032 -1.5356  0.2636
  147DOPC  H15S17529   5.353   4.263  12.299 -2.9072 -0.2160  0.3052
  147DOPC  C21617530   5.445   4.222  12.104 -0.7515 -0.5894  0.1338
  147DOPC  H16R17531   5.416   4.264  12.005 -2.4209 -0.5467  0.6127
  147DOPC  H16S17532   5.430   4.112  12.102  0.6722 -0.7918 -1.7796
  147DOPC  C21717533   5.585   4.250  12.155 -0.0275 -0.1879 -0.1939
  147DOPC  H17R17534   5.576   4.222  12.262 -1.3499 -0.2700 -0.3027
  147DOPC  H17S17535   5.606   4.359  12.153  2.9228 -0.6688  0.4164
  147DOPC  C21817536   5.698   4.178  12.085 -0.4441  0.3409  0.1994
  147DOPC  H18R17537   5.679   4.080  12.037  3.1892  0.0024 -0.8725
  147DOPC  H18S17538   5.787   4.184  12.152  1.1520  3.3215 -1.9674
  147DOPC  H18T17539   5.731   4.229  11.992 -0.2920 -2.8805 -1.6272
  147DOPC   C3317540   5.490   4.980  13.439  0.7172  0.7369 -0.1937
  147DOPC   H3X17541   5.435   4.886  13.419 -0.1765  0.8258  1.6627
  147DOPC   H3Y17542   5.594   4.953  13.470  0.4704 -1.5268 -1.1734
  147DOPC   C3417543   5.498   5.062  13.309 -0.2310  0.3741 -0.2000
  147DOPC   H4X17544   5.579   5.028  13.241  0.3331 -1.0511  1.1097
  147DOPC   H4Y17545   5.518   5.171  13.317  1.6167  0.0399  0.1989
  147DOPC   C3517546   5.367   5.061  13.225 -0.0114  0.3813 -0.3378
  147DOPC   H5X17547   5.366   5.149  13.156 -0.3272 -0.2730 -1.1881
  147DOPC   H5Y17548   5.282   5.073  13.296 -1.0671 -1.7462 -1.1415
  147DOPC   C3617549   5.341   4.934  13.134  0.0113 -0.5138 -0.0950
  147DOPC   H6X17550   5.339   4.846  13.202 -2.2555 -0.2741  0.2260
  147DOPC   H6Y17551   5.238   4.930  13.093  0.3760  2.4039 -1.5479
  147DOPC   C3717552   5.448   4.906  13.023 -0.8042  0.6402  0.1818
  147DOPC   H7X17553   5.551   4.919  13.062 -1.3851  2.1322  1.3192
  147DOPC   H7Y17554   5.439   4.800  12.990  0.9727  0.5287 -0.0172
  147DOPC   C3817555   5.441   4.999  12.900 -0.3034 -0.0952  0.9604
  147DOPC   H8X17556   5.542   5.007  12.854  0.6192  1.0115  3.0487
  147DOPC   H8Y17557   5.417   5.100  12.938 -1.3144 -0.5157  1.4789
  147DOPC   C3917558   5.331   4.964  12.798  1.1990  0.5643 -0.0385
  147DOPC   H9X17559   5.229   4.988  12.834 -0.0288 -2.7714 -0.8883
  147DOPC  C31017560   5.342   4.888  12.685  0.5302  0.1057 -0.4399
  147DOPC  H10X17561   5.243   4.866  12.641  0.1523  0.5383  0.1706
  147DOPC  C31117562   5.466   4.835  12.622 -0.0741  0.2905 -0.2359
  147DOPC  H11X17563   5.452   4.725  12.622  1.4821  0.0807  0.4540
  147DOPC  H11Y17564   5.558   4.852  12.682 -0.2965  0.6131  0.0199
  147DOPC  C31217565   5.487   4.878  12.474 -0.9628 -0.0019 -0.2759
  147DOPC  H12X17566   5.541   4.975  12.476  0.8987 -0.9694 -0.7043
  147DOPC  H12Y17567   5.390   4.895  12.423 -0.8743  3.7345  0.5394
  147DOPC  C31317568   5.566   4.764  12.398 -0.8734 -0.5863  0.6762
  147DOPC  H13X17569   5.663   4.747  12.449  0.6055  1.7441 -1.1606
  147DOPC  H13Y17570   5.515   4.666  12.394 -0.5421 -0.7429  0.0306
  147DOPC  C31417571   5.581   4.795  12.255 -0.1784  0.1923  0.4104
  147DOPC  H14X17572   5.488   4.810  12.196  0.3522  1.8235 -0.0848
  147DOPC  H14Y17573   5.639   4.890  12.242 -0.4508  0.4937  1.3543
  147DOPC  C31517574   5.661   4.683  12.180  0.1853  0.0282 -0.2578
  147DOPC  H15X17575   5.621   4.586  12.217 -0.0074  0.8101  1.6856
  147DOPC  H15Y17576   5.764   4.693  12.219  0.2612  2.4374 -0.9024
  147DOPC  C31617577   5.647   4.698  12.031  0.4792  0.6291 -0.5234
  147DOPC  H16X17578   5.688   4.604  11.990  0.2803  0.3493 -0.0848
  147DOPC  H16Y17579   5.539   4.699  12.005 -0.1411  0.4072  1.8115
  147DOPC  C31717580   5.737   4.813  11.981  0.6915  0.1956 -0.5180
  147DOPC  H17X17581   5.687   4.907  12.013  0.2484  0.0270 -0.7019
  147DOPC  H17Y17582   5.834   4.817  12.035  1.2152  0.7744 -1.4765
  147DOPC  C31817583   5.764   4.815  11.831 -0.5133  0.0801 -0.6760
  147DOPC  H18X17584   5.839   4.894  11.809 -0.7243  1.1583  2.1151
  147DOPC  H18Y17585   5.795   4.717  11.791  0.0029 -1.0093  2.1609
  147DOPC  H18Z17586   5.669   4.842  11.781 -1.8499 -1.8333  0.7066
  148DOPC     N17587   3.958   0.757  13.724 -0.1059 -0.1673  0.4443
  148DOPC   C1217588   3.917   0.706  13.592  0.0272 -0.3489 -0.0223
  148DOPC  H12A17589   3.816   0.669  13.605 -0.3208 -0.0936 -1.7144
  148DOPC  H12B17590   3.991   0.634  13.560  1.8070  1.3121  0.2164
  148DOPC   C1317591   3.957   0.647  13.824  0.0595 -0.4245 -0.1546
  148DOPC  H13A17592   3.971   0.688  13.923  1.3831 -0.6467 -0.2231
  148DOPC  H13B17593   3.861   0.599  13.821 -0.3800  0.4723 -2.3973
  148DOPC  H13C17594   4.035   0.572  13.821 -0.4339 -0.9320 -0.3226
  148DOPC   C1417595   3.865   0.870  13.758 -1.0606 -0.8123 -0.0701
  148DOPC  H14A17596   3.759   0.849  13.752 -1.1956 -0.2858  0.3139
  148DOPC  H14B17597   3.878   0.911  13.858 -0.4105  0.2065 -0.5574
  148DOPC  H14C17598   3.883   0.948  13.686  0.8317  0.3252  1.5333
  148DOPC   C1517599   4.100   0.808  13.721  0.9514 -0.0746 -0.4120
  148DOPC  H15A17600   4.105   0.897  13.660 -2.0982  1.0152  0.7280
  148DOPC  H15B17601   4.170   0.734  13.684  0.6742 -0.3649 -0.3505
  148DOPC  H15C17602   4.133   0.828  13.822  0.1596  1.5750 -0.4439
  148DOPC   C1117603   3.895   0.805  13.470 -0.6488  0.2850 -0.0087
  148DOPC  H11A17604   3.977   0.879  13.478  1.1448 -1.6164  0.2355
  148DOPC  H11B17605   3.911   0.755  13.372  1.8970  1.7298 -0.4149
  148DOPC     P17606   3.637   0.793  13.448 -0.0256  0.0659 -0.5688
  148DOPC   O1317607   3.519   0.874  13.464  0.2439 -0.4777  0.4188
  148DOPC   O1417608   3.642   0.665  13.524  0.2278  0.5014  0.2474
  148DOPC   O1217609   3.772   0.873  13.476  0.2881  0.3468 -0.0024
  148DOPC   O1117610   3.660   0.755  13.292 -0.6460  0.2765  0.5821
  148DOPC    C117611   3.580   0.816  13.190 -0.2997  0.4572 -0.0742
  148DOPC    HA17612   3.608   0.923  13.189 -0.2807  0.6933  4.4268
  148DOPC    HB17613   3.473   0.803  13.217  0.2975  0.3608  2.4647
  148DOPC    C217614   3.598   0.741  13.053  0.8836  0.1029  0.4917
  148DOPC    HS17615   3.564   0.638  13.073  0.4214 -0.4633 -2.7939
  148DOPC   O2117616   3.733   0.757  13.022 -0.2015  0.1251  0.0441
  148DOPC   C2117617   3.810   0.640  13.041  0.0562  0.7960 -0.1392
  148DOPC   O2217618   3.763   0.539  13.082 -0.2866 -0.3843 -0.8236
  148DOPC   C2217619   3.955   0.668  13.010  0.0404  0.3965  0.0420
  148DOPC   H2R17620   4.011   0.574  13.027 -0.6720 -0.5683 -2.4535
  148DOPC   H2S17621   3.984   0.744  13.086 -0.5198  0.4858  0.1660
  148DOPC    C317622   3.507   0.787  12.938  0.4709 -0.0439 -0.6109
  148DOPC    HX17623   3.534   0.894  12.924 -2.4624  0.8713  0.1011
  148DOPC    HY17624   3.400   0.800  12.965  0.7058  0.6733  0.0083
  148DOPC   O3117625   3.510   0.705  12.823  0.3625 -0.1677 -0.2989
  148DOPC   C3117626   3.578   0.757  12.720 -0.4645 -0.2922  0.5293
  148DOPC   O3217627   3.649   0.857  12.724  0.5473 -0.1599 -0.0984
  148DOPC   C3217628   3.554   0.661  12.598  0.1227 -0.4303  0.2726
  148DOPC   H2X17629   3.602   0.562  12.614  0.4816 -0.3702 -0.3665
  148DOPC   H2Y17630   3.444   0.654  12.606  0.1409  0.8736  3.5745
  148DOPC   C2317631   3.980   0.733  12.873 -0.1519  1.0273 -0.0645
  148DOPC   H3R17632   4.084   0.769  12.883 -0.4572  1.5344  1.5562
  148DOPC   H3S17633   3.908   0.818  12.874 -1.8169 -0.3087  2.0997
  148DOPC   C2417634   3.953   0.636  12.754  0.2764 -0.4716 -0.1711
  148DOPC   H4R17635   3.849   0.596  12.759  0.3050 -0.9918 -2.7301
  148DOPC   H4S17636   4.020   0.549  12.772  0.7839  0.0798  0.6506
  148DOPC   C2517637   4.008   0.694  12.616 -0.2254 -0.5675 -0.1213
  148DOPC   H5R17638   4.116   0.713  12.634 -0.0768 -1.1362 -0.3892
  148DOPC   H5S17639   3.968   0.796  12.603  1.3127 -0.0124 -0.7306
  148DOPC   C2617640   3.976   0.597  12.504  0.2951 -0.5129 -0.5100
  148DOPC   H6R17641   3.867   0.575  12.506  0.5753 -2.4603 -2.5268
  148DOPC   H6S17642   4.019   0.495  12.516 -1.0614 -1.1306 -0.7808
  148DOPC   C2717643   4.017   0.657  12.370 -0.2402  0.4693  0.2938
  148DOPC   H7R17644   4.125   0.680  12.384  0.1006 -1.2045  0.5363
  148DOPC   H7S17645   3.973   0.756  12.342 -1.2807 -0.4885 -1.6755
  148DOPC   C2817646   3.980   0.556  12.253 -0.1402  0.0711 -0.2023
  148DOPC   H8R17647   3.880   0.597  12.226 -1.6916 -3.4651 -0.4656
  148DOPC   H8S17648   3.960   0.452  12.287 -2.9759  0.2220 -1.1156
  148DOPC   C2917649   4.082   0.552  12.144 -0.1410 -0.1107  0.3010
  148DOPC   H9R17650   4.182   0.525  12.182  0.4278  0.0960 -0.9919
  148DOPC  C21017651   4.066   0.599  12.014 -0.0046  0.3481 -0.5293
  148DOPC  H10R17652   4.144   0.593  11.937 -1.6131 -0.5776 -2.1554
  148DOPC  C21117653   3.936   0.632  11.940  0.1825 -0.1095 -0.1235
  148DOPC  H11R17654   3.941   0.740  11.916 -0.7647  0.4451  1.9100
  148DOPC  H11S17655   3.842   0.621  11.999 -0.9249  0.9794 -1.6021
  148DOPC  C21217656   3.915   0.563  11.801 -0.4364 -0.6856 -0.2894
  148DOPC  H12R17657   3.822   0.613  11.767 -0.6009 -0.5100  0.4032
  148DOPC  H12S17658   3.902   0.453  11.807  0.1462 -0.8820 -1.8841
  148DOPC  C21317659   4.023   0.594  11.697  0.0832 -0.0549 -0.2328
  148DOPC  H13R17660   4.121   0.562  11.739  1.2176  1.9992 -1.1388
  148DOPC  H13S17661   4.029   0.704  11.683  0.2155 -0.3500 -3.0801
  148DOPC  C21417662   4.001   0.529  11.559 -0.5840 -0.7934 -0.5780
  148DOPC  H14R17663   3.971   0.422  11.561  2.5879 -1.7616  0.2771
  148DOPC  H14S17664   4.101   0.535  11.512 -0.6788  0.0416 -0.6983
  148DOPC  C21517665   3.904   0.610  11.468  0.4895 -0.0223 -0.3379
  148DOPC  H15R17666   3.944   0.714  11.466 -0.1380  0.2109 -0.7901
  148DOPC  H15S17667   3.806   0.624  11.517  1.3085  0.3226  1.2841
  148DOPC  C21617668   3.888   0.571  11.316 -0.4807 -0.4267  0.2320
  148DOPC  H16R17669   3.979   0.605  11.263  0.4044  0.0414  1.9877
  148DOPC  H16S17670   3.812   0.637  11.267  1.1172  0.3216 -1.3554
  148DOPC  C21717671   3.857   0.423  11.278  0.0209 -0.3355 -0.1094
  148DOPC  H17R17672   3.775   0.389  11.344 -2.1867  0.4629 -2.2771
  148DOPC  H17S17673   3.950   0.365  11.296  0.6558  0.8049  0.3926
  148DOPC  C21817674   3.814   0.403  11.130  0.0890  0.0540  0.4575
  148DOPC  H18R17675   3.891   0.427  11.053  1.3242 -0.3853  1.5060
  148DOPC  H18S17676   3.734   0.475  11.104 -0.6152 -0.3380  1.4823
  148DOPC  H18T17677   3.785   0.296  11.123  1.4839 -0.3375  0.2906
  148DOPC   C3317678   3.588   0.728  12.461 -0.3239  0.3054  0.3631
  148DOPC   H3X17679   3.698   0.716  12.447 -0.3429  0.7274 -0.1952
  148DOPC   H3Y17680   3.574   0.837  12.473  2.6389  0.4932  3.6510
  148DOPC   C3417681   3.518   0.671  12.331  0.1828 -0.4811  0.4565
  148DOPC   H4X17682   3.409   0.693  12.330  0.6350  2.1314  1.3577
  148DOPC   H4Y17683   3.537   0.562  12.323  2.1160 -0.2039  0.8792
  148DOPC   C3517684   3.577   0.746  12.214  0.6327  0.8101 -0.5630
  148DOPC   H5X17685   3.688   0.757  12.222  0.9866 -1.8132 -0.9704
  148DOPC   H5Y17686   3.534   0.848  12.207  0.3749  0.7512  0.1145
  148DOPC   C3617687   3.553   0.675  12.082 -0.3799 -0.2292  0.0405
  148DOPC   H6X17688   3.621   0.587  12.082 -1.1085 -0.8312  1.2515
  148DOPC   H6Y17689   3.448   0.637  12.080 -0.5862  0.3114 -2.2976
  148DOPC   C3717690   3.577   0.762  11.958 -0.7551  0.2228 -0.1760
  148DOPC   H7X17691   3.526   0.860  11.970  1.0630  1.2335 -0.3240
  148DOPC   H7Y17692   3.686   0.783  11.961 -0.1964 -2.3735 -0.0141
  148DOPC   C3817693   3.543   0.686  11.825  0.3477  0.0711 -0.7966
  148DOPC   H8X17694   3.443   0.641  11.838  0.8695 -0.9129 -0.1241
  148DOPC   H8Y17695   3.607   0.598  11.803 -0.1858 -0.0697 -1.8315
  148DOPC   C3917696   3.545   0.768  11.698 -0.7139  0.9004  0.7404
  148DOPC   H9X17697   3.623   0.846  11.690 -0.8756  1.0024  0.1210
  148DOPC  C31017698   3.467   0.755  11.587 -0.2347  0.4987  0.1562
  148DOPC  H10X17699   3.505   0.806  11.497  0.9371 -0.2973  0.1674
  148DOPC  C31117700   3.354   0.655  11.574 -0.5642  0.1371 -0.2267
  148DOPC  H11X17701   3.263   0.690  11.627 -0.4508 -0.9094  0.7105
  148DOPC  H11Y17702   3.379   0.556  11.619 -0.4929  0.0079 -0.5483
  148DOPC  C31217703   3.316   0.622  11.428  0.8355 -0.3804 -0.1665
  148DOPC  H12X17704   3.292   0.722  11.386  0.4413 -0.5448 -0.3383
  148DOPC  H12Y17705   3.228   0.555  11.423  0.9363 -0.5442  0.2502
  148DOPC  C31317706   3.434   0.565  11.344  0.0747  0.5693  0.4251
  148DOPC  H13X17707   3.393   0.561  11.241 -0.7165  1.3023  0.6967
  148DOPC  H13Y17708   3.520   0.634  11.356  1.4768 -1.2820  1.5452
  148DOPC  C31417709   3.477   0.424  11.388 -0.3416  0.3645  0.3642
  148DOPC  H14X17710   3.564   0.394  11.326 -0.1660 -0.1957  0.8824
  148DOPC  H14Y17711   3.522   0.425  11.489  0.5523 -0.5225 -0.0044
  148DOPC  C31517712   3.369   0.311  11.384  0.1169 -0.0880 -0.0321
  148DOPC  H15X17713   3.285   0.339  11.451 -1.2448 -0.0337 -1.6956
  148DOPC  H15Y17714   3.418   0.220  11.426 -0.7203 -0.8781 -0.7208
  148DOPC  C31617715   3.304   0.279  11.245  0.3260 -1.3393 -0.4521
  148DOPC  H16X17716   3.231   0.357  11.216  0.9211 -0.3831  0.5230
  148DOPC  H16Y17717   3.388   0.273  11.172  0.5933 -2.1716 -0.0899
  148DOPC  C31717718   3.230   0.147  11.245 -0.0113 -0.5476  0.2780
  148DOPC  H17X17719   3.288   0.075  11.306  0.8106 -0.0127  0.1449
  148DOPC  H17Y17720   3.134   0.168  11.298  0.3018 -0.4201  0.8024
  148DOPC  C31817721   3.195   0.085  11.105  0.1339  0.1901 -0.0486
  148DOPC  H18X17722   3.143  -0.013  11.105  1.4405 -0.5238  0.2687
  148DOPC  H18Y17723   3.132   0.163  11.058 -1.0820  1.7629  3.8147
  148DOPC  H18Z17724   3.296   0.078  11.058  1.0612  1.6005  1.6078
  149DOPC     N17725   5.713   3.458  14.008  0.1403 -0.2880  0.0645
  149DOPC   C1217726   5.786   3.565  13.924  0.3511  0.1605  0.3201
  149DOPC  H12A17727   5.716   3.634  13.878  1.3029  1.4676  0.7754
  149DOPC  H12B17728   5.831   3.502  13.850  1.9541  0.3802  1.0694
  149DOPC   C1317729   5.651   3.530  14.125  0.2635 -0.3726  0.7216
  149DOPC  H13A17730   5.728   3.573  14.187 -1.4379 -0.3098  2.8694
  149DOPC  H13B17731   5.577   3.601  14.090 -1.3906 -1.0370  2.6792
  149DOPC  H13C17732   5.596   3.456  14.181 -1.0488 -0.1190 -0.1831
  149DOPC   C1417733   5.808   3.353  14.050 -0.3883  0.2809 -0.1079
  149DOPC  H14A17734   5.750   3.278  14.103  1.2760  0.5329  2.2161
  149DOPC  H14B17735   5.870   3.310  13.972  0.8396 -1.4406  1.7085
  149DOPC  H14C17736   5.878   3.393  14.123  0.3045  0.7252 -0.9961
  149DOPC   C1517737   5.615   3.398  13.918 -0.0659 -0.4179 -0.4840
  149DOPC  H15A17738   5.665   3.339  13.843  1.2868  0.7143 -0.5128
  149DOPC  H15B17739   5.548   3.471  13.873 -2.1186 -0.6896  1.9290
  149DOPC  H15C17740   5.553   3.335  13.980  1.0604 -1.7549 -0.6637
  149DOPC   C1117741   5.897   3.646  13.998 -0.0661  0.5466 -0.6022
  149DOPC  H11A17742   5.975   3.580  14.041 -1.3856 -1.6787 -1.4633
  149DOPC  H11B17743   5.955   3.706  13.925  0.5531  0.6559 -0.0338
  149DOPC     P17744   5.768   3.867  14.063  0.8146  0.0656 -0.2526
  149DOPC   O1317745   5.739   3.941  14.189 -0.4091 -0.1088 -0.3794
  149DOPC   O1417746   5.644   3.823  13.993  0.0560  0.0104  0.4794
  149DOPC   O1217747   5.848   3.735  14.099  0.4939  0.1380 -0.1479
  149DOPC   O1117748   5.858   3.947  13.974 -0.5475 -0.0866 -0.1007
  149DOPC    C117749   5.866   4.090  13.979  0.5235 -0.0925  0.6116
  149DOPC    HA17750   5.968   4.114  13.942  0.7256 -1.3362  0.3059
  149DOPC    HB17751   5.848   4.140  14.077 -0.3359 -1.4183  1.1572
  149DOPC    C217752   5.773   4.141  13.862  0.1608  0.5230 -0.1088
  149DOPC    HS17753   5.673   4.141  13.911  0.7635 -1.0891  1.1868
  149DOPC   O2117754   5.788   4.061  13.751  0.4885 -0.3154  0.1595
  149DOPC   C2117755   5.677   4.042  13.684  0.3557 -0.7978  0.4331
  149DOPC   O2217756   5.566   4.087  13.709 -0.3682  0.3136  0.1140
  149DOPC   C2217757   5.705   3.953  13.563 -0.9552 -0.4272 -0.6175
  149DOPC   H2R17758   5.707   3.848  13.600  0.8398  0.3594  1.7569
  149DOPC   H2S17759   5.811   3.974  13.537 -0.0068 -1.1768  2.2929
  149DOPC    C317760   5.813   4.285  13.817 -0.4403  0.3570 -0.1784
  149DOPC    HX17761   5.917   4.276  13.778 -0.4533  2.4162 -0.8262
  149DOPC    HY17762   5.812   4.356  13.902  1.4831 -1.3926  1.4216
  149DOPC   O3117763   5.747   4.334  13.701 -0.0314 -0.1438 -0.0037
  149DOPC   C3117764   5.630   4.394  13.716  0.4770  0.0615 -0.3878
  149DOPC   O3217765   5.592   4.440  13.820 -0.0324  0.5976 -0.6408
  149DOPC   C3217766   5.546   4.397  13.592 -0.1109  0.1800 -0.0178
  149DOPC   H2X17767   5.510   4.295  13.568  0.3483 -0.1493  0.6782
  149DOPC   H2Y17768   5.458   4.457  13.623 -0.2587 -0.2281  0.3566
  149DOPC   C2317769   5.614   3.970  13.446  0.2066  0.0614  0.2793
  149DOPC   H3R17770   5.590   4.078  13.434 -1.4781 -0.3491 -0.3012
  149DOPC   H3S17771   5.515   3.922  13.460  0.1473 -0.5445 -1.9258
  149DOPC   C2417772   5.664   3.913  13.313 -0.5606  0.6439  0.1013
  149DOPC   H4R17773   5.693   3.808  13.331 -4.2068 -0.2040  1.9365
  149DOPC   H4S17774   5.759   3.967  13.291 -0.1511  0.3497  1.1052
  149DOPC   C2517775   5.582   3.923  13.179 -0.0689 -0.4217 -0.0673
  149DOPC   H5R17776   5.562   4.031  13.169  0.4308 -0.4855 -2.0599
  149DOPC   H5S17777   5.482   3.877  13.194 -0.1079 -0.2051  0.3472
  149DOPC   C2617778   5.652   3.872  13.053 -0.2600  0.1260 -0.7353
  149DOPC   H6R17779   5.678   3.764  13.052 -0.7744 -0.0021 -2.3105
  149DOPC   H6S17780   5.750   3.922  13.039 -1.1961  2.1758 -0.2810
  149DOPC   C2717781   5.583   3.904  12.924  0.3736 -0.3270  0.4641
  149DOPC   H7R17782   5.556   4.011  12.909 -0.9186 -0.9384 -2.3334
  149DOPC   H7S17783   5.486   3.849  12.927  0.1174  0.0631 -0.3278
  149DOPC   C2817784   5.655   3.859  12.793 -0.5893  0.0382 -0.4327
  149DOPC   H8R17785   5.683   3.752  12.805  1.3879  0.5424 -0.1753
  149DOPC   H8S17786   5.745   3.921  12.775  0.1504 -0.9348 -0.2178
  149DOPC   C2917787   5.573   3.862  12.666  0.1412 -0.6836 -0.2792
  149DOPC   H9R17788   5.494   3.786  12.663 -1.2962  0.6698  1.2349
  149DOPC  C21017789   5.581   3.950  12.564  0.4124  0.0116  0.4029
  149DOPC  H10R17790   5.506   3.955  12.483  2.1575 -0.5951 -1.3416
  149DOPC  C21117791   5.691   4.048  12.538  0.2054  0.8775 -0.5811
  149DOPC  H11R17792   5.752   4.059  12.631 -0.6080 -0.5758  0.1654
  149DOPC  H11S17793   5.649   4.147  12.512  2.0062  1.8289 -0.0495
  149DOPC  C21217794   5.765   3.996  12.418 -0.1424 -0.3177  0.7514
  149DOPC  H12R17795   5.825   4.085  12.388 -2.6570  1.1544 -0.1786
  149DOPC  H12S17796   5.701   3.965  12.332  0.6804 -1.1452  0.4178
  149DOPC  C21317797   5.853   3.868  12.435  0.1651 -0.0319  0.0935
  149DOPC  H13R17798   5.785   3.781  12.430 -0.8607  0.7266  0.4081
  149DOPC  H13S17799   5.887   3.858  12.540 -0.6135 -0.9327  0.2793
  149DOPC  C21417800   5.980   3.874  12.343  0.4538  0.0303 -0.2984
  149DOPC  H14R17801   6.045   3.790  12.372 -0.8594 -1.0884 -0.4862
  149DOPC  H14S17802   6.034   3.970  12.361 -0.3451  0.6454 -1.0756
  149DOPC  C21517803   5.944   3.857  12.196  0.2032  0.1334 -0.8741
  149DOPC  H15R17804   5.869   3.932  12.164  2.1467  2.7657  0.3636
  149DOPC  H15S17805   5.912   3.751  12.188  0.4057 -0.0995  0.9204
  149DOPC  C21617806   6.067   3.888  12.115 -0.4603 -0.4587  0.7393
  149DOPC  H16R17807   6.154   3.821  12.132 -0.3284 -1.1003 -2.0156
  149DOPC  H16S17808   6.097   3.995  12.114  0.2465 -0.6364 -0.9876
  149DOPC  C21717809   6.033   3.872  11.964 -0.3797 -0.4572 -0.6202
  149DOPC  H17R17810   5.959   3.954  11.952 -0.7860 -0.4959  1.3318
  149DOPC  H17S17811   5.980   3.777  11.941  1.1840 -0.9392 -2.4712
  149DOPC  C21817812   6.150   3.887  11.871 -0.3438 -0.9994 -0.0463
  149DOPC  H18R17813   6.101   3.891  11.771  1.7953  0.7614 -1.1331
  149DOPC  H18S17814   6.227   3.810  11.889  1.6595  1.0672  0.7469
  149DOPC  H18T17815   6.190   3.989  11.893 -0.7707 -0.9582  0.5630
  149DOPC   C3317816   5.616   4.456  13.465 -0.2970  0.3929 -0.3201
  149DOPC   H3X17817   5.725   4.434  13.465 -0.2345  0.5541 -1.9125
  149DOPC   H3Y17818   5.617   4.567  13.465 -2.8662  0.4736 -0.5510
  149DOPC   C3417819   5.556   4.403  13.335 -0.5354  0.2686  0.2340
  149DOPC   H4X17820   5.445   4.405  13.336 -0.7595 -3.9825  0.3671
  149DOPC   H4Y17821   5.581   4.295  13.325  1.0356  0.7992 -2.9652
  149DOPC   C3517822   5.616   4.478  13.214  0.5240  0.5709 -0.4904
  149DOPC   H5X17823   5.727   4.471  13.208  0.4257 -2.9681 -0.2933
  149DOPC   H5Y17824   5.588   4.586  13.216 -1.2596  0.1707 -1.4053
  149DOPC   C3617825   5.550   4.419  13.093 -0.4592  0.2437  0.9338
  149DOPC   H6X17826   5.587   4.318  13.067  0.9423  1.3676 -1.6976
  149DOPC   H6Y17827   5.440   4.425  13.106 -0.6871 -0.1514 -0.6319
  149DOPC   C3717828   5.574   4.503  12.965  0.7882  0.6930 -0.6001
  149DOPC   H7X17829   5.542   4.606  12.990 -0.6995 -0.0865  0.9365
  149DOPC   H7Y17830   5.674   4.505  12.916  0.5604  0.3558 -1.0880
  149DOPC   C3817831   5.483   4.466  12.845 -0.8691  0.5580 -0.3647
  149DOPC   H8X17832   5.497   4.546  12.770  0.7111 -0.5277 -1.2828
  149DOPC   H8Y17833   5.379   4.465  12.885 -0.2614 -4.0506  1.8537
  149DOPC   C3917834   5.508   4.327  12.779 -0.3938 -0.2147 -0.3833
  149DOPC   H9X17835   5.611   4.316  12.742 -0.3435 -1.7754  0.1541
  149DOPC  C31017836   5.425   4.225  12.776  0.1530  0.2014 -0.4749
  149DOPC  H10X17837   5.462   4.130  12.733  1.5282  1.0454 -1.2065
  149DOPC  C31117838   5.285   4.225  12.836  0.1880 -0.2175  0.0772
  149DOPC  H11X17839   5.215   4.216  12.751  2.0686 -0.2867 -1.5444
  149DOPC  H11Y17840   5.256   4.315  12.894 -0.7188 -1.3898  1.5040
  149DOPC  C31217841   5.264   4.105  12.932  0.3218 -0.4801  0.0739
  149DOPC  H12X17842   5.318   4.009  12.914 -0.8251 -1.3835  1.2342
  149DOPC  H12Y17843   5.155   4.085  12.935  0.5708 -1.8506  1.2584
  149DOPC  C31317844   5.283   4.148  13.076 -0.7297  0.3756 -0.3451
  149DOPC  H13X17845   5.390   4.173  13.092 -0.3966 -1.5710  0.8231
  149DOPC  H13Y17846   5.238   4.249  13.087  1.0195  1.2895 -1.1435
  149DOPC  C31417847   5.231   4.036  13.167  0.3373 -0.7167 -0.4819
  149DOPC  H14X17848   5.123   4.017  13.149 -0.3828 -0.1743  2.6039
  149DOPC  H14Y17849   5.279   3.938  13.151 -2.2650 -1.9747 -1.2497
  149DOPC  C31517850   5.225   4.080  13.314 -0.7555 -0.5356  0.4711
  149DOPC  H15X17851   5.166   4.173  13.332  0.5467  0.4719 -0.2075
  149DOPC  H15Y17852   5.328   4.115  13.339  0.0179 -0.1496 -2.7893
  149DOPC  C31617853   5.188   3.964  13.406 -0.8019 -0.7426 -0.9697
  149DOPC  H16X17854   5.078   3.951  13.396 -0.8593 -0.9119 -0.1284
  149DOPC  H16Y17855   5.241   3.868  13.391  0.6923 -0.2765  0.9459
  149DOPC  C31717856   5.229   4.002  13.552 -0.1244  0.0822 -0.3360
  149DOPC  H17X17857   5.323   4.061  13.548 -0.7874  1.2612  0.5377
  149DOPC  H17Y17858   5.169   4.085  13.596  1.8733  0.7672  1.2111
  149DOPC  C31817859   5.234   3.896  13.658  0.5153 -0.2266  0.7684
  149DOPC  H18X17860   5.319   3.825  13.646  0.4441 -0.1529 -0.2614
  149DOPC  H18Y17861   5.234   3.950  13.755 -1.7630 -0.9996  1.2715
  149DOPC  H18Z17862   5.142   3.834  13.652  1.4411 -1.6066  0.5078
  150DOPC     N17863   2.011   6.053  13.624 -0.2799 -0.6354  0.3144
  150DOPC   C1217864   1.963   6.069  13.486  0.2650 -0.3113 -0.4160
  150DOPC  H12A17865   1.937   6.174  13.476  0.3095 -0.4381 -2.1481
  150DOPC  H12B17866   1.870   6.014  13.484  0.1839 -0.2474  0.9025
  150DOPC   C1317867   2.133   6.141  13.655  0.6684  0.4036  0.1419
  150DOPC  H13A17868   2.201   6.127  13.572  1.1379  0.7962  0.4525
  150DOPC  H13B17869   2.087   6.239  13.661 -0.3487 -0.1271  2.2884
  150DOPC  H13C17870   2.180   6.111  13.748  2.2791  0.8252 -0.4994
  150DOPC   C1417871   2.040   5.909  13.656 -0.3203  0.1239 -0.5847
  150DOPC  H14A17872   2.059   5.888  13.761 -1.6081  0.0396 -0.3545
  150DOPC  H14B17873   1.962   5.840  13.628 -1.4429  0.4560  1.5040
  150DOPC  H14C17874   2.126   5.873  13.601 -1.2920  0.4129 -2.3551
  150DOPC   C1517875   1.899   6.097  13.723 -0.2878  0.4824 -0.7234
  150DOPC  H15A17876   1.863   6.197  13.706  0.8307  1.2873  1.3287
  150DOPC  H15B17877   1.937   6.087  13.823 -0.6639 -0.4331 -0.6616
  150DOPC  H15C17878   1.813   6.031  13.724  0.8412 -1.0539  1.4575
  150DOPC   C1117879   2.058   6.026  13.378  0.0803  0.2739  0.8766
  150DOPC  H11A17880   2.076   5.917  13.383  0.8869  0.2873 -1.0106
  150DOPC  H11B17881   2.007   6.039  13.280  0.4640  0.2001  0.6624
  150DOPC     P17882   2.214   6.232  13.314 -0.0598  0.0818 -0.7397
  150DOPC   O1317883   2.339   6.287  13.375  0.4782 -0.2375  0.0615
  150DOPC   O1417884   2.093   6.313  13.327 -0.5294 -0.0780  0.5291
  150DOPC   O1217885   2.185   6.085  13.378 -0.1316 -0.4883  0.2529
  150DOPC   O1117886   2.246   6.206  13.156 -0.3192  0.0024 -0.6170
  150DOPC    C117887   2.337   6.105  13.115 -0.1573 -0.8403 -0.4765
  150DOPC    HA17888   2.349   6.016  13.179  2.3471 -0.3819 -0.2306
  150DOPC    HB17889   2.432   6.162  13.106 -0.5831  0.1049  0.8096
  150DOPC    C217890   2.289   6.053  12.981 -0.2512 -0.0861  0.4952
  150DOPC    HS17891   2.369   6.000  12.925 -0.9902 -0.4584 -0.2203
  150DOPC   O2117892   2.234   6.159  12.899  0.1023 -0.2980  0.1956
  150DOPC   C2117893   2.325   6.234  12.845  0.2783  0.2698 -0.1329
  150DOPC   O2217894   2.444   6.225  12.866 -0.5987  0.3926 -0.5996
  150DOPC   C2217895   2.259   6.321  12.737  0.1287 -0.2868  0.1803
  150DOPC   H2R17896   2.337   6.387  12.692  0.5773 -0.9227  0.0096
  150DOPC   H2S17897   2.183   6.382  12.789 -1.1661 -0.5270 -1.3598
  150DOPC    C317898   2.172   5.951  13.005  0.0783 -0.2811 -0.0032
  150DOPC    HX17899   2.089   6.011  13.047  0.4653 -0.4694  1.0607
  150DOPC    HY17900   2.201   5.873  13.078 -0.5896 -1.1459 -0.6470
  150DOPC   O3117901   2.139   5.882  12.885  0.4342 -0.6052  0.0658
  150DOPC   C3117902   2.040   5.932  12.806 -0.1753  0.3587  0.4540
  150DOPC   O3217903   1.969   6.027  12.835 -0.2046 -0.3070 -0.0864
  150DOPC   C3217904   2.026   5.843  12.685  1.2183  0.2839  0.0779
  150DOPC   H2X17905   2.124   5.838  12.633  0.2513 -3.4492 -1.7055
  150DOPC   H2Y17906   2.026   5.738  12.722 -3.7116 -0.1306 -0.4280
  150DOPC   C2317907   2.187   6.246  12.623 -0.4105  0.2801  0.8882
  150DOPC   H3R17908   2.105   6.203  12.684  0.7461 -0.1510  2.2022
  150DOPC   H3S17909   2.248   6.165  12.577 -0.5742  1.1907 -1.0310
  150DOPC   C2417910   2.143   6.353  12.517 -0.1775  0.1047  0.2290
  150DOPC   H4R17911   2.088   6.303  12.434 -1.9385  1.9847  0.1755
  150DOPC   H4S17912   2.232   6.404  12.475  0.1433 -0.5541  0.0995
  150DOPC   C2517913   2.035   6.441  12.581 -1.1517 -0.1931 -0.5150
  150DOPC   H5R17914   2.092   6.520  12.635  1.1514 -1.3380 -1.1466
  150DOPC   H5S17915   1.976   6.388  12.658 -1.7870 -0.0811 -0.9173
  150DOPC   C2617916   1.946   6.518  12.485  0.0306  0.1392 -0.6623
  150DOPC   H6R17917   1.876   6.570  12.554  0.6677 -0.4595  0.4582
  150DOPC   H6S17918   1.889   6.440  12.430 -0.4607  0.0063  0.0182
  150DOPC   C2717919   2.020   6.614  12.390 -0.0559  0.1999 -0.5065
  150DOPC   H7R17920   2.103   6.549  12.354  1.7269  0.1475  3.2822
  150DOPC   H7S17921   2.075   6.692  12.448 -1.0506 -0.1484  0.9311
  150DOPC   C2817922   1.929   6.666  12.288 -0.1294  0.4216  0.6159
  150DOPC   H8R17923   1.850   6.714  12.349 -2.6225 -0.5876 -1.6371
  150DOPC   H8S17924   1.889   6.573  12.243 -0.4066  0.9018 -0.1527
  150DOPC   C2917925   1.994   6.753  12.193 -1.1176  0.2396  0.0132
  150DOPC   H9R17926   2.046   6.837  12.242 -0.0044  0.5149 -1.5444
  150DOPC  C21017927   1.992   6.753  12.057 -0.1815  1.0382  0.4006
  150DOPC  H10R17928   2.064   6.809  11.996  0.7734  1.1825  1.6026
  150DOPC  C21117929   1.915   6.641  11.981 -0.1385 -0.6822 -0.4379
  150DOPC  H11R17930   1.823   6.609  12.036  1.0913 -2.3817  0.7469
  150DOPC  H11S17931   1.978   6.550  11.969 -1.7360 -1.6466 -1.9982
  150DOPC  C21217932   1.869   6.673  11.837  1.1332 -0.1026 -0.1428
  150DOPC  H12R17933   1.872   6.573  11.789  3.0550  0.1850 -0.7184
  150DOPC  H12S17934   1.933   6.744  11.779 -0.1397  0.8695 -0.4151
  150DOPC  C21317935   1.729   6.732  11.811  0.2154  0.0774 -0.5780
  150DOPC  H13R17936   1.658   6.646  11.819  0.7292 -0.4398 -1.3963
  150DOPC  H13S17937   1.727   6.761  11.704  2.3740  0.0881 -0.6478
  150DOPC  C21417938   1.704   6.858  11.895 -0.2356  0.7694 -0.0929
  150DOPC  H14R17939   1.703   6.837  12.004 -2.6305 -2.1703 -0.5448
  150DOPC  H14S17940   1.602   6.885  11.862 -1.8948 -1.0943  3.0462
  150DOPC  C21517941   1.798   6.977  11.867  0.0002  0.3368 -0.5417
  150DOPC  H15R17942   1.808   7.013  11.762 -0.4881  0.2702 -0.6125
  150DOPC  H15S17943   1.899   6.956  11.907  0.1197 -1.9033 -1.8495
  150DOPC  C21617944   1.738   7.109  11.927 -0.1817 -0.1678  0.3106
  150DOPC  H16R17945   1.631   7.124  11.902 -0.2493 -0.6609  0.2934
  150DOPC  H16S17946   1.789   7.198  11.885 -2.1699  0.3938 -1.0535
  150DOPC  C21717947   1.743   7.098  12.083  0.5547 -0.2870  0.1473
  150DOPC  H17R17948   1.845   7.059  12.105 -0.0488 -2.1807 -0.2784
  150DOPC  H17S17949   1.659   7.038  12.123  0.3592  0.2345  0.5240
  150DOPC  C21817950   1.719   7.231  12.154  0.0970 -0.5928  0.5586
  150DOPC  H18R17951   1.797   7.307  12.137  1.6002 -2.3822 -1.0322
  150DOPC  H18S17952   1.712   7.223  12.264  2.9841  1.9062  1.0296
  150DOPC  H18T17953   1.622   7.265  12.110  1.1060  1.2500 -0.3402
  150DOPC   C3317954   1.912   5.869  12.587 -0.7274  0.3035  0.0369
  150DOPC   H3X17955   1.912   5.978  12.565 -1.3256  0.6812  1.7341
  150DOPC   H3Y17956   1.810   5.845  12.626 -1.6596  0.0595 -2.3928
  150DOPC   C3417957   1.939   5.800  12.455  0.5062 -0.5369 -0.3155
  150DOPC   H4X17958   1.947   5.690  12.467  1.5900 -0.3992  0.4171
  150DOPC   H4Y17959   2.034   5.833  12.407 -0.2227  1.6456 -0.3585
  150DOPC   C3517960   1.831   5.846  12.351  0.0040  0.0854 -0.1158
  150DOPC   H5X17961   1.843   5.956  12.340 -2.3145  0.5259  0.9790
  150DOPC   H5Y17962   1.730   5.844  12.399 -0.1460 -1.8777 -0.4531
  150DOPC   C3617963   1.828   5.769  12.220 -0.0605 -0.2302  0.5811
  150DOPC   H6X17964   1.833   5.660  12.237 -1.8775 -0.5582 -0.6821
  150DOPC   H6Y17965   1.725   5.773  12.177 -0.2063 -2.2388  0.6472
  150DOPC   C3717966   1.931   5.813  12.108 -0.2467 -0.9585  0.5155
  150DOPC   H7X17967   1.921   5.922  12.093  1.2591 -0.9980 -1.1837
  150DOPC   H7Y17968   2.036   5.791  12.137 -0.3893 -2.9211 -0.2665
  150DOPC   C3817969   1.889   5.758  11.971  0.0885 -0.2946  0.1621
  150DOPC   H8X17970   1.789   5.800  11.949  0.1420  2.0730  3.6942
  150DOPC   H8Y17971   1.882   5.648  11.964  1.1085 -0.2735 -2.5774
  150DOPC   C3917972   1.983   5.804  11.864 -0.0887 -0.1108  0.2102
  150DOPC   H9X17973   2.070   5.856  11.906 -0.2602 -0.0138  0.4478
  150DOPC  C31017974   1.959   5.793  11.733 -0.1888 -0.3288  0.1048
  150DOPC  H10X17975   2.043   5.827  11.670  0.3218  1.0742  1.4875
  150DOPC  C31117976   1.831   5.738  11.670  0.1534 -0.4332  0.0798
  150DOPC  H11X17977   1.785   5.812  11.601  1.4574 -0.8110 -1.2459
  150DOPC  H11Y17978   1.752   5.712  11.744  0.6634 -1.1329  0.3861
  150DOPC  C31217979   1.864   5.617  11.586  0.2795  0.2042  1.0137
  150DOPC  H12X17980   1.931   5.555  11.650  0.0344 -0.6140  0.4910
  150DOPC  H12Y17981   1.928   5.639  11.498 -2.1858 -0.3737 -1.0195
  150DOPC  C31317982   1.741   5.543  11.530  0.1073 -0.5354  0.1320
  150DOPC  H13X17983   1.654   5.532  11.599 -2.0337 -0.3625 -2.4096
  150DOPC  H13Y17984   1.697   5.607  11.451  2.0561  1.2998  0.4676
  150DOPC  C31417985   1.756   5.404  11.472 -0.3122  0.3984 -0.2379
  150DOPC  H14X17986   1.752   5.334  11.558 -0.0788  2.8086  1.8223
  150DOPC  H14Y17987   1.668   5.375  11.412 -0.4384  0.4359 -0.0717
  150DOPC  C31517988   1.882   5.389  11.391 -0.2334  0.2716  0.2429
  150DOPC  H15X17989   1.965   5.402  11.464 -0.2400  3.2038 -0.1256
  150DOPC  H15Y17990   1.884   5.480  11.328 -1.5162 -0.1638 -0.4489
  150DOPC  C31617991   1.905   5.256  11.317 -0.0514 -0.7800 -0.0589
  150DOPC  H16X17992   1.922   5.171  11.386  0.0965 -0.5034  0.2486
  150DOPC  H16Y17993   1.809   5.222  11.271 -1.1462  2.2991 -0.3015
  150DOPC  C31717994   2.005   5.258  11.200 -0.4000  0.4265  0.2013
  150DOPC  H17X17995   2.010   5.353  11.142  1.4396  0.0870 -0.2629
  150DOPC  H17Y17996   2.106   5.237  11.241  0.2319  2.2347 -0.3436
  150DOPC  C31817997   1.976   5.150  11.097  0.0221 -0.2634 -0.2907
  150DOPC  H18X17998   2.038   5.154  11.005 -0.2011  1.4087 -0.4093
  150DOPC  H18Y17999   1.985   5.049  11.143 -0.9182  0.3219  1.2765
  150DOPC  H18Z18000   1.870   5.160  11.066 -0.3128 -3.3839 -0.4232
  151DOPC     N18001   4.841   3.986  14.220  0.2715  0.0572 -0.3510
  151DOPC   C1218002   4.807   3.890  14.105 -0.1182  0.0526 -0.4861
  151DOPC  H12A18003   4.776   3.793  14.141 -2.0841  1.1935  1.0748
  151DOPC  H12B18004   4.903   3.888  14.055  0.8025  0.0432  1.1973
  151DOPC   C1318005   4.959   3.934  14.292  0.6933  0.9019 -0.0924
  151DOPC  H13A18006   4.977   3.998  14.377 -2.1811  2.1190 -0.2909
  151DOPC  H13B18007   4.938   3.836  14.333  2.1992  0.9929  0.9670
  151DOPC  H13C18008   5.041   3.930  14.223 -1.1891 -0.4394 -2.4228
  151DOPC   C1418009   4.727   3.980  14.312 -0.1459  0.4150 -0.9843
  151DOPC  H14A18010   4.633   3.987  14.259 -0.5481 -2.2862 -0.7957
  151DOPC  H14B18011   4.733   3.889  14.370  1.5823  1.2689  0.3025
  151DOPC  H14C18012   4.733   4.067  14.375 -1.6511  0.2865 -0.6382
  151DOPC   C1518013   4.867   4.126  14.176 -0.1535 -0.4139  0.7655
  151DOPC  H15A18014   4.783   4.176  14.131 -2.0669 -3.1089  1.0868
  151DOPC  H15B18015   4.946   4.125  14.102 -1.7054 -1.3577 -0.9650
  151DOPC  H15C18016   4.904   4.189  14.255  0.5739  0.4968 -0.2519
  151DOPC   C1118017   4.690   3.928  14.015  0.3809  0.4188  0.2898
  151DOPC  H11A18018   4.685   4.031  13.974  0.5619  0.0403 -0.7361
  151DOPC  H11B18019   4.701   3.860  13.927  1.1129 -0.3625  0.9668
  151DOPC     P18020   4.447   3.807  14.010  0.3704 -0.1999  0.2311
  151DOPC   O1318021   4.321   3.889  14.004  0.3181  0.5608  0.8989
  151DOPC   O1418022   4.438   3.677  14.080 -0.4022 -0.1335 -0.5929
  151DOPC   O1218023   4.564   3.888  14.077  0.4975  0.0095 -0.1059
  151DOPC   O1118024   4.500   3.782  13.860  0.1857  0.0954  0.1573
  151DOPC    C118025   4.518   3.644  13.823  0.0064 -0.0572  0.4550
  151DOPC    HA18026   4.422   3.587  13.818 -1.1490  1.8945 -0.9855
  151DOPC    HB18027   4.594   3.599  13.890  3.0424  1.9646 -1.3703
  151DOPC    C218028   4.593   3.642  13.688 -0.1676 -0.3657 -0.1485
  151DOPC    HS18029   4.691   3.690  13.703 -0.1067  0.0888 -1.8104
  151DOPC   O2118030   4.508   3.703  13.585 -0.5789 -0.2086  0.4366
  151DOPC   C2118031   4.559   3.793  13.500 -0.5230  0.1857  0.1913
  151DOPC   O2218032   4.678   3.816  13.484  0.2543  0.3347  0.2176
  151DOPC   C2218033   4.445   3.841  13.422 -0.3456 -0.2256 -0.3668
  151DOPC   H2R18034   4.475   3.942  13.385  0.9914 -0.2092  0.6683
  151DOPC   H2S18035   4.361   3.854  13.493 -0.9966 -1.0704 -0.9628
  151DOPC    C318036   4.614   3.490  13.646  0.6017  0.2894 -0.0857
  151DOPC    HX18037   4.518   3.434  13.647 -0.1022  1.3911  2.2074
  151DOPC    HY18038   4.665   3.438  13.729 -2.2385 -2.3043  0.1924
  151DOPC   O3118039   4.676   3.481  13.516 -0.3482  0.4414  0.1808
  151DOPC   C3118040   4.809   3.502  13.503  0.0230 -0.6114  0.4623
  151DOPC   O3218041   4.888   3.530  13.591 -0.0663  0.3085 -0.5924
  151DOPC   C3218042   4.850   3.489  13.356 -0.2037 -0.0945 -0.3045
  151DOPC   H2X18043   4.921   3.404  13.358  0.7277  0.6585 -0.8060
  151DOPC   H2Y18044   4.762   3.471  13.290  0.1546 -2.7247 -0.1571
  151DOPC   C2318045   4.403   3.753  13.312 -0.3072 -0.2320  0.1183
  151DOPC   H3R18046   4.327   3.810  13.254 -1.4577 -2.7296 -0.9977
  151DOPC   H3S18047   4.364   3.657  13.350  2.9987 -1.7083  0.1389
  151DOPC   C2418048   4.528   3.710  13.230  0.2249 -0.3509  0.9086
  151DOPC   H4R18049   4.581   3.631  13.287  0.8383 -1.2261 -0.8198
  151DOPC   H4S18050   4.605   3.785  13.204 -1.4689  1.0099 -0.4648
  151DOPC   C2518051   4.477   3.650  13.095  0.0112 -0.1492 -0.2780
  151DOPC   H5R18052   4.436   3.730  13.030 -1.0735 -0.9777 -0.6202
  151DOPC   H5S18053   4.401   3.572  13.111  0.5036 -0.1791  2.4445
  151DOPC   C2618054   4.589   3.581  13.011  0.2502  0.6757  0.4772
  151DOPC   H6R18055   4.642   3.512  13.080 -0.9883  0.4732  1.2692
  151DOPC   H6S18056   4.658   3.661  12.977  1.2907  0.5323  2.1529
  151DOPC   C2718057   4.548   3.499  12.892  0.2162  0.7036 -0.3345
  151DOPC   H7R18058   4.491   3.413  12.933  0.1957  0.4178 -0.9467
  151DOPC   H7S18059   4.634   3.453  12.839  0.0952  0.1639 -0.0681
  151DOPC   C2818060   4.444   3.562  12.797 -0.2912 -0.9409  0.0651
  151DOPC   H8R18061   4.363   3.606  12.860  1.8106  2.4871  0.6218
  151DOPC   H8S18062   4.397   3.479  12.740 -0.3463  0.2305 -1.6670
  151DOPC   C2918063   4.494   3.661  12.702 -0.1602 -0.1235 -0.4538
  151DOPC   H9R18064   4.591   3.705  12.732  0.5366 -1.0263 -1.2948
  151DOPC  C21018065   4.453   3.690  12.582  0.3476  0.2705  0.6948
  151DOPC  H10R18066   4.513   3.763  12.525 -1.6824  0.4323 -1.3590
  151DOPC  C21118067   4.341   3.621  12.505  0.2426 -0.5274 -0.3464
  151DOPC  H11R18068   4.258   3.695  12.496  2.1853  1.8103 -0.1587
  151DOPC  H11S18069   4.297   3.538  12.563  0.2227  0.7023  1.4797
  151DOPC  C21218070   4.391   3.588  12.364  0.4130 -0.6191 -0.1734
  151DOPC  H12R18071   4.423   3.681  12.313  1.5296  0.0991  1.7395
  151DOPC  H12S18072   4.307   3.553  12.301  1.0576 -3.6016  0.4488
  151DOPC  C21318073   4.504   3.479  12.377  0.5319 -0.3746  0.2790
  151DOPC  H13R18074   4.484   3.405  12.458 -0.3067  1.0326  1.4044
  151DOPC  H13S18075   4.600   3.535  12.387  0.3796 -0.0466 -0.0519
  151DOPC  C21418076   4.509   3.382  12.261 -0.0520 -0.0273  0.9351
  151DOPC  H14R18077   4.424   3.313  12.276  1.1163 -1.4620  1.1471
  151DOPC  H14S18078   4.592   3.309  12.259 -0.8698 -0.9538  0.0398
  151DOPC  C21518079   4.517   3.461  12.130 -0.5370  0.5004 -0.6768
  151DOPC  H15R18080   4.613   3.515  12.119 -0.6159  0.4087 -2.0332
  151DOPC  H15S18081   4.428   3.527  12.117 -2.6757 -2.1964 -0.7866
  151DOPC  C21618082   4.503   3.349  12.020 -0.0788 -0.6600  0.7809
  151DOPC  H16R18083   4.419   3.289  12.060 -0.4784 -1.2541 -0.8789
  151DOPC  H16S18084   4.591   3.282  12.019  0.3544 -0.1134 -0.9842
  151DOPC  C21718085   4.461   3.415  11.888 -0.1508  0.0261 -0.4720
  151DOPC  H17R18086   4.444   3.330  11.819  0.9238 -1.0595  0.5569
  151DOPC  H17S18087   4.559   3.460  11.863  1.7883 -1.7660  3.0772
  151DOPC  C21818088   4.345   3.509  11.880  0.5254 -0.4194  0.3673
  151DOPC  H18R18089   4.323   3.524  11.772 -1.1282 -1.7176  0.4792
  151DOPC  H18S18090   4.369   3.606  11.928  0.4464 -0.9346  1.4764
  151DOPC  H18T18091   4.248   3.475  11.923 -1.2266 -0.4007 -3.1610
  151DOPC   C3318092   4.907   3.625  13.311  0.2638  0.0813 -0.2046
  151DOPC   H3X18093   4.981   3.659  13.387 -0.0180  3.3225 -1.2686
  151DOPC   H3Y18094   4.828   3.701  13.297  0.3106  0.1245 -0.2372
  151DOPC   C3418095   4.979   3.607  13.179  0.2164 -0.0981  0.3406
  151DOPC   H4X18096   4.904   3.579  13.102  0.0669 -0.2995  0.5609
  151DOPC   H4Y18097   5.055   3.525  13.179 -0.9622 -1.2116  0.6266
  151DOPC   C3518098   5.053   3.734  13.142  0.3564 -0.6257 -0.6445
  151DOPC   H5X18099   5.141   3.753  13.207  0.0037  0.8146 -0.5649
  151DOPC   H5Y18100   4.985   3.821  13.130  1.5058  0.2055 -1.2587
  151DOPC   C3618101   5.122   3.719  13.004 -0.4532 -0.4640 -0.8651
  151DOPC   H6X18102   5.204   3.793  12.988  0.8872 -1.1931  2.0575
  151DOPC   H6Y18103   5.182   3.626  13.007  0.5364  0.1744  0.0790
  151DOPC   C3718104   5.034   3.696  12.880  0.3230 -0.4558 -0.0037
  151DOPC   H7X18105   4.995   3.592  12.889 -0.3024 -0.1997  0.2775
  151DOPC   H7Y18106   4.946   3.762  12.891 -1.4029 -2.7180  0.4726
  151DOPC   C3818107   5.105   3.712  12.748  1.1712  0.3310 -0.0182
  151DOPC   H8X18108   5.036   3.667  12.673 -0.5211  1.9805  0.4832
  151DOPC   H8Y18109   5.200   3.656  12.761 -0.0009 -1.5246  1.1080
  151DOPC   C3918110   5.133   3.853  12.714 -0.8360  0.7927  0.4412
  151DOPC   H9X18111   5.192   3.907  12.790  0.9511 -1.1787  0.5525
  151DOPC  C31018112   5.133   3.914  12.588  0.1291 -0.0494 -0.2077
  151DOPC  H10X18113   5.180   4.014  12.580 -1.9160  1.1659  1.7462
  151DOPC  C31118114   5.089   3.851  12.455  0.0265  0.6433  0.8510
  151DOPC  H11X18115   4.987   3.885  12.426  0.8036  1.1595 -1.5024
  151DOPC  H11Y18116   5.073   3.742  12.466 -0.0371  0.1081 -3.1078
  151DOPC  C31218117   5.184   3.877  12.337  0.1160 -0.7609  0.0747
  151DOPC  H12X18118   5.279   3.819  12.345  0.8552  0.5318  1.2527
  151DOPC  H12Y18119   5.218   3.983  12.340 -0.8717 -0.4513  0.6058
  151DOPC  C31318120   5.115   3.845  12.202  0.4516 -0.5147 -0.5744
  151DOPC  H13X18121   5.070   3.744  12.209 -0.2952 -0.0758  1.3855
  151DOPC  H13Y18122   5.030   3.915  12.194  0.1320 -0.9640 -1.2026
  151DOPC  C31418123   5.214   3.846  12.084  0.2472 -0.0678  0.1856
  151DOPC  H14X18124   5.308   3.889  12.124 -0.4660 -0.0100  1.8748
  151DOPC  H14Y18125   5.240   3.742  12.052 -0.8654 -0.3462  0.1355
  151DOPC  C31518126   5.159   3.910  11.957  0.2413 -0.3806  0.1126
  151DOPC  H15X18127   5.116   4.009  11.987  2.0844 -0.0683  1.9645
  151DOPC  H15Y18128   5.072   3.848  11.926 -0.6713  1.2263 -0.6871
  151DOPC  C31618129   5.249   3.909  11.837 -0.3062 -0.6819 -0.1220
  151DOPC  H16X18130   5.221   3.988  11.764 -1.0174  0.3079  1.1814
  151DOPC  H16Y18131   5.353   3.931  11.867 -0.7552  0.2240  0.8329
  151DOPC  C31718132   5.244   3.773  11.767  0.0794  0.1957  0.3225
  151DOPC  H17X18133   5.279   3.692  11.835 -0.2150  1.7449  2.4261
  151DOPC  H17Y18134   5.135   3.754  11.758  0.1242  0.1672 -0.2186
  151DOPC  C31818135   5.310   3.770  11.634 -0.6032 -0.0465 -0.5934
  151DOPC  H18X18136   5.410   3.817  11.645 -0.3470 -0.4366 -1.1625
  151DOPC  H18Y18137   5.320   3.664  11.602 -1.5715 -0.6008  0.8459
  151DOPC  H18Z18138   5.253   3.826  11.557 -1.4538  0.9786  0.7418
  152DOPC     N18139   0.399   1.405  13.473 -0.3701 -0.0460  0.0429
  152DOPC   C1218140   0.249   1.437  13.477 -0.5784  0.4654 -0.3610
  152DOPC  H12A18141   0.219   1.495  13.564 -0.7897  0.4663 -0.4347
  152DOPC  H12B18142   0.189   1.348  13.486 -0.9079  0.6731 -0.4835
  152DOPC   C1318143   0.486   1.531  13.478  0.0678 -0.4565 -0.4672
  152DOPC  H13A18144   0.592   1.510  13.480  0.3192  0.6350 -1.3065
  152DOPC  H13B18145   0.476   1.593  13.391  1.4853  0.1088 -0.2654
  152DOPC  H13C18146   0.463   1.603  13.555  0.8977  1.7532 -2.2118
  152DOPC   C1418147   0.442   1.325  13.354  0.2939  0.9021  0.6049
  152DOPC  H14A18148   0.549   1.321  13.341  0.3685  0.3640  1.2820
  152DOPC  H14B18149   0.394   1.228  13.363 -0.0094  1.0487  0.5942
  152DOPC  H14C18150   0.406   1.381  13.269  0.5556  1.0142  0.5694
  152DOPC   C1518151   0.439   1.340  13.598  0.0708 -0.0663 -0.5223
  152DOPC  H15A18152   0.542   1.306  13.589  0.2970  0.6036 -0.4982
  152DOPC  H15B18153   0.384   1.251  13.623  0.9607  0.2751  3.2698
  152DOPC  H15C18154   0.446   1.414  13.677 -0.4368 -1.0637  0.4940
  152DOPC   C1118155   0.195   1.512  13.353  0.0669  0.1520  0.1240
  152DOPC  H11A18156   0.088   1.531  13.375 -0.0935  0.5682 -0.9777
  152DOPC  H11B18157   0.228   1.618  13.352 -1.4651  0.6660  1.2441
  152DOPC     P18158   0.118   1.340  13.165  0.3019  0.0603  0.3156
  152DOPC   O1318159   0.068   1.248  13.268 -0.7675 -0.2547  0.5228
  152DOPC   O1418160   0.186   1.283  13.051  0.5430  0.2432 -0.2732
  152DOPC   O1218161   0.221   1.437  13.223 -0.0398 -0.6648 -0.0548
  152DOPC   O1118162  -0.005   1.432  13.119 -0.1625 -0.0702  0.0344
  152DOPC    C118163   0.015   1.556  13.054 -0.7495  0.1998 -0.4554
  152DOPC    HA18164   0.062   1.534  12.955  1.7884 -0.2848  0.7612
  152DOPC    HB18165   0.079   1.614  13.124 -1.6269  1.6634 -0.8314
  152DOPC    C218166  -0.124   1.626  13.030 -0.3600  0.0361 -0.3900
  152DOPC    HS18167  -0.181   1.547  12.975  1.4800 -0.7358 -1.2943
  152DOPC   O2118168  -0.103   1.741  12.956  0.8030 -0.4931  0.3184
  152DOPC   C2118169  -0.191   1.771  12.856  0.5059  0.3146 -0.1210
  152DOPC   O2218170  -0.280   1.696  12.824 -0.2611 -0.2778 -0.7441
  152DOPC   C2218171  -0.144   1.898  12.794 -0.4024 -0.1237  0.1352
  152DOPC   H2R18172  -0.066   1.863  12.722 -0.3183  1.6857 -0.7257
  152DOPC   H2S18173  -0.091   1.959  12.870 -3.0642  1.2985  0.9576
  152DOPC    C318174  -0.197   1.655  13.161 -0.1511  0.8123  0.3572
  152DOPC    HX18175  -0.137   1.720  13.229  0.0982  0.1914  0.7416
  152DOPC    HY18176  -0.191   1.558  13.214 -1.5973  0.1126 -0.6923
  152DOPC   O3118177  -0.341   1.684  13.150 -0.1463 -0.1891 -0.0127
  152DOPC   C3118178  -0.359   1.820  13.146  0.1701 -0.0476 -0.3404
  152DOPC   O3218179  -0.269   1.904  13.131 -0.3065  0.0338 -0.1044
  152DOPC   C3218180  -0.507   1.839  13.166 -0.7948 -0.5439 -0.1002
  152DOPC   H2X18181  -0.572   1.768  13.112 -1.9599  0.6189 -0.2864
  152DOPC   H2Y18182  -0.519   1.824  13.276 -0.6004 -1.1033 -0.1544
  152DOPC   C2318183  -0.257   1.989  12.742 -0.6209 -0.0541 -0.0019
  152DOPC   H3R18184  -0.209   2.089  12.738  2.5907 -1.3909  1.4960
  152DOPC   H3S18185  -0.346   1.985  12.809  0.5236  0.9090  1.6590
  152DOPC   C2418186  -0.294   1.953  12.603  0.7535  0.3377 -0.2217
  152DOPC   H4R18187  -0.392   1.998  12.577 -0.0374  0.6187  2.8042
  152DOPC   H4S18188  -0.321   1.845  12.608 -0.7430  0.7207  0.4236
  152DOPC   C2518189  -0.182   1.967  12.487  0.9030  0.4640 -0.1896
  152DOPC   H5R18190  -0.115   1.879  12.499  1.8076  1.0241 -0.9925
  152DOPC   H5S18191  -0.125   2.059  12.510  2.7648 -0.2344 -1.7271
  152DOPC   C2618192  -0.235   1.969  12.341 -0.7490 -0.1145  0.9399
  152DOPC   H6R18193  -0.312   2.048  12.327  0.2608  0.6484 -0.6026
  152DOPC   H6S18194  -0.266   1.867  12.308  0.1076  0.2029 -0.9916
  152DOPC   C2718195  -0.126   1.998  12.234 -0.3831  0.0509  0.0035
  152DOPC   H7R18196  -0.048   1.923  12.261  0.6452  0.9337 -0.4637
  152DOPC   H7S18197  -0.083   2.099  12.248  1.9127 -0.8873  0.1638
  152DOPC   C2818198  -0.175   1.974  12.089  0.9477 -0.7396 -0.2115
  152DOPC   H8R18199  -0.267   2.029  12.061  1.1790 -0.8840 -1.3078
  152DOPC   H8S18200  -0.216   1.871  12.077  0.2448 -0.5511  0.4715
  152DOPC   C2918201  -0.055   2.001  12.000 -0.9117  0.6380 -0.3302
  152DOPC   H9R18202   0.040   2.026  12.049 -1.6632  1.7777  0.6054
  152DOPC  C21018203  -0.054   1.966  11.871  0.7677  0.5284 -0.0130
  152DOPC  H10R18204   0.035   1.974  11.806  1.5830 -0.9512  0.8722
  152DOPC  C21118205  -0.171   1.902  11.793 -0.5025 -0.4519 -0.3537
  152DOPC  H11R18206  -0.256   1.882  11.862  0.3952  1.1383  1.2943
  152DOPC  H11S18207  -0.146   1.806  11.743 -0.3300  0.3740 -1.9174
  152DOPC  C21218208  -0.214   2.000  11.681  0.0323 -0.1631 -0.0523
  152DOPC  H12R18209  -0.242   2.093  11.734  2.1590  0.5255 -0.0876
  152DOPC  H12S18210  -0.298   1.956  11.623  0.7764  0.1254 -1.3980
  152DOPC  C21318211  -0.107   2.043  11.581 -0.0125 -0.1323  0.2468
  152DOPC  H13R18212  -0.032   2.106  11.635  0.2985  1.9247 -2.3737
  152DOPC  H13S18213  -0.152   2.107  11.503  3.1129 -0.1966 -1.7964
  152DOPC  C21418214  -0.047   1.937  11.482  0.1652  0.5798  0.8540
  152DOPC  H14R18215  -0.005   1.858  11.547 -3.2485 -0.8831  1.4872
  152DOPC  H14S18216   0.031   1.996  11.427 -0.9533  2.3047  1.0345
  152DOPC  C21518217  -0.159   1.880  11.389 -0.0815  0.1827 -0.1559
  152DOPC  H15R18218  -0.226   1.960  11.349 -2.6641 -0.9292  1.6318
  152DOPC  H15S18219  -0.238   1.830  11.449  1.3171 -2.5638 -0.4941
  152DOPC  C21618220  -0.114   1.795  11.266 -0.4804 -0.3353 -0.0887
  152DOPC  H16R18221  -0.065   1.860  11.190  2.7054 -0.6219  1.5592
  152DOPC  H16S18222  -0.210   1.757  11.226 -2.8920  2.2853  2.7086
  152DOPC  C21718223  -0.035   1.671  11.294  0.2651  0.5947 -0.1329
  152DOPC  H17R18224  -0.053   1.588  11.222  0.4576 -0.8078  1.3720
  152DOPC  H17S18225  -0.079   1.630  11.387 -2.7096  1.8847 -0.8366
  152DOPC  C21818226   0.116   1.696  11.300 -0.3330  0.0219  0.1063
  152DOPC  H18R18227   0.136   1.770  11.380 -2.1705 -0.7734  1.3405
  152DOPC  H18S18228   0.164   1.713  11.201 -0.0987  1.1455  0.3974
  152DOPC  H18T18229   0.159   1.599  11.331 -1.7903 -0.7901 -0.3142
  152DOPC   C3318230  -0.552   1.982  13.137  0.8244  0.6238 -0.0480
  152DOPC   H3X18231  -0.560   2.014  13.031  1.3130 -0.8294 -0.5474
  152DOPC   H3Y18232  -0.482   2.051  13.189  0.2763  0.6103  0.7252
  152DOPC   C3418233  -0.702   2.004  13.188  0.0831  0.3258 -0.0288
  152DOPC   H4X18234  -0.723   2.109  13.158  2.8870  0.7150 -0.9399
  152DOPC   H4Y18235  -0.719   2.000  13.297  0.8083 -0.4414  0.0736
  152DOPC   C3518236  -0.807   1.910  13.116 -0.6676 -0.1831  0.2723
  152DOPC   H5X18237  -0.777   1.804  13.129  3.5202  0.7382 -0.5267
  152DOPC   H5Y18238  -0.800   1.942  13.010  1.2421 -0.6699  0.2199
  152DOPC   C3618239  -0.945   1.943  13.166 -0.2124  0.0431 -0.3395
  152DOPC   H6X18240  -0.956   1.899  13.267 -2.8643  0.6539 -0.2673
  152DOPC   H6Y18241  -0.965   2.051  13.182  0.9607  0.0028  1.6428
  152DOPC   C3718242  -1.053   1.875  13.092  0.1401 -0.2055  0.9192
  152DOPC   H7X18243  -1.030   1.767  13.091 -0.5141 -0.3980  2.6505
  152DOPC   H7Y18244  -1.150   1.900  13.141  0.7040  0.3273  1.8053
  152DOPC   C3818245  -1.069   1.929  12.943  0.7415  0.0376  0.4753
  152DOPC   H8X18246  -0.974   1.901  12.894  0.1723 -0.9991 -0.0662
  152DOPC   H8Y18247  -1.073   2.040  12.940 -0.2676 -0.0075 -2.2321
  152DOPC   C3918248  -1.185   1.847  12.880 -0.7021 -0.0966  0.0108
  152DOPC   H9X18249  -1.234   1.777  12.949  1.6757 -0.9633  0.9115
  152DOPC  C31018250  -1.230   1.862  12.757  0.4965 -0.4092  0.2736
  152DOPC  H10X18251  -1.307   1.787  12.735  0.7442 -0.3717 -0.8162
  152DOPC  C31118252  -1.197   1.957  12.637  0.5413  0.9254 -1.1106
  152DOPC  H11X18253  -1.123   1.908  12.572 -1.1886 -0.0908 -2.4068
  152DOPC  H11Y18254  -1.158   2.048  12.688 -0.1456  0.3095  0.6059
  152DOPC  C31218255  -1.314   1.993  12.537 -0.1442  0.2122 -0.3850
  152DOPC  H12X18256  -1.263   2.049  12.456  1.0144  2.9003  2.0232
  152DOPC  H12Y18257  -1.384   2.059  12.593 -0.0805  1.2488 -1.4805
  152DOPC  C31318258  -1.375   1.871  12.471  0.1045  0.0479 -0.1507
  152DOPC  H13X18259  -1.290   1.822  12.419  0.4209  0.3587  0.0689
  152DOPC  H13Y18260  -1.412   1.811  12.557 -0.1702  0.2907 -0.0987
  152DOPC  C31418261  -1.485   1.903  12.364  0.2385  0.3789  0.0294
  152DOPC  H14X18262  -1.571   1.939  12.425  0.0590 -1.6305  1.0587
  152DOPC  H14Y18263  -1.446   1.985  12.300  0.0439 -1.1310 -2.1272
  152DOPC  C31518264  -1.523   1.783  12.273 -0.5250  0.3213 -0.2836
  152DOPC  H15X18265  -1.554   1.696  12.334  1.8004 -0.5214 -0.2105
  152DOPC  H15Y18266  -1.424   1.758  12.230  0.0583  1.3162  0.4302
  152DOPC  C31618267  -1.620   1.821  12.163  0.7381  0.3502  0.7661
  152DOPC  H16X18268  -1.637   1.732  12.098 -0.4135 -0.2641  1.8551
  152DOPC  H16Y18269  -1.720   1.836  12.208  0.4424 -1.3300  0.7396
  152DOPC  C31718270  -1.576   1.933  12.069 -0.1792 -0.2368  0.4365
  152DOPC  H17X18271  -1.658   1.933  11.993 -0.9380 -0.3855  1.2351
  152DOPC  H17Y18272  -1.580   2.025  12.131 -0.1664 -0.4648  0.7752
  152DOPC  C31818273  -1.436   1.907  12.007  0.9432  0.3489 -0.1358
  152DOPC  H18X18274  -1.402   1.979  11.930  0.5527  2.1060  1.2500
  152DOPC  H18Y18275  -1.369   1.918  12.096  0.5557  1.2851  0.0550
  152DOPC  H18Z18276  -1.430   1.805  11.964  0.5787  0.8647 -1.4386
  153DOPC     N18277   2.202   1.866  13.311  0.9477  0.2322 -1.1090
  153DOPC   C1218278   2.164   1.958  13.200 -0.5588 -0.0508 -0.1068
  153DOPC  H12A18279   2.256   1.983  13.149  0.3108 -1.0513  0.9134
  153DOPC  H12B18280   2.134   2.055  13.238 -1.1415 -0.9421  1.8267
  153DOPC   C1318281   2.097   1.852  13.419 -0.0755 -0.1338  0.2904
  153DOPC  H13A18282   2.010   1.808  13.371  0.7259 -1.2289 -0.2147
  153DOPC  H13B18283   2.131   1.787  13.499  0.7177 -0.6586 -0.4602
  153DOPC  H13C18284   2.060   1.945  13.459  1.7978  0.1519  1.4932
  153DOPC   C1418285   2.331   1.931  13.374  1.0754  0.0149  0.3252
  153DOPC  H14A18286   2.307   2.035  13.391  0.8298 -0.2044  1.4349
  153DOPC  H14B18287   2.338   1.888  13.473 -1.5279  2.1344  1.5612
  153DOPC  H14C18288   2.416   1.916  13.310 -0.5003 -2.3988 -1.3863
  153DOPC   C1518289   2.241   1.732  13.261  0.2187  0.7573 -0.4261
  153DOPC  H15A18290   2.309   1.746  13.179  0.2091  0.9474 -0.4025
  153DOPC  H15B18291   2.153   1.680  13.227 -0.1419 -0.6870  2.4381
  153DOPC  H15C18292   2.296   1.670  13.331  0.8925  1.6203 -0.1642
  153DOPC   C1118293   2.065   1.902  13.110  0.2483 -0.6194  0.5068
  153DOPC  H11A18294   2.051   1.951  13.011 -0.1966  2.6632  2.0603
  153DOPC  H11B18295   2.093   1.803  13.070  0.5749 -1.0799  1.8423
  153DOPC     P18296   1.855   2.016  13.222 -0.4691 -0.2286  0.0854
  153DOPC   O1318297   1.914   2.076  13.338 -0.0746  0.2859  0.2500
  153DOPC   O1418298   1.713   1.975  13.228 -0.2365  0.5008  0.3860
  153DOPC   O1218299   1.942   1.885  13.177 -0.2844 -0.5029 -0.4712
  153DOPC   O1118300   1.870   2.125  13.109  0.2267  0.4737 -0.2895
  153DOPC    C118301   1.751   2.170  13.036  0.1826  0.1819 -0.0904
  153DOPC    HA18302   1.748   2.276  13.002  1.6865  0.2288 -0.1648
  153DOPC    HB18303   1.655   2.161  13.091  0.8269 -0.1084  1.0220
  153DOPC    C218304   1.751   2.075  12.909  0.2679  0.0562 -0.3915
  153DOPC    HS18305   1.744   1.968  12.935  0.5721 -0.0959 -0.9107
  153DOPC   O2118306   1.873   2.100  12.833 -0.0231 -0.0050  0.1942
  153DOPC   C2118307   1.896   2.006  12.736  0.1032 -0.2091  0.0307
  153DOPC   O2218308   1.854   1.896  12.732  0.5730  0.5382  0.7469
  153DOPC   C2218309   2.009   2.061  12.647  0.2328  0.1034  0.2978
  153DOPC   H2R18310   2.090   1.986  12.637  1.8656  1.6659  1.3226
  153DOPC   H2S18311   2.052   2.153  12.691 -2.3340  0.8220  1.5266
  153DOPC    C318312   1.631   2.117  12.821 -0.2290  0.1336  0.0652
  153DOPC    HX18313   1.644   2.222  12.788 -0.3963  0.0245 -0.3546
  153DOPC    HY18314   1.537   2.116  12.882 -0.4913  1.4159 -0.2878
  153DOPC   O3118315   1.619   2.031  12.709 -0.4575 -0.0261  0.5413
  153DOPC   C3118316   1.518   1.955  12.697 -0.0926  0.1593  0.2808
  153DOPC   O3218317   1.421   1.949  12.775 -0.0442  0.2947  0.0886
  153DOPC   C3218318   1.534   1.857  12.587 -0.0767  0.0829  0.7550
  153DOPC   H2X18319   1.612   1.783  12.618 -0.0142  0.1772  0.8218
  153DOPC   H2Y18320   1.442   1.798  12.569 -0.6635  1.0649  0.5168
  153DOPC   C2318321   1.949   2.084  12.507 -0.1694  0.1170  0.6653
  153DOPC   H3R18322   1.862   2.153  12.504 -0.1302  0.3072  2.6381
  153DOPC   H3S18323   1.911   1.989  12.464 -2.8498  0.7943  1.3415
  153DOPC   C2418324   2.057   2.122  12.406  0.2893 -0.3710  0.0455
  153DOPC   H4R18325   2.148   2.060  12.421  0.9626  0.7287  0.6168
  153DOPC   H4S18326   2.083   2.228  12.427 -1.1201 -0.0245  0.1691
  153DOPC   C2518327   2.004   2.104  12.265  0.3250  0.3298 -0.2276
  153DOPC   H5R18328   1.915   2.170  12.255 -1.8354 -2.6436 -2.3218
  153DOPC   H5S18329   1.968   2.001  12.247 -2.3253  0.7331  2.1518
  153DOPC   C2618330   2.109   2.145  12.161 -0.0156  0.1478 -0.0797
  153DOPC   H6R18331   2.188   2.069  12.181 -0.0183  0.7856  2.7713
  153DOPC   H6S18332   2.139   2.251  12.175 -0.3972  0.3230 -0.5708
  153DOPC   C2718333   2.074   2.126  12.011  0.3152  0.1460 -0.0869
  153DOPC   H7R18334   1.995   2.202  11.993 -0.7622 -0.2629  2.3574
  153DOPC   H7S18335   2.015   2.032  11.998  0.8615 -0.1996 -0.1041
  153DOPC   C2818336   2.194   2.133  11.930 -0.1204 -0.3873  0.2447
  153DOPC   H8R18337   2.185   2.091  11.827  0.4786 -0.6067  0.2736
  153DOPC   H8S18338   2.274   2.069  11.973  1.5199  0.8399 -0.8319
  153DOPC   C2918339   2.232   2.283  11.913  0.4285 -0.0602  0.2775
  153DOPC   H9R18340   2.189   2.349  11.990 -1.3929 -1.2016  0.2990
  153DOPC  C21018341   2.278   2.349  11.805  0.0168 -0.1318 -0.0452
  153DOPC  H10R18342   2.287   2.458  11.811 -2.4793  0.0855  1.1393
  153DOPC  C21118343   2.305   2.283  11.675  0.1701 -0.1246  0.4250
  153DOPC  H11R18344   2.310   2.174  11.698 -3.1260 -0.6769 -0.7979
  153DOPC  H11S18345   2.390   2.331  11.623  0.2267 -1.3505 -0.6768
  153DOPC  C21218346   2.187   2.303  11.570 -1.0743  0.2217  1.2648
  153DOPC  H12R18347   2.171   2.407  11.534 -1.3809 -0.4902 -0.8152
  153DOPC  H12S18348   2.092   2.250  11.595  0.6922 -3.4294  1.0074
  153DOPC  C21318349   2.238   2.241  11.434 -0.1815 -0.0708 -0.1680
  153DOPC  H13R18350   2.241   2.132  11.457  1.0960  0.3146  1.6967
  153DOPC  H13S18351   2.341   2.278  11.419 -0.5285  0.1205 -2.4727
  153DOPC  C21418352   2.157   2.262  11.311 -0.0904  0.3231 -0.1756
  153DOPC  H14R18353   2.055   2.249  11.351 -0.1567  2.3099  0.4156
  153DOPC  H14S18354   2.185   2.182  11.239  0.7665  0.7280 -0.3126
  153DOPC  C21518355   2.155   2.410  11.254  0.5759 -0.0377  0.3070
  153DOPC  H15R18356   2.110   2.479  11.329  1.2557  1.7025 -0.8119
  153DOPC  H15S18357   2.092   2.411  11.163 -1.9703  1.8540  1.9542
  153DOPC  C21618358   2.293   2.455  11.216 -0.2494 -0.1331 -0.6142
  153DOPC  H16R18359   2.342   2.375  11.157  0.2897 -1.2432  1.2549
  153DOPC  H16S18360   2.350   2.464  11.311  1.3275  1.1385 -1.6173
  153DOPC  C21718361   2.304   2.602  11.145 -0.5775  0.2384  0.4592
  153DOPC  H17R18362   2.243   2.674  11.203 -0.6590 -0.6399  1.4962
  153DOPC  H17S18363   2.253   2.592  11.046 -1.5893 -0.9851  1.0740
  153DOPC  C21818364   2.449   2.664  11.139  1.1285 -0.7646  0.0923
  153DOPC  H18R18365   2.456   2.763  11.090  1.3435 -0.2479  1.1234
  153DOPC  H18S18366   2.520   2.602  11.081  1.6336 -1.4039  1.3453
  153DOPC  H18T18367   2.494   2.682  11.240 -0.8423  0.2405  0.8373
  153DOPC   C3318368   1.587   1.922  12.456  0.8242  0.0030  0.5717
  153DOPC   H3X18369   1.608   1.829  12.399  0.5912 -0.3795  1.1044
  153DOPC   H3Y18370   1.687   1.969  12.467  1.4988 -1.6669  1.9204
  153DOPC   C3418371   1.478   1.986  12.372 -0.2209 -0.5371  0.3002
  153DOPC   H4X18372   1.458   2.091  12.404  0.4328  0.0981 -1.2540
  153DOPC   H4Y18373   1.385   1.927  12.388  0.4535 -1.1697  2.0659
  153DOPC   C3518374   1.506   1.989  12.219 -0.3483  0.0453  0.0267
  153DOPC   H5X18375   1.413   2.021  12.167 -1.2791 -0.6882  1.1841
  153DOPC   H5Y18376   1.538   1.893  12.173 -0.7138  0.0964 -0.3412
  153DOPC   C3618377   1.627   2.085  12.184 -0.3782  0.6511 -0.1991
  153DOPC   H6X18378   1.594   2.191  12.193  0.5717  0.9976 -0.6914
  153DOPC   H6Y18379   1.708   2.063  12.256 -1.4498  0.6516  1.0604
  153DOPC   C3718380   1.682   2.071  12.041  1.0417  0.5256  0.2948
  153DOPC   H7X18381   1.770   2.134  12.016  0.4983  1.2498  0.1988
  153DOPC   H7Y18382   1.712   1.964  12.042 -0.6072  0.0207 -0.4638
  153DOPC   C3818383   1.580   2.098  11.932  0.0041  0.3675 -0.2542
  153DOPC   H8X18384   1.574   2.208  11.915 -2.0326  0.5461  1.2411
  153DOPC   H8Y18385   1.479   2.061  11.959 -0.8050  1.3182 -1.8295
  153DOPC   C3918386   1.622   2.035  11.803 -1.0003  1.1008 -0.0201
  153DOPC   H9X18387   1.591   1.930  11.799  1.4734  0.3259 -0.4907
  153DOPC  C31018388   1.689   2.088  11.696  0.4928  0.2533  0.1094
  153DOPC  H10X18389   1.702   2.022  11.609 -3.6975  0.4830 -0.9250
  153DOPC  C31118390   1.735   2.232  11.675  0.3771  0.6820 -0.0407
  153DOPC  H11X18391   1.837   2.239  11.720  2.0315 -0.4249 -3.2388
  153DOPC  H11Y18392   1.676   2.315  11.718 -0.5820  0.5091 -0.9736
  153DOPC  C31218393   1.759   2.246  11.522  0.1192 -0.1353  0.0247
  153DOPC  H12X18394   1.684   2.181  11.473 -1.7275 -0.4930  3.0616
  153DOPC  H12Y18395   1.863   2.218  11.494 -0.9320 -1.5831 -2.7196
  153DOPC  C31318396   1.727   2.387  11.475 -0.2711  0.1497 -0.9256
  153DOPC  H13X18397   1.635   2.429  11.520  0.6748  2.0407 -0.6196
  153DOPC  H13Y18398   1.806   2.460  11.507 -1.2460  0.2043  1.5955
  153DOPC  C31418399   1.725   2.394  11.324  0.4131  0.3058 -1.3567
  153DOPC  H14X18400   1.831   2.405  11.294  1.4001 -0.7832  1.3472
  153DOPC  H14Y18401   1.679   2.306  11.274 -1.3857  0.5442 -0.2323
  153DOPC  C31518402   1.650   2.521  11.289  0.3361  0.1312 -0.2378
  153DOPC  H15X18403   1.674   2.609  11.352  2.0823 -1.6905  1.7968
  153DOPC  H15Y18404   1.543   2.494  11.304  0.0541 -0.2272 -2.5154
  153DOPC  C31618405   1.679   2.558  11.137 -0.0384  0.0089  0.4689
  153DOPC  H16X18406   1.773   2.616  11.124  0.2228 -0.8129 -1.9477
  153DOPC  H16Y18407   1.685   2.460  11.084  0.2728  1.2506 -1.9169
  153DOPC  C31718408   1.576   2.665  11.095  0.3657 -0.5801  0.4527
  153DOPC  H17X18409   1.472   2.637  11.126 -0.2228  1.7809  0.7942
  153DOPC  H17Y18410   1.591   2.766  11.139 -0.4654  0.8434 -2.3295
  153DOPC  C31818411   1.566   2.675  10.938  0.3359  0.1981 -0.4428
  153DOPC  H18X18412   1.645   2.741  10.897  0.6753  0.5620  0.7580
  153DOPC  H18Y18413   1.589   2.577  10.890  1.2943  0.1586  0.0708
  153DOPC  H18Z18414   1.465   2.711  10.908 -0.7318 -0.1974  2.4255
  154DOPC     N18415   2.838   3.869  14.909 -0.3932  0.0329  0.0247
  154DOPC   C1218416   2.710   3.876  14.828 -0.2449 -0.5205  0.0892
  154DOPC  H12A18417   2.681   3.980  14.826  0.3172 -0.3770 -0.5431
  154DOPC  H12B18418   2.627   3.820  14.870 -0.5929  0.1281  0.2826
  154DOPC   C1318419   2.821   3.929  15.049 -0.3978  0.7380  0.1788
  154DOPC  H13A18420   2.902   3.889  15.109  1.0836  0.7338 -1.7231
  154DOPC  H13B18421   2.812   4.036  15.047 -0.9947  0.7182  1.2188
  154DOPC  H13C18422   2.729   3.896  15.094  0.2422 -3.9825 -1.4137
  154DOPC   C1418423   2.948   3.932  14.844  0.4787 -0.2162  0.0127
  154DOPC  H14A18424   2.915   4.033  14.822  4.6324  1.2936 -0.2476
  154DOPC  H14B18425   3.046   3.939  14.890  0.1835 -2.2563  1.0737
  154DOPC  H14C18426   2.974   3.888  14.750  0.1509 -0.9781  0.2732
  154DOPC   C1518427   2.874   3.725  14.927 -0.3829 -0.0715 -0.8731
  154DOPC  H15A18428   2.900   3.673  14.836  4.0334 -0.8712  0.5841
  154DOPC  H15B18429   2.788   3.676  14.971 -1.9795  2.9558 -0.3842
  154DOPC  H15C18430   2.955   3.709  14.996 -1.3552  0.0256  0.3306
  154DOPC   C1118431   2.708   3.838  14.681  0.3798 -0.0364  0.1085
  154DOPC  H11A18432   2.736   3.735  14.651 -1.8934 -0.0992 -2.0659
  154DOPC  H11B18433   2.603   3.840  14.645  0.4429  1.3308 -0.0527
  154DOPC     P18434   2.740   4.075  14.579  0.0175 -0.2199 -0.1511
  154DOPC   O1318435   2.848   4.154  14.517 -0.5286 -0.6528 -0.1495
  154DOPC   O1418436   2.682   4.132  14.706  0.7799  0.2674  1.0222
  154DOPC   O1218437   2.798   3.928  14.603  0.9807 -0.2955 -0.2139
  154DOPC   O1118438   2.617   4.052  14.482 -0.3463  1.0484 -0.3920
  154DOPC    C118439   2.625   3.976  14.361 -0.0645  0.2226 -0.1999
  154DOPC    HA18440   2.558   3.887  14.359  1.5520 -1.0329 -1.1254
  154DOPC    HB18441   2.722   3.927  14.341 -0.5249 -0.1359 -1.6083
  154DOPC    C218442   2.579   4.049  14.237  0.8784  0.4583  0.4206
  154DOPC    HS18443   2.472   4.073  14.257  0.8578 -0.6738  1.7837
  154DOPC   O2118444   2.610   3.967  14.123 -0.1134 -0.3786 -0.4022
  154DOPC   C2118445   2.513   3.961  14.028 -0.3711 -0.2558 -1.2017
  154DOPC   O2218446   2.409   4.022  14.034  0.2083  0.4286 -0.3106
  154DOPC   C2218447   2.563   3.872  13.918 -0.7507 -0.6954 -0.0351
  154DOPC   H2R18448   2.625   3.789  13.957  2.2845  0.3092 -2.3110
  154DOPC   H2S18449   2.631   3.942  13.864 -1.0098 -0.9348 -0.6877
  154DOPC    C318450   2.653   4.183  14.222 -0.6472  0.2373  0.1307
  154DOPC    HX18451   2.762   4.170  14.201  0.0158  2.7585  1.5818
  154DOPC    HY18452   2.657   4.231  14.323 -0.1232 -1.7904  1.1177
  154DOPC   O3118453   2.597   4.260  14.122  0.0741 -0.3505 -0.2511
  154DOPC   C3118454   2.658   4.256  13.997 -0.5349 -0.5320 -0.1309
  154DOPC   O3218455   2.768   4.206  13.976 -0.3448  0.3595  0.3128
  154DOPC   C3218456   2.575   4.329  13.901 -0.4603 -0.2261  0.1358
  154DOPC   H2X18457   2.471   4.299  13.928 -0.0568 -1.6070  0.1912
  154DOPC   H2Y18458   2.590   4.439  13.910 -0.5033 -0.1735 -0.3836
  154DOPC   C2318459   2.444   3.822  13.838 -0.3875  0.4842  0.6659
  154DOPC   H3R18460   2.359   3.789  13.902  1.1654  1.2577  3.2754
  154DOPC   H3S18461   2.471   3.733  13.778 -2.4790  1.7400 -2.3949
  154DOPC   C2418462   2.395   3.922  13.733  0.4713  0.6318  0.4464
  154DOPC   H4R18463   2.373   4.020  13.779  0.1390  1.4145 -1.3073
  154DOPC   H4S18464   2.297   3.885  13.696  0.7503  3.3231 -3.6898
  154DOPC   C2518465   2.497   3.935  13.619 -0.2235  0.4244 -0.3888
  154DOPC   H5R18466   2.533   3.832  13.594  0.3144  0.2303  1.0474
  154DOPC   H5S18467   2.583   3.998  13.651  0.1660 -0.1973 -0.1841
  154DOPC   C2618468   2.446   4.012  13.496 -0.3695  0.6061 -0.0547
  154DOPC   H6R18469   2.388   4.106  13.512 -0.9154  0.3443 -0.4736
  154DOPC   H6S18470   2.382   3.933  13.451  2.1469 -0.2132 -2.4725
  154DOPC   C2718471   2.557   4.047  13.394  0.0785 -0.8214 -0.6241
  154DOPC   H7R18472   2.594   3.952  13.351  0.8899 -0.4185 -0.8461
  154DOPC   H7S18473   2.640   4.100  13.445 -1.7190  2.9204 -1.1759
  154DOPC   C2818474   2.501   4.130  13.278  0.3827 -0.4331 -0.4091
  154DOPC   H8R18475   2.586   4.159  13.213  0.0348  1.4582 -0.0650
  154DOPC   H8S18476   2.468   4.223  13.328 -1.0545 -2.0432  1.8619
  154DOPC   C2918477   2.392   4.069  13.196 -0.5494 -0.0725  0.1333
  154DOPC   H9R18478   2.313   4.018  13.253  0.2981 -2.5225 -0.7564
  154DOPC  C21018479   2.388   4.069  13.061 -0.0171  0.3200  0.4096
  154DOPC  H10R18480   2.303   4.023  13.010  1.1675  1.4500 -2.8242
  154DOPC  C21118481   2.499   4.121  12.968  0.3770 -0.2831  0.0666
  154DOPC  H11R18482   2.578   4.168  13.030  0.1581  0.9417 -0.5528
  154DOPC  H11S18483   2.454   4.205  12.911 -0.1358 -0.1318  0.6895
  154DOPC  C21218484   2.552   4.010  12.877 -0.0084 -0.0694  0.1492
  154DOPC  H12R18485   2.581   3.921  12.938 -2.7526 -2.3941 -1.6390
  154DOPC  H12S18486   2.637   4.054  12.822 -1.1701 -0.0106 -1.6790
  154DOPC  C21318487   2.437   3.968  12.782  0.3453 -0.8010  0.6223
  154DOPC  H13R18488   2.349   4.037  12.778  1.5106  0.6976 -0.4294
  154DOPC  H13S18489   2.408   3.866  12.814 -1.9315 -0.3607  0.1287
  154DOPC  C21418490   2.485   3.974  12.632  0.2703 -0.1225  0.2988
  154DOPC  H14R18491   2.573   3.907  12.616 -0.9124 -1.3397 -1.5286
  154DOPC  H14S18492   2.516   4.080  12.625 -1.8043  0.4998 -0.0895
  154DOPC  C21518493   2.365   3.951  12.539 -0.4183  0.5327  1.0952
  154DOPC  H15R18494   2.281   4.017  12.571 -0.5891  1.9016 -1.7764
  154DOPC  H15S18495   2.329   3.847  12.545  0.0885  0.3111  0.4336
  154DOPC  C21618496   2.388   3.987  12.390 -0.0838  0.1949  0.5033
  154DOPC  H16R18497   2.300   3.952  12.333 -0.9528  0.9276  1.3498
  154DOPC  H16S18498   2.479   3.942  12.344  1.7793  3.2648  0.8651
  154DOPC  C21718499   2.400   4.142  12.377 -0.7080  0.2298 -0.3695
  154DOPC  H17R18500   2.501   4.164  12.418 -0.9875 -1.3727  1.3432
  154DOPC  H17S18501   2.312   4.188  12.426 -2.2571 -1.4007 -1.4990
  154DOPC  C21818502   2.389   4.190  12.235  0.9519  0.2067 -0.3220
  154DOPC  H18R18503   2.395   4.301  12.226  2.6747  0.0281 -2.1570
  154DOPC  H18S18504   2.291   4.162  12.192  1.7398 -2.9919 -0.2767
  154DOPC  H18T18505   2.478   4.150  12.181  1.6441 -1.3278  1.8483
  154DOPC   C3318506   2.599   4.292  13.747 -0.6147  0.2142 -0.2759
  154DOPC   H3X18507   2.505   4.309  13.690 -1.3765 -0.1838  0.8366
  154DOPC   H3Y18508   2.618   4.184  13.726 -1.5017  0.2576 -1.4115
  154DOPC   C3418509   2.723   4.377  13.692  0.5345  0.6468  0.6004
  154DOPC   H4X18510   2.801   4.382  13.772 -0.1175 -2.8326  1.6187
  154DOPC   H4Y18511   2.682   4.480  13.691 -2.2218 -0.1794 -4.5626
  154DOPC   C3518512   2.775   4.325  13.557 -0.4712  0.7014 -0.2595
  154DOPC   H5X18513   2.685   4.287  13.504 -0.9238  0.3029  0.7713
  154DOPC   H5Y18514   2.845   4.239  13.557  1.1634  1.9758 -0.4078
  154DOPC   C3618515   2.819   4.447  13.474 -0.0844  0.4849  0.0253
  154DOPC   H6X18516   2.737   4.522  13.464  0.2299  0.7051 -1.0933
  154DOPC   H6Y18517   2.905   4.497  13.524  0.5442  0.9424 -1.4383
  154DOPC   C3718518   2.862   4.405  13.324  1.0814  0.5768 -0.0381
  154DOPC   H7X18519   2.940   4.474  13.285  1.5864 -0.3468 -0.6918
  154DOPC   H7Y18520   2.902   4.302  13.335  2.2827  0.9441 -0.7898
  154DOPC   C3818521   2.742   4.415  13.219 -0.0450  0.1129 -0.1636
  154DOPC   H8X18522   2.725   4.521  13.192 -2.6881 -0.0454  0.5644
  154DOPC   H8Y18523   2.655   4.378  13.278  0.3167  0.3111  0.4911
  154DOPC   C3918524   2.779   4.323  13.103  0.3489 -0.4206  0.2669
  154DOPC   H9X18525   2.790   4.217  13.131  1.2495 -0.0990  1.1731
  154DOPC  C31018526   2.789   4.359  12.970 -0.0420  0.1089 -0.2788
  154DOPC  H10X18527   2.812   4.277  12.902  5.3628  0.6653  0.4309
  154DOPC  C31118528   2.772   4.496  12.914 -0.8087  0.3061  1.3016
  154DOPC  H11X18529   2.860   4.533  12.856 -1.7317  2.7746  1.3665
  154DOPC  H11Y18530   2.748   4.562  13.000  1.1245  0.0141  2.1141
  154DOPC  C31218531   2.651   4.497  12.817  0.1235  0.3592  0.6812
  154DOPC  H12X18532   2.631   4.600  12.783  2.2148  0.6383  0.1674
  154DOPC  H12Y18533   2.570   4.462  12.885  0.0371 -0.8547 -0.0075
  154DOPC  C31318534   2.674   4.403  12.694 -0.2574 -0.0094  0.4094
  154DOPC  H13X18535   2.775   4.432  12.658  0.6224  0.8113  3.2974
  154DOPC  H13Y18536   2.672   4.297  12.726  1.1502 -0.4449 -0.8179
  154DOPC  C31418537   2.564   4.417  12.587 -0.1565 -0.3563  0.4183
  154DOPC  H14X18538   2.595   4.336  12.518 -1.3451 -0.4605 -0.0266
  154DOPC  H14Y18539   2.462   4.387  12.622 -0.6464 -0.7750 -1.2828
  154DOPC  C31518540   2.564   4.538  12.503  0.1152 -1.4432 -0.5353
  154DOPC  H15X18541   2.541   4.630  12.561 -2.6747 -2.6031  0.3712
  154DOPC  H15Y18542   2.472   4.535  12.441 -1.3139  2.5236  1.0299
  154DOPC  C31618543   2.688   4.555  12.413  0.9111  0.4678 -0.5119
  154DOPC  H16X18544   2.779   4.570  12.475  1.1124  1.2055 -0.9693
  154DOPC  H16Y18545   2.688   4.457  12.360 -1.9124 -1.3301  2.4154
  154DOPC  C31718546   2.665   4.667  12.309  0.3260  0.2233  0.2593
  154DOPC  H17X18547   2.644   4.760  12.366  1.4034 -0.1924  1.3749
  154DOPC  H17Y18548   2.763   4.675  12.257 -0.3100 -0.1969 -1.0348
  154DOPC  C31818549   2.554   4.643  12.206  0.1414 -0.0812  0.8557
  154DOPC  H18X18550   2.453   4.628  12.250 -1.4028  0.2029 -2.2852
  154DOPC  H18Y18551   2.551   4.722  12.128  2.2294 -1.0627 -0.3002
  154DOPC  H18Z18552   2.575   4.548  12.153  0.3793  0.0549  0.7088
  155DOPC     N18553   5.123   3.492  14.462 -0.1995  0.5615 -0.1735
  155DOPC   C1218554   5.082   3.501  14.314  0.1939 -0.3344 -0.3111
  155DOPC  H12A18555   5.144   3.576  14.268  1.4613 -1.1805 -0.0569
  155DOPC  H12B18556   4.985   3.547  14.312  0.1425 -0.4627 -0.7108
  155DOPC   C1318557   5.265   3.442  14.470  0.3974 -0.0080 -0.3441
  155DOPC  H13A18558   5.333   3.503  14.413  1.4698 -0.6488  0.2073
  155DOPC  H13B18559   5.304   3.453  14.570  0.6925  0.2367 -0.4813
  155DOPC  H13C18560   5.272   3.339  14.436 -1.6320 -0.5577  0.7609
  155DOPC   C1418561   5.042   3.392  14.540 -0.2682 -0.7505 -0.3649
  155DOPC  H14A18562   5.077   3.383  14.642  1.6595 -1.6665 -1.0566
  155DOPC  H14B18563   4.939   3.425  14.540  0.1485  0.6133 -0.2527
  155DOPC  H14C18564   5.047   3.294  14.495 -0.8645 -0.0672 -1.9970
  155DOPC   C1518565   5.110   3.629  14.528  0.8524  0.2015  0.7695
  155DOPC  H15A18566   5.178   3.701  14.487  0.9294  0.9227  2.1137
  155DOPC  H15B18567   5.131   3.615  14.633  0.1380 -2.7735  0.5961
  155DOPC  H15C18568   5.012   3.668  14.503  2.2510  0.9297 -5.1110
  155DOPC   C1118569   5.060   3.386  14.228 -0.1739  0.0206 -0.1879
  155DOPC  H11A18570   4.991   3.323  14.288 -0.6272  0.3348 -0.3743
  155DOPC  H11B18571   5.001   3.405  14.136 -1.9774 -1.5409  0.5675
  155DOPC     P18572   5.278   3.355  14.104  0.2420 -0.3513 -0.1867
  155DOPC   O1318573   5.394   3.262  14.097 -0.2249  0.0179 -0.5351
  155DOPC   O1418574   5.312   3.493  14.137  0.4663 -0.5278 -0.3502
  155DOPC   O1218575   5.170   3.306  14.199  0.1357  0.8546 -0.2661
  155DOPC   O1118576   5.208   3.362  13.958 -0.0388 -0.0259 -0.1852
  155DOPC    C118577   5.183   3.256  13.870 -0.7135 -0.6098 -0.2703
  155DOPC    HA18578   5.084   3.263  13.819 -1.6995 -1.4905  1.4278
  155DOPC    HB18579   5.180   3.162  13.929 -1.1642  0.3442  1.3167
  155DOPC    C218580   5.297   3.258  13.770  0.2640 -0.7076  0.6588
  155DOPC    HS18581   5.389   3.271  13.831 -0.9683  0.4012  2.3556
  155DOPC   O2118582   5.268   3.365  13.678 -0.1290  0.5293  0.5153
  155DOPC   C2118583   5.380   3.410  13.612 -0.1211 -0.0487 -0.3769
  155DOPC   O2218584   5.495   3.378  13.627 -1.0112 -0.0044 -0.7891
  155DOPC   C2218585   5.330   3.525  13.523 -0.3904  0.4590 -0.0198
  155DOPC   H2R18586   5.293   3.600  13.596 -1.0093  0.5755 -0.4371
  155DOPC   H2S18587   5.243   3.495  13.461 -0.1446 -0.6319  0.1459
  155DOPC    C318588   5.297   3.116  13.697  0.2927  0.6345  0.2318
  155DOPC    HX18589   5.293   3.040  13.778  1.2805  1.0918  0.7141
  155DOPC    HY18590   5.393   3.102  13.645 -0.9143 -0.0099 -1.9491
  155DOPC   O3118591   5.179   3.100  13.618  0.1461  0.2510 -0.4124
  155DOPC   C3118592   5.194   3.094  13.484 -0.4285  0.7465 -0.0677
  155DOPC   O3218593   5.302   3.086  13.425  0.3320 -0.1586 -0.0138
  155DOPC   C3218594   5.057   3.064  13.423 -0.2974  0.4512  0.7285
  155DOPC   H2X18595   5.026   2.965  13.464 -0.8462  0.2282 -0.1904
  155DOPC   H2Y18596   4.992   3.148  13.454 -0.7521  0.4380 -0.1482
  155DOPC   C2318597   5.433   3.606  13.437 -0.3065  0.6793  0.6824
  155DOPC   H3R18598   5.496   3.662  13.509  0.7909  1.8984 -1.1674
  155DOPC   H3S18599   5.367   3.673  13.377  0.5327  2.5024  1.7270
  155DOPC   C2418600   5.522   3.524  13.336 -0.2952  0.2739  0.1914
  155DOPC   H4R18601   5.594   3.463  13.394  0.0214  1.3262  0.9131
  155DOPC   H4S18602   5.579   3.602  13.280  2.0975 -1.1389  0.5184
  155DOPC   C2518603   5.431   3.447  13.250  0.0647  0.9066  0.5197
  155DOPC   H5R18604   5.347   3.514  13.223 -0.4234  1.1165  2.3926
  155DOPC   H5S18605   5.390   3.368  13.316 -1.4420  1.9418  0.8606
  155DOPC   C2618606   5.495   3.384  13.119 -0.0210  0.0418  0.4728
  155DOPC   H6R18607   5.414   3.322  13.075 -0.2035  0.6010 -0.0030
  155DOPC   H6S18608   5.582   3.321  13.145  1.4375  2.0976  0.8396
  155DOPC   C2718609   5.540   3.497  13.016  0.2389  0.9655 -0.4555
  155DOPC   H7R18610   5.649   3.513  13.028  0.6217  0.2336 -2.5162
  155DOPC   H7S18611   5.481   3.586  13.045 -3.3899 -1.3275 -0.1547
  155DOPC   C2818612   5.502   3.468  12.875  0.5082  0.1277 -0.1501
  155DOPC   H8R18613   5.523   3.564  12.822 -1.1952  0.7651  0.2597
  155DOPC   H8S18614   5.392   3.454  12.868  0.3700  1.6116 -1.7592
  155DOPC   C2918615   5.576   3.365  12.810  0.7309  1.0622 -0.7439
  155DOPC   H9R18616   5.656   3.337  12.880  0.1499  1.8943  0.2697
  155DOPC  C21018617   5.582   3.318  12.686  0.1928  0.0581  0.3443
  155DOPC  H10R18618   5.648   3.235  12.659  0.4616  0.4265 -0.1310
  155DOPC  C21118619   5.489   3.371  12.575 -0.3555 -0.2914 -0.0640
  155DOPC  H11R18620   5.397   3.417  12.616  0.5700  1.8107 -0.2084
  155DOPC  H11S18621   5.454   3.284  12.516 -0.5677  0.2190 -0.6931
  155DOPC  C21218622   5.563   3.480  12.490  0.0912 -0.1918 -0.4713
  155DOPC  H12R18623   5.671   3.461  12.471  0.1422 -1.0018  0.5809
  155DOPC  H12S18624   5.574   3.569  12.556 -0.5207 -2.4414  2.8917
  155DOPC  C21318625   5.486   3.531  12.366  0.2084  0.3819  1.0562
  155DOPC  H13R18626   5.387   3.566  12.401  0.5770  1.5714  0.9779
  155DOPC  H13S18627   5.472   3.451  12.291  0.5155  0.1970  1.1958
  155DOPC  C21418628   5.551   3.644  12.291 -0.2127 -0.0031  0.1940
  155DOPC  H14R18629   5.586   3.727  12.357  2.3328 -0.4333 -0.4780
  155DOPC  H14S18630   5.473   3.692  12.228 -0.7901 -0.7575  0.3220
  155DOPC  C21518631   5.669   3.605  12.199  0.0969  0.1784 -0.1545
  155DOPC  H15R18632   5.749   3.544  12.247  0.1258 -0.0571 -0.5043
  155DOPC  H15S18633   5.716   3.701  12.166 -0.0034  0.5579  0.7581
  155DOPC  C21618634   5.629   3.537  12.071 -0.0751  0.4246 -0.0332
  155DOPC  H16R18635   5.567   3.445  12.074 -1.2750  1.0765 -2.4801
  155DOPC  H16S18636   5.728   3.522  12.022  0.1171  0.2911  0.3953
  155DOPC  C21718637   5.548   3.627  11.970 -0.0830 -0.2370 -0.2041
  155DOPC  H17R18638   5.461   3.670  12.025  1.3804  1.9261  0.5391
  155DOPC  H17S18639   5.511   3.559  11.891 -0.7963  0.0952 -0.1747
  155DOPC  C21818640   5.625   3.736  11.911  0.3600  0.2948 -0.3013
  155DOPC  H18R18641   5.673   3.807  11.982 -0.4844  1.4081 -0.8127
  155DOPC  H18S18642   5.559   3.807  11.856  1.6615  1.1683 -0.8071
  155DOPC  H18T18643   5.705   3.694  11.846  0.5460 -0.0447  0.1426
  155DOPC   C3318644   5.045   3.057  13.260 -1.1588 -0.5684  0.2116
  155DOPC   H3X18645   4.940   3.031  13.234 -0.4319 -2.4833 -1.0096
  155DOPC   H3Y18646   5.110   2.974  13.225 -1.3334 -0.0408 -1.4470
  155DOPC   C3418647   5.082   3.182  13.203 -0.1075 -0.1202  0.5123
  155DOPC   H4X18648   5.166   3.235  13.252 -0.6519  0.1198  1.2040
  155DOPC   H4Y18649   4.996   3.250  13.213  0.5470  1.2024 -2.0255
  155DOPC   C3518650   5.108   3.164  13.050 -0.1602  0.0588  0.1473
  155DOPC   H5X18651   5.045   3.084  13.006  0.0498 -0.9857  1.6736
  155DOPC   H5Y18652   5.212   3.134  13.024  0.7661  1.9150  1.4114
  155DOPC   C3618653   5.090   3.297  12.971 -0.4674  0.1781  1.0129
  155DOPC   H6X18654   4.982   3.323  12.961 -0.2541  0.8623  0.3718
  155DOPC   H6Y18655   5.149   3.379  13.017  0.9974  0.8121 -1.7846
  155DOPC   C3718656   5.157   3.285  12.823  0.1718 -0.4710 -0.9512
  155DOPC   H7X18657   5.196   3.383  12.788 -2.4661  0.0806 -2.6030
  155DOPC   H7Y18658   5.246   3.219  12.830  0.4854  0.0625  0.6905
  155DOPC   C3818659   5.069   3.222  12.710  0.2962 -0.2346  0.3929
  155DOPC   H8X18660   5.042   3.117  12.734  1.5166 -1.3812 -2.7838
  155DOPC   H8Y18661   5.133   3.213  12.621  0.9036 -2.5049  0.9962
  155DOPC   C3918662   4.949   3.309  12.692 -0.3035  0.3882  0.5429
  155DOPC   H9X18663   4.872   3.316  12.770 -0.5510 -0.8222  0.4376
  155DOPC  C31018664   4.921   3.383  12.588  0.1084 -0.3454  0.1549
  155DOPC  H10X18665   4.820   3.426  12.590 -0.3227 -1.3571  1.7847
  155DOPC  C31118666   5.003   3.397  12.461  0.2763  0.2383  0.2702
  155DOPC  H11X18667   5.112   3.389  12.480  0.8389 -2.2040 -3.0473
  155DOPC  H11Y18668   4.994   3.499  12.418  1.7747  0.3881  0.2718
  155DOPC  C31218669   4.976   3.301  12.344 -0.3925  0.5995  0.4198
  155DOPC  H12X18670   4.873   3.330  12.311 -0.8618  0.4996  1.7511
  155DOPC  H12Y18671   4.956   3.201  12.388 -2.6020  0.4956 -0.6608
  155DOPC  C31318672   5.090   3.302  12.233 -0.2558 -0.2143 -0.0070
  155DOPC  H13X18673   5.187   3.273  12.280  0.4713 -0.0061 -1.3474
  155DOPC  H13Y18674   5.062   3.221  12.163  0.0947 -0.7702  0.4841
  155DOPC  C31418675   5.107   3.441  12.155 -0.6707 -0.9609  0.5856
  155DOPC  H14X18676   5.005   3.481  12.133 -0.0237 -0.0333 -0.9243
  155DOPC  H14Y18677   5.165   3.518  12.211  0.9585 -2.3035  0.8130
  155DOPC  C31518678   5.164   3.430  12.016 -0.3267  0.1974 -0.2118
  155DOPC  H15X18679   5.163   3.324  11.982  3.2707 -0.4257  1.1388
  155DOPC  H15Y18680   5.264   3.475  11.998 -0.4440  0.5126 -0.0806
  155DOPC  C31618681   5.079   3.502  11.904  0.1814 -0.2680  0.3835
  155DOPC  H16X18682   5.061   3.605  11.941 -2.3363 -0.3953 -0.2971
  155DOPC  H16Y18683   5.139   3.502  11.810  2.0709  1.1839  1.5180
  155DOPC  C31718684   4.940   3.443  11.874 -0.0731 -0.4097 -0.0015
  155DOPC  H17X18685   4.963   3.344  11.832  1.7967 -0.4210  0.9624
  155DOPC  H17Y18686   4.875   3.436  11.965  0.4328  2.4971  0.7035
  155DOPC  C31818687   4.872   3.520  11.766  0.3990 -0.3692  0.7095
  155DOPC  H18X18688   4.846   3.623  11.799  0.5335 -0.5264  1.3065
  155DOPC  H18Y18689   4.923   3.536  11.668 -2.0146  2.1034 -0.2695
  155DOPC  H18Z18690   4.769   3.481  11.752 -0.8342  2.1537  2.1576
  156DOPC     N18691   2.616   6.113  14.207 -0.3015  1.0260  0.7011
  156DOPC   C1218692   2.763   6.061  14.203  0.3987  0.3002  0.9691
  156DOPC  H12A18693   2.773   5.995  14.288  1.7867 -0.2555  0.3908
  156DOPC  H12B18694   2.825   6.148  14.218 -0.0557  1.0475 -1.1725
  156DOPC   C1318695   2.606   6.228  14.121 -0.2603  0.1751  0.4201
  156DOPC  H13A18696   2.658   6.215  14.027 -1.4045 -1.6134 -0.0147
  156DOPC  H13B18697   2.502   6.233  14.092  0.1003 -0.3388 -1.0571
  156DOPC  H13C18698   2.624   6.325  14.166 -0.0687 -0.0741  0.8830
  156DOPC   C1418699   2.579   6.142  14.348  0.1364 -0.1124 -0.0523
  156DOPC  H14A18700   2.477   6.179  14.347  0.2223  0.1353 -0.9447
  156DOPC  H14B18701   2.585   6.052  14.407  0.6156 -0.5771 -0.7939
  156DOPC  H14C18702   2.636   6.225  14.388  1.3930 -0.0202 -1.8890
  156DOPC   C1518703   2.523   6.007  14.159  0.2810  0.4608  0.7389
  156DOPC  H15A18704   2.519   5.927  14.231 -2.7833 -0.2445 -0.0651
  156DOPC  H15B18705   2.542   5.979  14.057 -1.9876  1.4306 -0.0151
  156DOPC  H15C18706   2.429   6.057  14.180  0.7657  0.8267  2.1981
  156DOPC   C1118707   2.796   5.973  14.074  0.1261  0.4633  0.5925
  156DOPC  H11A18708   2.898   5.931  14.077  0.4583  1.2159  0.1920
  156DOPC  H11B18709   2.733   5.882  14.078 -1.2264  1.2078 -1.6775
  156DOPC     P18710   2.873   6.073  13.841 -0.2627  0.1936  0.0521
  156DOPC   O1318711   3.004   6.108  13.902  0.0967  0.3826  0.5467
  156DOPC   O1418712   2.805   6.173  13.753 -0.0760 -0.4443 -0.4345
  156DOPC   O1218713   2.772   6.038  13.949  0.1887  0.3046 -0.2115
  156DOPC   O1118714   2.903   5.932  13.769  0.0411 -0.0038  0.0081
  156DOPC    C118715   3.024   5.910  13.701  0.2073  0.1821  0.6034
  156DOPC    HA18716   3.029   5.805  13.667  0.5221  0.3884  0.0036
  156DOPC    HB18717   3.111   5.935  13.765  0.5411  1.1805 -0.2073
  156DOPC    C218718   3.031   5.990  13.571 -0.2689  0.0592  0.0797
  156DOPC    HS18719   3.025   6.097  13.601 -1.8390  0.4455 -1.4794
  156DOPC   O2118720   2.913   5.954  13.490 -0.2390 -0.4124  0.3845
  156DOPC   C2118721   2.891   6.025  13.380 -0.4844  0.6395 -0.0050
  156DOPC   O2218722   2.959   6.122  13.346  0.2160  0.7590 -0.3584
  156DOPC   C2218723   2.774   5.960  13.299 -0.3775  0.0649 -0.0256
  156DOPC   H2R18724   2.685   5.989  13.359  0.8225 -1.9352  2.9590
  156DOPC   H2S18725   2.791   5.850  13.294  0.0293  0.1396 -0.4078
  156DOPC    C318726   3.171   5.974  13.505  0.1644 -0.9413 -0.1643
  156DOPC    HX18727   3.245   6.028  13.568 -0.9247 -0.3129  0.6007
  156DOPC    HY18728   3.163   6.026  13.407 -0.6283 -1.0666 -0.1730
  156DOPC   O3118729   3.196   5.827  13.484 -0.1542  0.2798 -0.0869
  156DOPC   C3118730   3.328   5.796  13.470 -0.2333 -0.9674  0.3465
  156DOPC   O3218731   3.412   5.889  13.460  0.4993  0.0028  0.2395
  156DOPC   C3218732   3.343   5.644  13.442  0.5471 -0.3685 -0.0956
  156DOPC   H2X18733   3.397   5.592  13.525 -3.1618 -0.8335  2.2483
  156DOPC   H2Y18734   3.245   5.593  13.446 -0.5047  1.6326  1.0489
  156DOPC   C2318735   2.766   6.006  13.150 -0.1555 -0.4561 -0.4743
  156DOPC   H3R18736   2.794   6.113  13.139  1.1167 -0.8961 -1.8766
  156DOPC   H3S18737   2.659   5.997  13.123 -0.6323  0.4343  0.9539
  156DOPC   C2418738   2.864   5.920  13.069 -0.3152  0.1606 -0.5310
  156DOPC   H4R18739   2.834   5.813  13.067 -1.1508  0.3850 -0.5404
  156DOPC   H4S18740   2.959   5.917  13.126 -3.0872  0.6954  4.6944
  156DOPC   C2518741   2.882   5.972  12.925 -0.0406 -0.2102 -0.3552
  156DOPC   H5R18742   2.927   6.074  12.922 -1.7475  0.5531 -1.4624
  156DOPC   H5S18743   2.782   5.996  12.883 -0.6766 -1.5969  0.3333
  156DOPC   C2618744   2.962   5.875  12.840  0.1905 -0.4087 -0.4390
  156DOPC   H6R18745   2.929   5.769  12.852 -0.8914 -0.1608 -1.1096
  156DOPC   H6S18746   3.068   5.871  12.874  0.0116  0.4979  0.2574
  156DOPC   C2718747   2.957   5.928  12.695 -0.3820 -0.2066 -0.1204
  156DOPC   H7R18748   2.983   6.035  12.687 -0.4008 -0.2097 -0.2130
  156DOPC   H7S18749   2.851   5.928  12.663  0.3894  1.6572 -3.0196
  156DOPC   C2818750   3.059   5.854  12.607  0.0895 -0.4205  0.3433
  156DOPC   H8R18751   3.158   5.875  12.654 -0.1963  0.8350  0.4246
  156DOPC   H8S18752   3.052   5.907  12.510 -1.0873 -1.4263 -0.1469
  156DOPC   C2918753   3.030   5.708  12.581 -0.2209 -0.2525  0.1994
  156DOPC   H9R18754   3.058   5.645  12.666 -1.9141  0.2656  1.2092
  156DOPC  C21018755   2.985   5.661  12.465 -0.5355  0.1611  0.8669
  156DOPC  H10R18756   2.966   5.553  12.465 -0.9515  0.1813 -1.6156
  156DOPC  C21118757   2.941   5.739  12.346 -0.0983 -1.0112  0.6617
  156DOPC  H11R18758   3.028   5.745  12.277 -0.3880 -0.8735  0.3079
  156DOPC  H11S18759   2.924   5.847  12.368 -0.7140 -0.7965 -0.7805
  156DOPC  C21218760   2.810   5.682  12.287 -0.3046 -0.1386  0.0865
  156DOPC  H12R18761   2.734   5.697  12.367 -0.5799  0.2337 -0.2349
  156DOPC  H12S18762   2.803   5.575  12.257 -0.7653 -0.2043  0.4226
  156DOPC  C21318763   2.756   5.768  12.173 -0.2537 -0.1418  0.7314
  156DOPC  H13R18764   2.763   5.878  12.189  1.2277 -0.0399 -0.4854
  156DOPC  H13S18765   2.645   5.754  12.169 -0.3811  0.7663  0.9243
  156DOPC  C21418766   2.830   5.724  12.050  0.7067 -0.3613  0.3748
  156DOPC  H14R18767   2.812   5.615  12.057 -3.0412  0.1018 -0.1250
  156DOPC  H14S18768   2.938   5.753  12.046  0.7963 -0.7947 -1.5910
  156DOPC  C21518769   2.771   5.777  11.918 -0.8889  0.2299  0.2700
  156DOPC  H15R18770   2.845   5.759  11.836 -0.7240 -0.0554  0.4786
  156DOPC  H15S18771   2.752   5.884  11.937 -1.2570  0.3238 -0.5850
  156DOPC  C21618772   2.650   5.705  11.863 -0.7088 -1.0569 -0.7000
  156DOPC  H16R18773   2.567   5.715  11.936  0.9270 -1.0677  1.2304
  156DOPC  H16S18774   2.672   5.597  11.847 -1.3327 -1.3952  0.5412
  156DOPC  C21718775   2.602   5.762  11.733  0.1402 -0.1995  1.0838
  156DOPC  H17R18776   2.680   5.784  11.656  0.2607  2.1072  1.7898
  156DOPC  H17S18777   2.560   5.863  11.753 -3.4818 -1.4514  0.5489
  156DOPC  C21818778   2.489   5.687  11.669  0.0378 -0.9084 -0.9804
  156DOPC  H18R18779   2.407   5.669  11.742  0.0723  1.4223 -0.3079
  156DOPC  H18S18780   2.521   5.587  11.632 -1.2473 -1.6255 -0.2430
  156DOPC  H18T18781   2.448   5.740  11.581 -1.2703  1.5980  1.0169
  156DOPC   C3318782   3.408   5.619  13.309  0.2437  0.5705 -0.4970
  156DOPC   H3X18783   3.440   5.513  13.317 -1.1428  0.2322  0.9025
  156DOPC   H3Y18784   3.506   5.672  13.306  0.9741 -0.7186 -0.6196
  156DOPC   C3418785   3.327   5.658  13.181 -0.1600  0.4072 -0.1996
  156DOPC   H4X18786   3.274   5.755  13.192  0.6622  0.7397  1.0874
  156DOPC   H4Y18787   3.256   5.577  13.157  0.7084 -0.7344  0.9565
  156DOPC   C3518788   3.424   5.662  13.057  0.7546  0.3853 -0.8388
  156DOPC   H5X18789   3.488   5.573  13.078  0.6230  0.8175  1.6637
  156DOPC   H5Y18790   3.497   5.745  13.057  2.0801 -0.7322 -0.4366
  156DOPC   C3618791   3.359   5.652  12.919  0.4388 -0.3118 -0.2391
  156DOPC   H6X18792   3.284   5.571  12.929  0.5930 -0.2546  1.7152
  156DOPC   H6Y18793   3.308   5.746  12.891 -1.7974 -0.9711  1.3181
  156DOPC   C3718794   3.456   5.618  12.811 -0.0191  0.1298  0.1602
  156DOPC   H7X18795   3.526   5.705  12.805 -1.1866  1.2589  1.8794
  156DOPC   H7Y18796   3.510   5.528  12.848  0.5339  1.1006  1.8183
  156DOPC   C3818797   3.387   5.592  12.675  0.1195 -0.6763  0.2281
  156DOPC   H8X18798   3.319   5.676  12.651 -1.5153 -2.4348 -1.6474
  156DOPC   H8Y18799   3.314   5.511  12.698 -0.6187  0.6439  3.0376
  156DOPC   C3918800   3.491   5.567  12.569 -0.3024  0.5865 -0.3480
  156DOPC   H9X18801   3.537   5.469  12.586  0.5864  1.2134  1.0766
  156DOPC  C31018802   3.519   5.635  12.452 -0.6740 -0.1902 -0.2823
  156DOPC  H10X18803   3.599   5.603  12.384  0.3095  1.1769  0.1783
  156DOPC  C31118804   3.439   5.750  12.409  0.2283  0.0668 -0.3575
  156DOPC  H11X18805   3.458   5.853  12.445 -1.0040 -0.5086  2.2028
  156DOPC  H11Y18806   3.331   5.733  12.432  0.4847  0.6906  1.3806
  156DOPC  C31218807   3.445   5.753  12.250 -0.4439  0.0894 -0.2514
  156DOPC  H12X18808   3.432   5.652  12.207  0.7176  0.5980 -1.8889
  156DOPC  H12Y18809   3.548   5.770  12.215  0.5538 -0.6685  2.0928
  156DOPC  C31318810   3.325   5.838  12.184 -0.6459 -0.5668 -0.0409
  156DOPC  H13X18811   3.238   5.781  12.222 -0.9749 -0.7464 -1.0355
  156DOPC  H13Y18812   3.312   5.941  12.222 -0.0528  0.0935 -1.5468
  156DOPC  C31418813   3.322   5.852  12.029 -0.4796 -0.1459 -0.0326
  156DOPC  H14X18814   3.412   5.903  11.989  0.8636 -1.9653  0.5318
  156DOPC  H14Y18815   3.304   5.751  11.986 -1.5178 -0.0231  0.0692
  156DOPC  C31518816   3.198   5.936  11.981 -0.0806 -0.0074 -0.4808
  156DOPC  H15X18817   3.211   6.031  12.036  1.0207 -1.2652  1.5679
  156DOPC  H15Y18818   3.106   5.886  12.018 -0.0222  0.2968  0.0868
  156DOPC  C31618819   3.206   5.976  11.830 -0.5392  0.0206  0.7539
  156DOPC  H16X18820   3.295   6.042  11.837 -0.8585  0.5053  0.3312
  156DOPC  H16Y18821   3.215   5.882  11.771 -1.2294 -0.4074  1.3001
  156DOPC  C31718822   3.091   6.052  11.763 -0.0118 -0.6438 -0.7268
  156DOPC  H17X18823   3.002   5.986  11.773  0.5392 -1.2575  0.3012
  156DOPC  H17Y18824   3.083   6.146  11.822  0.5320 -0.4403 -0.9646
  156DOPC  C31818825   3.108   6.075  11.620  0.9599 -0.6877  0.2880
  156DOPC  H18X18826   3.187   6.152  11.611  0.2128  0.2398  1.3520
  156DOPC  H18Y18827   3.136   5.986  11.560 -1.5158 -1.1195 -0.3693
  156DOPC  H18Z18828   3.011   6.112  11.581  1.0564  0.8996  1.4492
  157DOPC     N18829   1.525   4.415  14.235 -0.4861  0.1247  0.0859
  157DOPC   C1218830   1.564   4.418  14.088 -0.1702 -0.6945 -0.0179
  157DOPC  H12A18831   1.632   4.336  14.067  0.3631 -0.7042  1.6119
  157DOPC  H12B18832   1.612   4.511  14.062  1.7639 -2.0911 -1.8784
  157DOPC   C1318833   1.454   4.289  14.278  0.5954 -0.0656 -0.4026
  157DOPC  H13A18834   1.482   4.255  14.376 -1.2250 -1.6399 -0.3620
  157DOPC  H13B18835   1.349   4.309  14.293  0.7219  0.3330 -0.0440
  157DOPC  H13C18836   1.481   4.200  14.222  0.2317 -0.3882 -0.0786
  157DOPC   C1418837   1.433   4.522  14.265  0.3465 -0.6282  0.1781
  157DOPC  H14A18838   1.348   4.520  14.198  0.4223 -0.8167  0.0885
  157DOPC  H14B18839   1.383   4.506  14.359  0.1675 -0.5418  0.1001
  157DOPC  H14C18840   1.484   4.618  14.269 -0.5497 -0.1096 -0.4791
  157DOPC   C1518841   1.643   4.423  14.325 -0.1933 -0.1809 -0.8266
  157DOPC  H15A18842   1.707   4.336  14.312 -0.0383 -0.3922  0.9739
  157DOPC  H15B18843   1.626   4.435  14.431 -0.9698  2.6818 -1.2029
  157DOPC  H15C18844   1.706   4.504  14.293  0.5890 -0.7704 -0.8142
  157DOPC   C1118845   1.452   4.394  13.993  0.1882  0.3709 -0.3293
  157DOPC  H11A18846   1.498   4.370  13.894 -1.4450 -1.9616 -0.6093
  157DOPC  H11B18847   1.411   4.295  14.023  1.4976 -0.0974 -0.0190
  157DOPC     P18848   1.373   4.620  13.885 -0.5334 -0.0899 -0.2344
  157DOPC   O1318849   1.506   4.685  13.915  0.3481  0.3931  0.1441
  157DOPC   O1418850   1.249   4.700  13.893  0.5212 -0.1688  0.3490
  157DOPC   O1218851   1.352   4.500  13.986  0.5307  0.8252  0.2611
  157DOPC   O1118852   1.388   4.553  13.743  0.3825  0.0661  0.6946
  157DOPC    C118853   1.284   4.559  13.648  0.3484 -0.0290 -0.9483
  157DOPC    HA18854   1.313   4.533  13.544 -2.0504 -1.1703 -1.4006
  157DOPC    HB18855   1.252   4.663  13.626  1.4805  0.8529  1.2925
  157DOPC    C218856   1.166   4.463  13.685  0.2502 -1.0416  0.2140
  157DOPC    HS18857   1.111   4.492  13.778  0.6927 -2.4816  0.9596
  157DOPC   O2118858   1.220   4.334  13.696 -0.7696 -0.0336  0.0562
  157DOPC   C2118859   1.138   4.240  13.751 -0.3458 -0.0555  0.6321
  157DOPC   O2218860   1.023   4.265  13.783  0.3056 -0.4105  0.3406
  157DOPC   C2218861   1.203   4.106  13.754  0.0646  0.1224  0.7515
  157DOPC   H2R18862   1.193   4.068  13.857 -1.6614 -1.1817  0.1610
  157DOPC   H2S18863   1.312   4.113  13.738  0.9008 -0.2193  5.1311
  157DOPC    C318864   1.067   4.466  13.563 -0.4570  0.8409 -0.3720
  157DOPC    HX18865   0.969   4.434  13.604  0.1880 -0.2335  0.3577
  157DOPC    HY18866   1.110   4.384  13.501  1.6781 -0.2337  2.3315
  157DOPC   O3118867   1.054   4.594  13.496  0.1857  0.0149  0.2671
  157DOPC   C3118868   0.969   4.682  13.544  0.4313 -0.0803 -0.4234
  157DOPC   O3218869   0.907   4.673  13.648 -0.2175 -0.1689 -0.2482
  157DOPC   C3218870   0.954   4.799  13.441  0.1664  0.5448  0.1164
  157DOPC   H2X18871   0.906   4.883  13.495 -2.2164  0.5580 -1.8671
  157DOPC   H2Y18872   1.056   4.827  13.407  0.1973  2.0936  1.3591
  157DOPC   C2318873   1.137   4.007  13.658 -0.0630 -0.3472 -0.0427
  157DOPC   H3R18874   1.026   3.995  13.665 -0.1217 -1.2096 -1.7721
  157DOPC   H3S18875   1.181   3.906  13.673  0.4751  0.0292  1.0010
  157DOPC   C2418876   1.173   4.046  13.511  0.3600 -0.1678  0.3554
  157DOPC   H4R18877   1.284   4.055  13.502  0.3350 -0.4807 -0.3078
  157DOPC   H4S18878   1.125   4.143  13.487  0.8586  0.6623  2.4736
  157DOPC   C2518879   1.132   3.936  13.412 -0.2432 -0.3571 -0.0373
  157DOPC   H5R18880   1.021   3.929  13.414 -0.2794  0.3226  1.0283
  157DOPC   H5S18881   1.171   3.839  13.449  0.4047 -0.8556 -1.8821
  157DOPC   C2618882   1.169   3.957  13.262  0.0239 -0.0000  0.0299
  157DOPC   H6R18883   1.279   3.971  13.255  0.0701  0.3161  1.1561
  157DOPC   H6S18884   1.127   4.050  13.216 -2.4770  0.4710  2.9391
  157DOPC   C2718885   1.134   3.843  13.170  0.3799 -0.0076 -0.7746
  157DOPC   H7R18886   1.025   3.819  13.175 -0.0963  2.0837  0.1616
  157DOPC   H7S18887   1.200   3.760  13.202 -0.4596 -0.7821 -0.9895
  157DOPC   C2818888   1.176   3.891  13.025  0.6954  0.2309  0.0703
  157DOPC   H8R18889   1.284   3.871  13.014  0.4881 -0.5810 -0.5350
  157DOPC   H8S18890   1.145   3.996  13.003  1.2795  0.2308 -0.7757
  157DOPC   C2918891   1.115   3.790  12.930  0.6684 -0.0221 -0.9205
  157DOPC   H9R18892   1.115   3.692  12.982  0.1529  2.4887  4.4784
  157DOPC  C21018893   1.055   3.817  12.818 -0.3812 -0.1593 -0.9082
  157DOPC  H10R18894   1.011   3.735  12.759  1.8172  0.1884 -3.1648
  157DOPC  C21118895   1.048   3.946  12.748  0.2032 -0.1871  0.3897
  157DOPC  H11R18896   1.108   4.025  12.797 -0.9349  0.0872  1.4058
  157DOPC  H11S18897   0.942   3.977  12.738  0.4260 -0.1146 -2.5236
  157DOPC  C21218898   1.098   3.926  12.600  0.8147  0.1547  0.4025
  157DOPC  H12R18899   1.024   3.869  12.540  0.3296 -0.4551  1.5377
  157DOPC  H12S18900   1.196   3.874  12.593  0.8836  0.5724 -2.6270
  157DOPC  C21318901   1.128   4.050  12.515 -0.1846 -0.6664 -0.0929
  157DOPC  H13R18902   1.205   4.111  12.567 -2.2583  1.4721  0.7016
  157DOPC  H13S18903   1.028   4.099  12.508 -0.5400 -1.1935  1.0104
  157DOPC  C21418904   1.173   4.014  12.368  0.0558  0.0636  0.2463
  157DOPC  H14R18905   1.099   3.941  12.329  2.7594 -1.4229 -2.4985
  157DOPC  H14S18906   1.277   3.977  12.364 -0.2940 -0.8335 -3.4269
  157DOPC  C21518907   1.169   4.135  12.279 -0.2251 -0.0432 -0.3098
  157DOPC  H15R18908   1.223   4.111  12.185 -0.5562  0.1442 -0.5507
  157DOPC  H15S18909   1.230   4.221  12.314  1.8403 -1.1041 -1.1535
  157DOPC  C21618910   1.018   4.171  12.250  0.4914 -0.0768  0.4612
  157DOPC  H16R18911   0.968   4.228  12.331 -2.1105 -0.3934 -0.8311
  157DOPC  H16S18912   0.963   4.077  12.229 -0.3328  0.3968  0.4641
  157DOPC  C21718913   0.997   4.262  12.130  0.5922 -0.0934 -0.4514
  157DOPC  H17R18914   1.034   4.216  12.036 -1.3287 -0.9237 -0.8667
  157DOPC  H17S18915   1.055   4.356  12.140  0.0871  0.0875  0.8867
  157DOPC  C21818916   0.847   4.296  12.111  0.3031  0.2370 -0.2981
  157DOPC  H18R18917   0.786   4.203  12.117 -0.8041  0.9916  0.4841
  157DOPC  H18S18918   0.819   4.353  12.020  0.2828  0.7684  0.0353
  157DOPC  H18T18919   0.818   4.350  12.204 -2.3190  0.4473 -1.1594
  157DOPC   C3318920   0.856   4.755  13.325  0.1895 -0.7673  0.0710
  157DOPC   H3X18921   0.753   4.744  13.364 -0.6576  1.2210 -1.4487
  157DOPC   H3Y18922   0.900   4.666  13.275 -0.3472  0.2416 -2.3562
  157DOPC   C3418923   0.844   4.866  13.220 -0.0384 -0.7764 -0.4189
  157DOPC   H4X18924   0.946   4.876  13.177  0.6045 -0.6396  1.0772
  157DOPC   H4Y18925   0.825   4.960  13.275  2.1887 -0.3141 -0.3305
  157DOPC   C3518926   0.725   4.840  13.126  0.1458 -0.3522 -0.2513
  157DOPC   H5X18927   0.730   4.936  13.072  0.5443  1.1055  2.2075
  157DOPC   H5Y18928   0.632   4.831  13.187  0.7262 -2.4184  0.4293
  157DOPC   C3618929   0.754   4.725  13.025  0.4385  0.4653 -0.1160
  157DOPC   H6X18930   0.861   4.720  12.993  1.0965  1.3505  1.8021
  157DOPC   H6Y18931   0.735   4.631  13.081 -2.1169  1.5297  0.9262
  157DOPC   C3718932   0.652   4.746  12.908 -0.0658  0.6240  1.2011
  157DOPC   H7X18933   0.553   4.713  12.946 -0.8417 -0.5339 -1.5612
  157DOPC   H7Y18934   0.658   4.854  12.883 -1.4796  0.8231  1.6686
  157DOPC   C3818935   0.694   4.656  12.785 -0.5437 -0.1723 -0.0676
  157DOPC   H8X18936   0.708   4.551  12.818 -0.2679  0.1727  0.9532
  157DOPC   H8Y18937   0.797   4.685  12.754  0.0060  0.0669  1.8570
  157DOPC   C3918938   0.607   4.668  12.666  0.0986  0.1955  0.3482
  157DOPC   H9X18939   0.506   4.627  12.675 -0.0350  0.1248 -1.2202
  157DOPC  C31018940   0.641   4.729  12.548  0.0327  0.7536  0.0046
  157DOPC  H10X18941   0.571   4.734  12.464  1.0808  0.1313 -0.9320
  157DOPC  C31118942   0.767   4.804  12.522  0.4230  0.0321  0.1864
  157DOPC  H11X18943   0.857   4.756  12.566  2.3738  3.3955  0.1694
  157DOPC  H11Y18944   0.759   4.910  12.555  0.8215 -0.2829  1.3618
  157DOPC  C31218945   0.806   4.818  12.373 -0.4177 -0.9101  0.2384
  157DOPC  H12X18946   0.896   4.882  12.375 -1.5190  0.7393 -0.8366
  157DOPC  H12Y18947   0.738   4.884  12.316  0.4479 -1.0230 -0.9462
  157DOPC  C31318948   0.837   4.688  12.303 -0.3810 -0.2045  0.5816
  157DOPC  H13X18949   0.908   4.623  12.359  1.0812 -0.8338 -1.8730
  157DOPC  H13Y18950   0.746   4.624  12.302 -1.4228  1.2321 -0.1939
  157DOPC  C31418951   0.895   4.716  12.173 -0.0714 -0.0876  0.6868
  157DOPC  H14X18952   0.983   4.783  12.187 -1.0304  1.3199  0.1908
  157DOPC  H14Y18953   0.936   4.617  12.144  0.5424 -0.2620  2.0651
  157DOPC  C31518954   0.806   4.767  12.062  0.1983  0.8803 -0.3338
  157DOPC  H15X18955   0.868   4.781  11.971  0.3369 -0.7360 -0.5087
  157DOPC  H15Y18956   0.752   4.858  12.096 -1.6816 -0.2211 -0.2606
  157DOPC  C31618957   0.696   4.661  12.044 -0.0622  0.0491 -0.2675
  157DOPC  H16X18958   0.722   4.566  12.097 -0.9785 -1.2779 -2.0651
  157DOPC  H16Y18959   0.609   4.706  12.096 -0.7652 -1.0547 -0.4469
  157DOPC  C31718960   0.663   4.626  11.896  0.3061  1.1201 -0.3385
  157DOPC  H17X18961   0.731   4.552  11.848 -0.3585  1.1942 -1.4473
  157DOPC  H17Y18962   0.566   4.572  11.903 -0.7599  3.1019  1.0449
  157DOPC  C31818963   0.649   4.741  11.801 -0.6917  0.4430 -0.1175
  157DOPC  H18X18964   0.643   4.706  11.696 -2.5990 -0.5918  0.2897
  157DOPC  H18Y18965   0.568   4.810  11.834 -0.6010 -0.0933  1.2482
  157DOPC  H18Z18966   0.732   4.811  11.825 -0.9191  0.8190 -0.4066
  158DOPC     N18967   0.768   6.436  13.997  0.3370 -0.2973  0.1834
  158DOPC   C1218968   0.782   6.409  13.848  0.1595 -0.3605  0.2756
  158DOPC  H12A18969   0.776   6.504  13.796  1.0287 -0.9475 -0.9527
  158DOPC  H12B18970   0.704   6.348  13.804 -0.3069  0.1596  0.3719
  158DOPC   C1318971   0.621   6.458  14.017  0.9859 -0.2006 -0.4632
  158DOPC  H13A18972   0.606   6.516  14.107 -0.0019 -0.2493 -0.5874
  158DOPC  H13B18973   0.578   6.515  13.936  1.8496  1.6376  0.3191
  158DOPC  H13C18974   0.564   6.367  14.035  0.9061 -0.1734 -0.5804
  158DOPC   C1418975   0.861   6.545  14.040  0.1693 -0.6159 -0.3033
  158DOPC  H14A18976   0.849   6.557  14.147 -1.0362  0.6818 -0.5566
  158DOPC  H14B18977   0.960   6.522  14.004  0.7285  0.9973  0.1394
  158DOPC  H14C18978   0.822   6.640  14.006 -2.4014 -0.9019  1.5055
  158DOPC   C1518979   0.804   6.322  14.088 -0.6422  0.3675 -0.4400
  158DOPC  H15A18980   0.790   6.349  14.192  1.7611  0.9434 -0.2211
  158DOPC  H15B18981   0.904   6.286  14.068 -0.3548  1.6391 -1.4058
  158DOPC  H15C18982   0.743   6.234  14.069  1.2193 -1.3945  1.2681
  158DOPC   C1118983   0.915   6.357  13.788  1.0081 -0.0551  0.4026
  158DOPC  H11A18984   0.968   6.279  13.846  3.2028  1.4108  0.4771
  158DOPC  H11B18985   0.882   6.296  13.701  2.2208 -1.1429  0.6679
  158DOPC     P18986   0.993   6.567  13.652 -0.1201  0.5029 -0.0512
  158DOPC   O1318987   1.121   6.641  13.641 -0.1712  0.3607 -0.2216
  158DOPC   O1418988   0.868   6.636  13.686  0.3112  0.4306  0.0916
  158DOPC   O1218989   1.018   6.452  13.761 -0.8566 -0.0988  0.1466
  158DOPC   O1118990   0.959   6.472  13.529 -0.4256 -0.4536  0.4415
  158DOPC    C118991   1.054   6.369  13.500 -0.0232  0.0383 -0.5301
  158DOPC    HA18992   1.009   6.276  13.538  0.5744  0.2660  0.7977
  158DOPC    HB18993   1.155   6.388  13.543 -0.6397  2.2302  0.1074
  158DOPC    C218994   1.077   6.369  13.351 -0.0397 -0.5331 -0.7732
  158DOPC    HS18995   1.132   6.462  13.327  2.4632 -2.1360 -1.6589
  158DOPC   O2118996   0.944   6.358  13.289  0.5631 -0.1921 -0.2501
  158DOPC   C2118997   0.896   6.471  13.243  1.2310  0.3356 -0.0449
  158DOPC   O2218998   0.955   6.577  13.226 -0.3009  0.0607  0.2083
  158DOPC   C2218999   0.752   6.454  13.204  0.5357 -0.4770 -0.3092
  158DOPC   H2R19000   0.698   6.550  13.199 -1.8599 -1.7050  0.4654
  158DOPC   H2S19001   0.697   6.386  13.273 -0.6707  1.2315  0.4860
  158DOPC    C319002   1.164   6.250  13.306  0.1198  0.1567  0.2489
  158DOPC    HX19003   1.133   6.170  13.377  1.0820  0.0634  0.5705
  158DOPC    HY19004   1.269   6.278  13.326  0.0655 -0.1479  0.9876
  158DOPC   O3119005   1.136   6.211  13.164  0.1406  0.2165 -0.6048
  158DOPC   C3119006   1.184   6.302  13.082 -0.0118 -0.7025 -0.0077
  158DOPC   O3219007   1.209   6.419  13.105 -0.5214  0.4507  0.1552
  158DOPC   C3219008   1.188   6.249  12.936  0.5656 -0.3028  0.1071
  158DOPC   H2X19009   1.292   6.264  12.898 -0.3582 -0.3129 -2.6668
  158DOPC   H2Y19010   1.161   6.142  12.927 -2.4236  0.4541 -1.1270
  158DOPC   C2319011   0.730   6.389  13.060  0.1989  0.2916 -0.6203
  158DOPC   H3R19012   0.624   6.360  13.051 -0.1574  1.3763 -0.0558
  158DOPC   H3S19013   0.790   6.296  13.048  1.2952  0.7430  0.9834
  158DOPC   C2419014   0.764   6.480  12.946  0.1781 -0.4228  0.7210
  158DOPC   H4R19015   0.871   6.512  12.954 -0.3749  2.0996 -0.7966
  158DOPC   H4S19016   0.697   6.568  12.945 -0.8072 -1.1500 -0.6234
  158DOPC   C2519017   0.740   6.419  12.809 -0.5101 -0.1181 -0.0304
  158DOPC   H5R19018   0.632   6.415  12.784 -0.5755  2.0332 -0.2430
  158DOPC   H5S19019   0.794   6.324  12.787  0.4293 -0.3807  2.9764
  158DOPC   C2619020   0.800   6.508  12.700  0.5637 -0.5579  0.3946
  158DOPC   H6R19021   0.911   6.506  12.697  0.5616 -1.9295 -2.4485
  158DOPC   H6S19022   0.760   6.608  12.726  0.8171  0.0222 -1.3329
  158DOPC   C2719023   0.744   6.476  12.554  0.3039  0.2134 -0.2616
  158DOPC   H7R19024   0.635   6.477  12.575  0.4267 -0.8681  0.5142
  158DOPC   H7S19025   0.777   6.372  12.534  2.0536  0.1857  2.3555
  158DOPC   C2819026   0.787   6.568  12.441 -0.5193 -0.2137  0.1532
  158DOPC   H8R19027   0.898   6.571  12.440 -0.5301  1.1203  0.2983
  158DOPC   H8S19028   0.757   6.667  12.482 -0.9698 -0.7796  1.2261
  158DOPC   C2919029   0.725   6.536  12.308 -0.2076 -0.3479 -0.6155
  158DOPC   H9R19030   0.620   6.504  12.317  0.0775 -0.6916  2.6962
  158DOPC  C21019031   0.778   6.551  12.183  0.5850 -0.0531 -1.0477
  158DOPC  H10R19032   0.714   6.518  12.100 -0.0582  0.5441 -0.8007
  158DOPC  C21119033   0.919   6.594  12.148  0.3537  0.3536 -0.4271
  158DOPC  H11R19034   0.992   6.559  12.224 -0.9322 -0.6253  0.4012
  158DOPC  H11S19035   0.929   6.705  12.153 -0.6644  0.4501 -0.3830
  158DOPC  C21219036   0.968   6.537  12.012  0.0062  0.4521  0.2544
  158DOPC  H12R19037   0.950   6.428  12.024  0.8007  0.6090  3.5900
  158DOPC  H12S19038   1.077   6.550  11.998  0.3153  0.2290  2.2340
  158DOPC  C21319039   0.885   6.583  11.892 -0.3456 -0.1193  0.3918
  158DOPC  H13R19040   0.881   6.694  11.883  0.0108 -0.0341  1.1591
  158DOPC  H13S19041   0.779   6.554  11.909 -0.8784  1.6775  0.3101
  158DOPC  C21419042   0.950   6.539  11.765  0.3865  0.5869  0.0454
  158DOPC  H14R19043   0.952   6.429  11.748 -0.3937  0.8408 -1.9951
  158DOPC  H14S19044   1.052   6.581  11.752  1.0932 -1.1534 -0.2636
  158DOPC  C21519045   0.877   6.602  11.642 -0.3450  0.1059 -0.0216
  158DOPC  H15R19046   0.772   6.564  11.637 -0.8673  1.6131 -2.9110
  158DOPC  H15S19047   0.922   6.569  11.546  0.4080  1.1239 -0.0428
  158DOPC  C21619048   0.868   6.754  11.618  0.2980  0.7813  0.3304
  158DOPC  H16R19049   0.964   6.782  11.569  0.5660 -0.2013  0.2779
  158DOPC  H16S19050   0.847   6.805  11.714 -1.1143 -0.6686  0.8311
  158DOPC  C21719051   0.755   6.793  11.519  0.1555  0.4528 -0.2937
  158DOPC  H17R19052   0.666   6.734  11.549  0.9980 -1.1520 -0.8393
  158DOPC  H17S19053   0.774   6.749  11.418 -0.6243 -0.3038 -0.1309
  158DOPC  C21819054   0.734   6.937  11.494 -0.3270 -0.6790 -0.0411
  158DOPC  H18R19055   0.697   6.993  11.584 -0.4799 -1.4690  0.3949
  158DOPC  H18S19056   0.659   6.944  11.413  1.4563 -2.1657 -1.9082
  158DOPC  H18T19057   0.830   6.983  11.462 -0.4440  0.0944  0.6618
  158DOPC   C3319058   1.105   6.346  12.841 -0.0431  1.1293 -0.4996
  158DOPC   H3X19059   1.133   6.453  12.852  2.1460  0.5116  0.5276
  158DOPC   H3Y19060   0.995   6.343  12.857 -0.0872  1.7168 -0.6538
  158DOPC   C3419061   1.128   6.308  12.693  0.5995  0.2507 -0.8706
  158DOPC   H4X19062   1.032   6.324  12.640 -0.4632  0.9595  1.1719
  158DOPC   H4Y19063   1.151   6.200  12.684  0.2291  0.2054 -1.2781
  158DOPC   C3519064   1.229   6.396  12.621  0.7489  0.3474 -0.1305
  158DOPC   H5X19065   1.327   6.394  12.673  0.6805  2.3990  0.1899
  158DOPC   H5Y19066   1.192   6.501  12.627  0.3288  0.2362 -0.7118
  158DOPC   C3619067   1.231   6.355  12.468  0.0419  0.3331  0.2455
  158DOPC   H6X19068   1.289   6.261  12.461  1.0429  1.0208 -1.0881
  158DOPC   H6Y19069   1.129   6.342  12.426  0.7131 -0.5169 -1.2061
  158DOPC   C3719070   1.296   6.465  12.380 -0.0775  0.6287  0.2357
  158DOPC   H7X19071   1.251   6.565  12.396  0.8292  1.2850 -1.1767
  158DOPC   H7Y19072   1.403   6.467  12.409  0.0569 -0.8669 -0.0765
  158DOPC   C3819073   1.290   6.437  12.223 -0.3187 -0.0736 -0.2911
  158DOPC   H8X19074   1.183   6.450  12.195 -0.0637  2.3364 -0.3773
  158DOPC   H8Y19075   1.314   6.330  12.208 -2.4291 -0.8661  1.3627
  158DOPC   C3919076   1.377   6.518  12.139 -0.2007  0.4340 -0.0200
  158DOPC   H9X19077   1.415   6.608  12.189 -0.0634  0.5542 -0.3409
  158DOPC  C31019078   1.428   6.485  12.018 -0.6194  0.2455 -0.0296
  158DOPC  H10X19079   1.497   6.556  11.969  2.1009 -2.6036 -0.6655
  158DOPC  C31119080   1.390   6.360  11.938 -0.1434  0.0385 -0.0784
  158DOPC  H11X19081   1.315   6.292  11.984  0.6352 -1.0959 -0.4461
  158DOPC  H11Y19082   1.474   6.290  11.916  0.0045  0.1045  0.2567
  158DOPC  C31219083   1.348   6.411  11.797  0.4809  0.8205  0.0010
  158DOPC  H12X19084   1.429   6.461  11.741  0.7879 -0.8979 -1.1587
  158DOPC  H12Y19085   1.253   6.469  11.806 -1.1274 -1.8261  1.8098
  158DOPC  C31319086   1.313   6.285  11.712 -0.7982 -0.2171  0.3876
  158DOPC  H13X19087   1.388   6.203  11.720  1.3195  1.6212  0.3356
  158DOPC  H13Y19088   1.221   6.236  11.751 -0.6181  1.2472  2.8824
  158DOPC  C31419089   1.281   6.310  11.567 -0.6229 -0.1651  0.7224
  158DOPC  H14X19090   1.176   6.346  11.567  0.0871  2.2141  2.9058
  158DOPC  H14Y19091   1.353   6.384  11.525  0.2913 -1.7584 -0.6726
  158DOPC  C31519092   1.293   6.183  11.474 -0.1583  0.2064  0.8140
  158DOPC  H15X19093   1.227   6.101  11.510  1.1410 -0.3304  2.0710
  158DOPC  H15Y19094   1.397   6.142  11.477 -0.1829  0.0985  0.2436
  158DOPC  C31619095   1.271   6.224  11.328  0.5861 -0.2468  0.9013
  158DOPC  H16X19096   1.165   6.253  11.311  0.2994 -2.0957 -0.8735
  158DOPC  H16Y19097   1.329   6.317  11.310 -1.1567  0.5132 -1.2085
  158DOPC  C31719098   1.289   6.109  11.230 -0.2345  0.2133 -0.4021
  158DOPC  H17X19099   1.396   6.083  11.240 -0.8506 -3.0310 -1.2767
  158DOPC  H17Y19100   1.216   6.028  11.252  0.2754 -0.0413  0.4042
  158DOPC  C31819101   1.264   6.152  11.081 -0.6320  0.2217 -1.1359
  158DOPC  H18X19102   1.327   6.241  11.058 -0.5875  1.0063  1.6595
  158DOPC  H18Y19103   1.309   6.069  11.022  2.6718  0.3513  0.9182
  158DOPC  H18Z19104   1.160   6.172  11.049  0.1071  1.7101 -2.8574
  159DOPC     N19105   1.897   3.890  14.082  0.8259 -0.0796 -0.8274
  159DOPC   C1219106   1.819   4.010  14.040 -1.2762 -0.1704 -0.0970
  159DOPC  H12A19107   1.831   4.028  13.935 -2.6680 -0.6794 -0.3709
  159DOPC  H12B19108   1.858   4.096  14.093 -1.9011  0.7779 -1.1353
  159DOPC   C1319109   1.899   3.881  14.236  0.7011  0.5908 -0.2148
  159DOPC  H13A19110   1.926   3.786  14.279  0.5659 -0.1737 -1.7596
  159DOPC  H13B19111   1.960   3.959  14.280 -1.2982  0.5408  2.9963
  159DOPC  H13C19112   1.801   3.905  14.275 -0.2639  1.1113 -2.7251
  159DOPC   C1419113   2.037   3.911  14.035  0.7136 -0.4462  0.6827
  159DOPC  H14A19114   2.091   3.829  14.081  2.1372 -0.9823 -1.7604
  159DOPC  H14B19115   2.046   3.888  13.930  0.7035  0.8680  0.3783
  159DOPC  H14C19116   2.083   4.007  14.056  0.6661 -0.2651 -0.0190
  159DOPC   C1519117   1.845   3.767  14.022  0.5134  0.2047  0.3045
  159DOPC  H15A19118   1.816   3.787  13.920  1.8244  0.0206 -0.1260
  159DOPC  H15B19119   1.763   3.724  14.078  1.1287 -0.5142  0.6601
  159DOPC  H15C19120   1.923   3.692  14.025 -0.4270 -1.0997 -3.1202
  159DOPC   C1119121   1.659   4.008  14.064 -0.6247  0.1060 -0.4943
  159DOPC  H11A19122   1.630   4.110  14.031 -2.7942 -0.4558 -0.4751
  159DOPC  H11B19123   1.614   3.935  13.994 -0.4995 -1.2835  0.8080
  159DOPC     P19124   1.519   3.884  14.241  0.1046 -0.0318 -0.5977
  159DOPC   O1319125   1.394   3.957  14.280  0.0627 -0.4856 -0.1558
  159DOPC   O1419126   1.574   3.801  14.351 -0.9719  0.2120 -0.6078
  159DOPC   O1219127   1.630   3.986  14.197  0.0358  0.0832 -0.0617
  159DOPC   O1119128   1.494   3.779  14.113  0.6030 -0.5661 -0.1934
  159DOPC    C119129   1.360   3.762  14.065  0.2523  1.0569 -1.2535
  159DOPC    HA19130   1.312   3.861  14.053 -1.8339 -0.0430 -2.5507
  159DOPC    HB19131   1.307   3.705  14.144  2.0816  2.1855  0.9189
  159DOPC    C219132   1.348   3.700  13.925  0.5262 -0.4376 -0.1397
  159DOPC    HS19133   1.402   3.604  13.941  0.8098 -0.0299  1.5924
  159DOPC   O2119134   1.401   3.795  13.833  0.0249  0.3145  0.1929
  159DOPC   C2119135   1.523   3.769  13.787  0.0138  0.2027  0.1305
  159DOPC   O2219136   1.594   3.676  13.820 -0.2194 -0.2623 -0.1906
  159DOPC   C2219137   1.554   3.872  13.684 -0.4637  0.3401 -0.3395
  159DOPC   H2R19138   1.634   3.930  13.736 -0.1728 -1.6746  1.6100
  159DOPC   H2S19139   1.472   3.940  13.652 -0.8873  0.3520  0.7306
  159DOPC    C319140   1.201   3.670  13.883 -0.6701  0.2993 -0.2670
  159DOPC    HX19141   1.137   3.761  13.882 -2.2572 -0.7238 -2.6907
  159DOPC    HY19142   1.167   3.600  13.962  0.1852  0.4920  0.2809
  159DOPC   O3119143   1.210   3.612  13.758  0.5718  0.4461  0.6915
  159DOPC   C3119144   1.190   3.482  13.754  0.1120  0.2601  0.8605
  159DOPC   O3219145   1.160   3.404  13.843  0.0767  0.3420 -0.1028
  159DOPC   C3219146   1.203   3.434  13.609 -0.5075 -0.0512 -0.2840
  159DOPC   H2X19147   1.309   3.449  13.578 -0.7618 -1.7690 -2.1982
  159DOPC   H2Y19148   1.175   3.327  13.612 -0.5852 -0.0147  0.3118
  159DOPC   C2319149   1.619   3.814  13.552  0.1367  0.7696 -0.6622
  159DOPC   H3R19150   1.701   3.743  13.575  1.2422  2.5504  1.2836
  159DOPC   H3S19151   1.661   3.906  13.504  1.0747 -0.2246 -1.8338
  159DOPC   C2419152   1.523   3.743  13.449  0.3695 -0.0167  0.3724
  159DOPC   H4R19153   1.431   3.805  13.439  0.4036 -0.1389 -0.8638
  159DOPC   H4S19154   1.496   3.638  13.470 -0.3197 -0.2040 -1.3297
  159DOPC   C2519155   1.581   3.750  13.309  0.4016 -0.5085 -0.4390
  159DOPC   H5R19156   1.600   3.857  13.283  1.7262  0.0808  2.5644
  159DOPC   H5S19157   1.507   3.718  13.232  0.9907 -1.4875 -0.6095
  159DOPC   C2619158   1.709   3.672  13.296 -0.0710  0.2095 -0.2193
  159DOPC   H6R19159   1.682   3.565  13.288 -0.4840  0.4295 -2.1328
  159DOPC   H6S19160   1.763   3.676  13.394 -0.3500 -1.0614  0.0011
  159DOPC   C2719161   1.801   3.732  13.188 -0.1448 -0.1487  0.0161
  159DOPC   H7R19162   1.813   3.839  13.213  1.5732 -0.9559  3.1969
  159DOPC   H7S19163   1.756   3.724  13.087  0.4783 -0.5278 -0.2332
  159DOPC   C2819164   1.947   3.674  13.190 -0.4865 -0.0840 -0.0752
  159DOPC   H8R19165   2.007   3.710  13.103 -1.8283  2.7661  0.0599
  159DOPC   H8S19166   1.945   3.563  13.178  0.6708  0.0632 -2.2107
  159DOPC   C2919167   2.024   3.669  13.319  0.6716 -0.1553  0.1003
  159DOPC   H9R19168   1.966   3.692  13.409  0.7461  3.1591 -0.5379
  159DOPC  C21019169   2.156   3.663  13.340  0.6175 -0.4305  0.1637
  159DOPC  H10R19170   2.186   3.666  13.446 -1.0734  0.1423  0.6606
  159DOPC  C21119171   2.263   3.649  13.230  0.1987  0.2492  0.5129
  159DOPC  H11R19172   2.220   3.692  13.137 -0.5796  0.5388  1.0002
  159DOPC  H11S19173   2.288   3.541  13.220 -1.8489 -0.2367  0.2782
  159DOPC  C21219174   2.404   3.713  13.252  0.1182 -0.2283 -0.5409
  159DOPC  H12R19175   2.460   3.675  13.341 -0.7386  0.2772  0.2373
  159DOPC  H12S19176   2.391   3.823  13.267  0.3658 -0.0856 -1.3382
  159DOPC  C21319177   2.494   3.698  13.135 -0.1140  0.3174 -0.3021
  159DOPC  H13R19178   2.584   3.762  13.146 -1.0804  1.7935 -0.7663
  159DOPC  H13S19179   2.438   3.715  13.040  0.9930  0.1592 -0.9992
  159DOPC  C21419180   2.555   3.550  13.130 -0.9543  0.0209  0.6115
  159DOPC  H14R19181   2.469   3.481  13.118 -1.3313  0.4484  0.8453
  159DOPC  H14S19182   2.606   3.520  13.225 -0.7174 -0.0254  0.4711
  159DOPC  C21519183   2.663   3.535  13.022  0.2317  0.4725  0.5430
  159DOPC  H15R19184   2.688   3.426  13.019 -1.5421  0.0622 -0.5975
  159DOPC  H15S19185   2.743   3.605  13.055 -0.1400  0.9953  0.3454
  159DOPC  C21619186   2.618   3.584  12.884 -0.6967  0.6060  0.4685
  159DOPC  H16R19187   2.586   3.690  12.898 -0.9562  0.4109  1.4103
  159DOPC  H16S19188   2.526   3.528  12.857 -0.7778  0.9307  0.0511
  159DOPC  C21719189   2.732   3.560  12.783 -0.3789  0.6018 -0.0169
  159DOPC  H17R19190   2.763   3.454  12.777  0.4202  0.6707  2.0748
  159DOPC  H17S19191   2.815   3.628  12.812 -0.1500 -0.3992  1.7822
  159DOPC  C21819192   2.691   3.597  12.641  0.2606 -1.3459  0.8125
  159DOPC  H18R19193   2.620   3.520  12.604 -3.1149  1.3251  1.2623
  159DOPC  H18S19194   2.785   3.591  12.581  0.4672  0.8639  0.8560
  159DOPC  H18T19195   2.639   3.695  12.639 -0.0953 -1.5088 -1.8388
  159DOPC   C3319196   1.100   3.497  13.517 -0.4065  0.0815  0.4572
  159DOPC   H3X19197   1.116   3.606  13.509  1.0074 -0.1089  0.4781
  159DOPC   H3Y19198   0.991   3.485  13.538 -0.6659 -1.4642 -1.5072
  159DOPC   C3419199   1.117   3.452  13.370  0.1590 -0.2063  0.1284
  159DOPC   H4X19200   1.060   3.516  13.298  1.3640 -1.1531 -1.7541
  159DOPC   H4Y19201   1.078   3.348  13.366 -0.3418 -0.0305 -3.3461
  159DOPC   C3519202   1.266   3.462  13.323  0.6127  0.1002  0.0046
  159DOPC   H5X19203   1.313   3.373  13.369  1.0803  0.8434  0.9707
  159DOPC   H5Y19204   1.322   3.547  13.367  1.9257 -0.8723  0.2389
  159DOPC   C3619205   1.293   3.461  13.173 -0.3037  0.3068 -0.2897
  159DOPC   H6X19206   1.214   3.410  13.114  0.2327 -1.9861  0.8817
  159DOPC   H6Y19207   1.306   3.565  13.136  1.5138 -0.6730 -2.6823
  159DOPC   C3719208   1.427   3.393  13.136  0.6171 -0.4258  0.2127
  159DOPC   H7X19209   1.506   3.439  13.200 -0.4389  0.6589  0.7754
  159DOPC   H7Y19210   1.433   3.286  13.162  2.5516 -0.9972 -2.1360
  159DOPC   C3819211   1.460   3.411  12.987 -0.0779  0.1273  0.2935
  159DOPC   H8X19212   1.372   3.374  12.929  0.1436  0.5381 -0.3094
  159DOPC   H8Y19213   1.543   3.342  12.960 -0.1343  0.1288  0.1157
  159DOPC   C3919214   1.493   3.558  12.950 -0.0649  0.0896  0.2406
  159DOPC   H9X19215   1.555   3.610  13.025  1.5032 -0.7339 -0.4322
  159DOPC  C31019216   1.458   3.618  12.838 -0.1093 -0.9703  0.1163
  159DOPC  H10X19217   1.492   3.721  12.817 -0.7189 -0.7757  0.0602
  159DOPC  C31119218   1.386   3.544  12.728 -0.2749 -0.6605  0.2564
  159DOPC  H11X19219   1.291   3.597  12.706  0.5719  0.4325 -0.9045
  159DOPC  H11Y19220   1.352   3.440  12.748  0.2607 -1.1854 -1.4291
  159DOPC  C31219221   1.455   3.531  12.585 -0.0639  0.2214 -0.6655
  159DOPC  H12X19222   1.551   3.478  12.602 -0.8685 -0.3189  3.1694
  159DOPC  H12Y19223   1.473   3.630  12.537  0.8340 -0.0317 -0.8553
  159DOPC  C31319224   1.369   3.454  12.486 -0.2101 -0.4604  0.8697
  159DOPC  H13X19225   1.310   3.376  12.537  0.4848 -1.1141  0.6975
  159DOPC  H13Y19226   1.296   3.519  12.434  0.1466 -0.5908  0.1952
  159DOPC  C31419227   1.462   3.380  12.384  0.1492  0.0242 -0.7995
  159DOPC  H14X19228   1.523   3.308  12.442  0.1361 -0.5751 -1.5198
  159DOPC  H14Y19229   1.384   3.328  12.326 -0.3476  0.5749 -0.6405
  159DOPC  C31519230   1.531   3.456  12.276  0.5021  0.1014 -0.3634
  159DOPC  H15X19231   1.547   3.374  12.203 -2.9437 -1.8949  0.9101
  159DOPC  H15Y19232   1.632   3.494  12.303  0.6157  0.0039 -0.6534
  159DOPC  C31619233   1.436   3.554  12.206  0.1216 -0.1367  0.3460
  159DOPC  H16X19234   1.350   3.509  12.151 -1.1239  2.8913 -0.3359
  159DOPC  H16Y19235   1.393   3.616  12.287  2.5324  1.1017  0.7827
  159DOPC  C31719236   1.490   3.645  12.089  0.0914  0.1667 -0.2855
  159DOPC  H17X19237   1.570   3.711  12.130  1.3033 -1.0549 -0.6182
  159DOPC  H17Y19238   1.539   3.582  12.011 -2.1395 -0.7806 -1.0087
  159DOPC  C31819239   1.387   3.729  12.024  0.1953 -0.2571 -0.5178
  159DOPC  H18X19240   1.434   3.801  11.953 -1.0327  0.7625 -0.3208
  159DOPC  H18Y19241   1.314   3.665  11.970  2.0202 -2.5345 -0.4347
  159DOPC  H18Z19242   1.329   3.790  12.096  1.6981  0.6762 -0.0514
  160DOPC     N19243   2.737   1.162  13.800  0.0641 -0.2019  0.3115
  160DOPC   C1219244   2.589   1.159  13.764  0.7255  0.3035 -0.7763
  160DOPC  H12A19245   2.542   1.196  13.854 -0.1068  0.2177 -1.1650
  160DOPC  H12B19246   2.557   1.062  13.730  0.5981  0.2006 -0.3657
  160DOPC   C1319247   2.832   1.117  13.693  0.1701  0.0848  1.3676
  160DOPC  H13A19248   2.813   1.021  13.648  0.6398  1.3707 -1.9231
  160DOPC  H13B19249   2.834   1.179  13.604 -0.4329 -1.3883  0.2984
  160DOPC  H13C19250   2.930   1.117  13.738  0.9406  1.5996 -0.1395
  160DOPC   C1419251   2.750   1.080  13.926  0.0121 -0.1691  0.0986
  160DOPC  H14A19252   2.856   1.075  13.948  0.2390  2.2536 -0.2190
  160DOPC  H14B19253   2.694   1.124  14.007 -1.7951 -0.9914 -0.6443
  160DOPC  H14C19254   2.710   0.980  13.914 -0.5673  0.3374 -3.1060
  160DOPC   C1519255   2.777   1.305  13.832 -0.1650 -0.0971 -0.4156
  160DOPC  H15A19256   2.731   1.327  13.927  0.2831 -3.2965  0.6629
  160DOPC  H15B19257   2.766   1.377  13.753  0.1601 -0.1462 -0.5045
  160DOPC  H15C19258   2.881   1.310  13.860 -0.1093 -0.7429 -0.5021
  160DOPC   C1119259   2.542   1.250  13.654  0.7610 -0.1912 -0.1642
  160DOPC  H11A19260   2.592   1.349  13.648 -0.8372  0.7278  0.8233
  160DOPC  H11B19261   2.565   1.201  13.557 -1.0331 -2.0843  0.3064
  160DOPC     P19262   2.291   1.186  13.595  0.4613  0.1380 -0.3336
  160DOPC   O1319263   2.164   1.244  13.635 -0.4127 -0.2921  0.6126
  160DOPC   O1419264   2.310   1.041  13.610 -0.5991 -0.2408 -0.4163
  160DOPC   O1219265   2.402   1.271  13.673  0.0199 -0.8826  0.0204
  160DOPC   O1119266   2.312   1.222  13.440  0.4772 -0.1402  0.3414
  160DOPC    C119267   2.293   1.350  13.391  0.2450 -0.1751 -0.1262
  160DOPC    HA19268   2.326   1.426  13.465 -0.8873  0.4066 -0.1812
  160DOPC    HB19269   2.185   1.361  13.366  0.2711 -1.4194 -0.8411
  160DOPC    C219270   2.382   1.379  13.266  0.2985  0.4151  0.4250
  160DOPC    HS19271   2.382   1.489  13.250  0.3516  0.5105  1.0541
  160DOPC   O2119272   2.326   1.305  13.154  0.2011  0.0955 -0.0168
  160DOPC   C2119273   2.343   1.367  13.034 -0.1999  0.4720 -0.1605
  160DOPC   O2219274   2.403   1.471  13.020  0.1460 -0.4369 -0.7166
  160DOPC   C2219275   2.313   1.265  12.927  0.6494 -0.1927  0.2525
  160DOPC   H2R19276   2.203   1.272  12.917  0.2833 -1.6418  2.4270
  160DOPC   H2S19277   2.332   1.159  12.954 -0.6357 -1.0284 -1.8167
  160DOPC    C319278   2.526   1.341  13.295  0.0280 -0.3633 -0.0036
  160DOPC    HX19279   2.535   1.234  13.324  1.2466 -0.0709  0.8076
  160DOPC    HY19280   2.551   1.403  13.384 -0.6698 -0.2675  0.1304
  160DOPC   O3119281   2.607   1.365  13.179 -0.2603 -0.0095  0.4039
  160DOPC   C3119282   2.738   1.352  13.191 -0.2342 -0.5040 -0.7607
  160DOPC   O3219283   2.796   1.311  13.290  0.1489  0.0740  0.2228
  160DOPC   C3219284   2.804   1.395  13.065 -0.8002 -0.6730  0.0830
  160DOPC   H2X19285   2.732   1.417  12.983 -0.2230  1.5177  0.0871
  160DOPC   H2Y19286   2.861   1.490  13.077 -1.3196 -0.2007 -1.0268
  160DOPC   C2319287   2.371   1.309  12.789 -0.3800  0.0808 -0.0500
  160DOPC   H3R19288   2.482   1.304  12.779 -0.5247 -1.2713 -1.4919
  160DOPC   H3S19289   2.364   1.419  12.781  2.1286  0.5695  2.5966
  160DOPC   C2419290   2.307   1.239  12.672 -0.7372 -0.0799 -0.0162
  160DOPC   H4R19291   2.206   1.200  12.696 -0.6722 -2.0126 -2.5007
  160DOPC   H4S19292   2.368   1.150  12.649  0.8051  1.3124 -1.6537
  160DOPC   C2519293   2.294   1.318  12.539 -0.0668 -0.6392  0.8059
  160DOPC   H5R19294   2.394   1.363  12.523  0.4516 -1.5755  1.3204
  160DOPC   H5S19295   2.219   1.399  12.553 -0.6382 -1.4601  2.9182
  160DOPC   C2619296   2.252   1.219  12.424 -0.1360 -0.6497 -0.1792
  160DOPC   H6R19297   2.143   1.200  12.439 -0.2019 -0.6840 -0.6950
  160DOPC   H6S19298   2.299   1.119  12.441 -1.9298 -1.7301 -1.2285
  160DOPC   C2719299   2.279   1.276  12.286  0.3742  0.6159  0.0178
  160DOPC   H7R19300   2.388   1.299  12.286  0.6489 -0.5281  1.6322
  160DOPC   H7S19301   2.222   1.371  12.296 -0.4061 -0.0266  2.2055
  160DOPC   C2819302   2.228   1.181  12.176  0.6093  0.0652 -0.0845
  160DOPC   H8R19303   2.118   1.182  12.159  0.5979  1.5141 -0.0527
  160DOPC   H8S19304   2.255   1.078  12.208  1.3929  0.2396 -0.1683
  160DOPC   C2919305   2.312   1.195  12.051  0.6058 -0.4617 -0.4027
  160DOPC   H9R19306   2.321   1.300  12.019  3.5681 -0.7455 -0.7302
  160DOPC  C21019307   2.364   1.096  11.970 -0.4926 -0.0169 -0.4929
  160DOPC  H10R19308   2.420   1.118  11.878  0.3901 -0.7053 -0.1367
  160DOPC  C21119309   2.360   0.944  11.985  0.5438  0.3021  0.0677
  160DOPC  H11R19310   2.300   0.909  12.071 -1.1398  1.0706 -0.7459
  160DOPC  H11S19311   2.465   0.913  12.007  0.4593  0.0159  0.0623
  160DOPC  C21219312   2.299   0.857  11.872  0.1845 -0.1208 -0.4547
  160DOPC  H12R19313   2.196   0.891  11.846 -0.8921 -2.0409  1.0416
  160DOPC  H12S19314   2.283   0.757  11.917  1.5972 -0.5423 -0.8511
  160DOPC  C21319315   2.380   0.851  11.747 -0.2910  0.2693  0.2759
  160DOPC  H13R19316   2.476   0.803  11.773 -0.4754 -0.7161 -0.7877
  160DOPC  H13S19317   2.379   0.955  11.707  0.0489  0.1436 -0.0642
  160DOPC  C21419318   2.321   0.763  11.635  0.7582 -0.0189  0.2136
  160DOPC  H14R19319   2.221   0.797  11.601  0.2172 -0.2284  1.5405
  160DOPC  H14S19320   2.306   0.662  11.679 -1.9963 -0.9246 -2.4910
  160DOPC  C21519321   2.416   0.738  11.516  0.2651 -0.2810  0.0390
  160DOPC  H15R19322   2.516   0.727  11.562  0.3724  1.4070  0.2811
  160DOPC  H15S19323   2.415   0.832  11.456  0.2097 -1.1755 -1.4000
  160DOPC  C21619324   2.387   0.622  11.426  0.2870  1.2473 -0.9421
  160DOPC  H16R19325   2.283   0.623  11.387 -0.6253  0.5385  1.3164
  160DOPC  H16S19326   2.391   0.537  11.497  1.2281  1.3112 -0.9095
  160DOPC  C21719327   2.495   0.581  11.323  0.3875  0.2700 -0.1424
  160DOPC  H17R19328   2.495   0.470  11.314 -0.1687  0.2104  0.5401
  160DOPC  H17S19329   2.593   0.593  11.373  0.5054 -2.7565  0.5451
  160DOPC  C21819330   2.484   0.652  11.192  0.1417 -0.2837  1.1563
  160DOPC  H18R19331   2.580   0.686  11.148  0.9997 -3.7143  0.0961
  160DOPC  H18S19332   2.416   0.739  11.206  0.3068 -0.0714  0.6735
  160DOPC  H18T19333   2.426   0.585  11.124 -1.4034 -0.3215  2.4673
  160DOPC   C3319334   2.899   1.277  13.007 -0.9749  0.3104 -0.3657
  160DOPC   H3X19335   2.846   1.179  12.998  0.5360 -0.5457 -0.1834
  160DOPC   H3Y19336   2.975   1.265  13.086 -3.9896  1.5244  2.9939
  160DOPC   C3419337   2.947   1.309  12.872 -0.0009 -1.1462  0.6808
  160DOPC   H4X19338   3.027   1.234  12.855 -0.0401 -1.1339  0.4337
  160DOPC   H4Y19339   3.007   1.401  12.886  0.1369 -0.7373 -1.9905
  160DOPC   C3519340   2.850   1.308  12.757  0.1193  0.4237  0.1107
  160DOPC   H5X19341   2.760   1.372  12.769 -0.5374 -0.6667  1.2764
  160DOPC   H5Y19342   2.814   1.206  12.729  1.9403 -0.2728  0.1644
  160DOPC   C3619343   2.921   1.352  12.621  0.3424  0.1493  0.7593
  160DOPC   H6X19344   2.964   1.451  12.646  0.9481 -0.1078  0.7398
  160DOPC   H6Y19345   2.996   1.273  12.599 -1.7375 -2.0700  1.1970
  160DOPC   C3719346   2.834   1.379  12.497 -1.0400  0.1633 -0.3629
  160DOPC   H7X19347   2.735   1.412  12.535 -0.2883  0.1004  1.7524
  160DOPC   H7Y19348   2.870   1.468  12.442  0.1035  1.2070  1.9405
  160DOPC   C3819349   2.829   1.257  12.403 -0.5401 -0.0150  0.6889
  160DOPC   H8X19350   2.806   1.165  12.461  0.4270 -1.5158 -1.1838
  160DOPC   H8Y19351   2.930   1.247  12.359 -0.6941 -0.6914  0.4786
  160DOPC   C3919352   2.722   1.284  12.306 -1.1338 -0.4453  0.2991
  160DOPC   H9X19353   2.690   1.389  12.301  1.6591  0.4528 -0.8308
  160DOPC  C31019354   2.680   1.200  12.212 -0.4328 -0.0016  0.3824
  160DOPC  H10X19355   2.600   1.230  12.143  0.6195  0.3557 -0.7220
  160DOPC  C31119356   2.732   1.059  12.199  0.0110 -0.0409  0.2698
  160DOPC  H11X19357   2.640   1.000  12.181 -0.4237  1.2775 -2.3592
  160DOPC  H11Y19358   2.788   1.021  12.287  0.6966 -0.9155 -0.5374
  160DOPC  C31219359   2.822   1.050  12.072 -0.7749  0.7098  0.0137
  160DOPC  H12X19360   2.865   0.948  12.071  1.1232  1.4785  0.1371
  160DOPC  H12Y19361   2.902   1.127  12.074 -1.5930  1.6627 -1.6754
  160DOPC  C31319362   2.740   1.078  11.942  0.8162 -0.3185 -0.1350
  160DOPC  H13X19363   2.663   1.001  11.921 -0.9280  1.1157  0.7453
  160DOPC  H13Y19364   2.693   1.177  11.960 -0.5262 -1.4750  3.6183
  160DOPC  C31419365   2.821   1.082  11.811 -0.3689 -0.1799  0.3301
  160DOPC  H14X19366   2.893   1.166  11.827 -2.1970  1.2485  1.5784
  160DOPC  H14Y19367   2.876   0.986  11.819 -0.3020 -0.0489  1.5525
  160DOPC  C31519368   2.744   1.087  11.679 -0.3603  0.2133  0.0962
  160DOPC  H15X19369   2.672   1.171  11.683 -0.6681 -0.0505  0.0663
  160DOPC  H15Y19370   2.691   0.990  11.670 -0.8226  0.3524  1.1739
  160DOPC  C31619371   2.827   1.093  11.549  0.2208 -0.0777 -0.2682
  160DOPC  H16X19372   2.874   1.192  11.529  0.4503  0.3989  2.2982
  160DOPC  H16Y19373   2.905   1.018  11.574 -0.9247 -0.6792  1.6095
  160DOPC  C31719374   2.751   1.060  11.418 -0.3883  1.0092 -0.1098
  160DOPC  H17X19375   2.700   0.962  11.420 -1.6545  1.6536  1.5996
  160DOPC  H17Y19376   2.672   1.132  11.387 -0.4278 -0.0623 -2.7957
  160DOPC  C31819377   2.841   1.071  11.294 -0.3922  0.3641 -0.0134
  160DOPC  H18X19378   2.885   1.172  11.279  0.9192 -0.0778  0.7234
  160DOPC  H18Y19379   2.909   0.983  11.292  0.7291  1.0763  2.6141
  160DOPC  H18Z19380   2.785   1.052  11.200  0.7784 -2.5656 -0.2181
  161DOPC     N19381   0.136   0.566  13.319 -0.3914  0.0322 -0.4862
  161DOPC   C1219382   0.115   0.716  13.273 -0.2443  0.3334 -0.3689
  161DOPC  H12A19383   0.176   0.777  13.338  2.0921  0.0130 -2.1401
  161DOPC  H12B19384   0.010   0.742  13.273 -0.5465 -0.7175 -2.3526
  161DOPC   C1319385   0.074   0.463  13.237  0.6625 -0.4951 -0.2452
  161DOPC  H13A19386  -0.029   0.489  13.216  0.8652  0.9107  0.4025
  161DOPC  H13B19387   0.123   0.456  13.141 -0.7720  3.1884 -1.3930
  161DOPC  H13C19388   0.073   0.364  13.281 -1.6109 -0.1479  0.6408
  161DOPC   C1419389   0.087   0.556  13.456  0.1705  0.8215  0.0591
  161DOPC  H14A19390   0.114   0.638  13.521 -1.3030 -0.3733  2.3354
  161DOPC  H14B19391  -0.019   0.542  13.470  0.3201  0.5886  1.0212
  161DOPC  H14C19392   0.136   0.471  13.502  1.2957  1.4285 -0.0008
  161DOPC   C1519393   0.280   0.544  13.334 -0.3634 -0.0072 -0.5900
  161DOPC  H15A19394   0.333   0.567  13.243  0.9062  1.9093  0.5524
  161DOPC  H15B19395   0.287   0.441  13.366 -0.4407 -0.1559 -1.0526
  161DOPC  H15C19396   0.319   0.605  13.414  1.0577 -1.0804 -0.4365
  161DOPC   C1119397   0.172   0.754  13.132  0.1485 -0.0505  0.6669
  161DOPC  H11A19398   0.122   0.687  13.058  1.0746 -0.3208  0.2704
  161DOPC  H11B19399   0.146   0.859  13.108 -0.3154 -0.2279  0.3740
  161DOPC     P19400   0.410   0.844  13.176 -0.5945 -0.0960 -0.4048
  161DOPC   O1319401   0.529   0.776  13.225  0.1914  0.6874 -0.4236
  161DOPC   O1419402   0.332   0.918  13.276 -0.1642 -0.4057  0.2182
  161DOPC   O1219403   0.310   0.734  13.118 -0.6550  0.0084 -0.1720
  161DOPC   O1119404   0.441   0.927  13.048  0.1596  0.1395  0.1396
  161DOPC    C119405   0.346   1.020  12.993 -0.3620 -0.2434  0.2309
  161DOPC    HA19406   0.291   1.074  13.073  2.6328  3.1273  0.2811
  161DOPC    HB19407   0.288   0.962  12.919  2.0938 -0.6349 -1.5460
  161DOPC    C219408   0.414   1.127  12.900  0.2885 -0.1299  0.1209
  161DOPC    HS19409   0.348   1.214  12.879  2.9234  1.4508 -2.3078
  161DOPC   O2119410   0.467   1.081  12.776  0.0270  0.1131  0.2377
  161DOPC   C2119411   0.385   1.051  12.673  0.8534 -0.1132 -0.1199
  161DOPC   O2219412   0.265   1.082  12.676 -0.6691 -0.0870 -0.1881
  161DOPC   C2219413   0.461   1.004  12.550  0.3053  0.5753  0.0615
  161DOPC   H2R19414   0.519   0.919  12.591 -1.9188 -1.2114 -0.3310
  161DOPC   H2S19415   0.534   1.084  12.523  0.9014  0.0765  0.1679
  161DOPC    C319416   0.528   1.201  12.971  0.1749  0.4162 -0.3821
  161DOPC    HX19417   0.616   1.133  12.969 -0.2449 -0.1487  0.0374
  161DOPC    HY19418   0.494   1.208  13.076 -1.6599  1.0151 -0.9708
  161DOPC   O3119419   0.546   1.332  12.911 -0.5186  0.3397 -0.1073
  161DOPC   C3119420   0.672   1.370  12.922 -0.2245 -0.2754  0.4885
  161DOPC   O3219421   0.755   1.307  12.985 -0.3444 -0.7217 -0.2418
  161DOPC   C3219422   0.702   1.490  12.836  0.2997  0.6019 -0.3932
  161DOPC   H2X19423   0.658   1.577  12.889 -1.8024 -0.2026 -0.6866
  161DOPC   H2Y19424   0.811   1.501  12.819  0.6998 -1.8671  0.1969
  161DOPC   C2319425   0.367   0.980  12.429  0.4878  1.1091 -0.4522
  161DOPC   H3R19426   0.297   1.064  12.417 -0.5138  0.2267 -0.9490
  161DOPC   H3S19427   0.313   0.884  12.445  1.0742  0.6788 -0.9877
  161DOPC   C2419428   0.451   0.977  12.295  0.6569  0.4434  0.4773
  161DOPC   H4R19429   0.512   0.884  12.293  0.8613  0.5872 -0.0439
  161DOPC   H4S19430   0.527   1.056  12.280  0.5250  0.0107 -3.3878
  161DOPC   C2519431   0.363   0.975  12.175 -0.8479  0.1764  0.2321
  161DOPC   H5R19432   0.312   1.074  12.172 -0.7753  0.2447  0.9280
  161DOPC   H5S19433   0.281   0.905  12.200  0.2058 -1.1481  0.0646
  161DOPC   C2619434   0.417   0.934  12.034  0.2416 -0.4149  0.1631
  161DOPC   H6R19435   0.468   0.835  12.032  1.0627 -0.0665  1.7994
  161DOPC   H6S19436   0.500   1.006  12.015 -0.7353  1.2633  1.9761
  161DOPC   C2719437   0.304   0.929  11.929  0.3546  0.1935  0.6165
  161DOPC   H7R19438   0.253   1.027  11.917 -2.5612 -1.2591  0.0803
  161DOPC   H7S19439   0.231   0.854  11.967 -0.5370  0.1722 -1.0485
  161DOPC   C2819440   0.355   0.885  11.793 -0.0268  0.1697  0.2937
  161DOPC   H8R19441   0.277   0.878  11.715  0.2071  1.3278 -0.0480
  161DOPC   H8S19442   0.395   0.781  11.804  0.1658  0.4246  2.4993
  161DOPC   C2919443   0.457   0.974  11.727  0.1560  0.3107 -0.2854
  161DOPC   H9R19444   0.508   1.040  11.800 -0.9893 -1.2490  2.0636
  161DOPC  C21019445   0.497   0.967  11.596 -0.6457 -0.6495  0.7101
  161DOPC  H10R19446   0.576   1.041  11.578 -1.4134 -0.0538 -0.2587
  161DOPC  C21119447   0.444   0.874  11.495 -0.9602  0.2619 -0.5839
  161DOPC  H11R19448   0.423   0.944  11.411 -0.6307  0.7750 -0.2424
  161DOPC  H11S19449   0.349   0.820  11.519 -0.0588 -1.5103 -0.8076
  161DOPC  C21219450   0.543   0.780  11.428 -0.5544 -0.1671  0.1393
  161DOPC  H12R19451   0.581   0.705  11.500  2.7321 -2.8380 -3.9004
  161DOPC  H12S19452   0.632   0.835  11.389 -0.1329  0.2310  1.5723
  161DOPC  C21319453   0.493   0.696  11.311  0.6737  0.3217 -0.2324
  161DOPC  H13R19454   0.431   0.751  11.237 -2.4777 -1.4471  0.8813
  161DOPC  H13S19455   0.410   0.641  11.361  2.8459 -0.3018  2.9345
  161DOPC  C21419456   0.594   0.601  11.242 -0.2435 -0.0889 -0.7519
  161DOPC  H14R19457   0.550   0.519  11.182  0.8187 -1.6530  0.5278
  161DOPC  H14S19458   0.664   0.556  11.315 -1.4655  1.0088  1.1801
  161DOPC  C21519459   0.684   0.678  11.145  0.2099 -0.0230  0.2917
  161DOPC  H15R19460   0.771   0.719  11.201  0.6914  0.6781 -0.9396
  161DOPC  H15S19461   0.622   0.761  11.106 -1.0650 -0.7332  0.7152
  161DOPC  C21619462   0.737   0.588  11.027  0.0036  0.2685  0.1220
  161DOPC  H16R19463   0.661   0.554  10.954 -1.1613 -2.3140  2.3229
  161DOPC  H16S19464   0.765   0.490  11.072 -2.4283 -0.7687 -0.4351
  161DOPC  C21719465   0.859   0.645  10.951  0.2955 -0.3901 -0.2478
  161DOPC  H17R19466   0.933   0.675  11.029 -0.5864  0.3561  0.3244
  161DOPC  H17S19467   0.835   0.736  10.891 -1.7387 -1.6071 -1.3887
  161DOPC  C21819468   0.941   0.547  10.865 -0.0266 -0.8525  0.1290
  161DOPC  H18R19469   0.883   0.511  10.778 -0.5953  0.7178 -0.1761
  161DOPC  H18S19470   0.964   0.454  10.921 -0.5961  1.1593  4.0795
  161DOPC  H18T19471   1.024   0.612  10.832  0.2388 -1.7611 -1.0543
  161DOPC   C3319472   0.635   1.480  12.693 -0.3261  0.2326  0.1440
  161DOPC   H3X19473   0.533   1.525  12.697 -0.0773  0.7991  0.1614
  161DOPC   H3Y19474   0.641   1.376  12.656  0.0525  0.4902 -0.5382
  161DOPC   C3419475   0.719   1.570  12.598 -0.2121 -0.2482  1.0083
  161DOPC   H4X19476   0.825   1.539  12.588 -0.9091 -2.7367  0.8235
  161DOPC   H4Y19477   0.710   1.671  12.644 -2.0750  0.5914 -1.0679
  161DOPC   C3519478   0.652   1.560  12.458  0.3047  0.0069  0.0112
  161DOPC   H5X19479   0.551   1.607  12.456 -0.2960 -1.2694 -1.4201
  161DOPC   H5Y19480   0.652   1.452  12.434  5.7782 -0.5828  1.3427
  161DOPC   C3619481   0.734   1.622  12.345 -0.2467 -0.7906 -0.7739
  161DOPC   H6X19482   0.784   1.708  12.395 -0.5074 -1.1401  0.1170
  161DOPC   H6Y19483   0.819   1.557  12.317  0.5685 -1.0967  2.0392
  161DOPC   C3719484   0.662   1.662  12.212  1.2381  0.0400  0.9535
  161DOPC   H7X19485   0.599   1.572  12.195  1.6827 -0.0986 -0.0090
  161DOPC   H7Y19486   0.610   1.757  12.235 -1.8652 -0.9965 -1.2267
  161DOPC   C3819487   0.749   1.680  12.088  0.4080  0.9717 -0.4524
  161DOPC   H8X19488   0.800   1.583  12.066  1.4733  1.4188 -0.0145
  161DOPC   H8Y19489   0.833   1.750  12.106  0.9692  0.0739  0.5246
  161DOPC   C3919490   0.668   1.729  11.976  0.3241 -0.4191  0.6059
  161DOPC   H9X19491   0.561   1.745  11.995  0.7316  1.4523  1.6110
  161DOPC  C31019492   0.714   1.752  11.846  0.1089  0.5821 -0.6345
  161DOPC  H10X19493   0.642   1.774  11.765 -0.9727  1.2674  0.4837
  161DOPC  C31119494   0.856   1.733  11.801 -0.3766 -0.4253 -0.2454
  161DOPC  H11X19495   0.898   1.647  11.858 -1.6668 -0.6129  0.4593
  161DOPC  H11Y19496   0.926   1.818  11.814 -0.1224 -0.9455  2.3306
  161DOPC  C31219497   0.850   1.702  11.649  0.5769  0.3791  0.0749
  161DOPC  H12X19498   0.847   1.793  11.587 -1.2855  0.7286  0.6232
  161DOPC  H12Y19499   0.772   1.627  11.622  1.7391 -0.1069 -2.0922
  161DOPC  C31319500   0.971   1.615  11.615 -0.4921 -0.0472  0.3562
  161DOPC  H13X19501   1.060   1.661  11.662  0.5931 -0.6239 -1.0644
  161DOPC  H13Y19502   0.956   1.520  11.670 -1.0654 -0.1856 -0.0274
  161DOPC  C31419503   0.997   1.585  11.468 -0.0760 -0.0426 -0.4030
  161DOPC  H14X19504   0.910   1.527  11.430 -0.2683 -0.9009  1.2340
  161DOPC  H14Y19505   1.011   1.681  11.413 -0.6338 -0.5807 -1.5161
  161DOPC  C31519506   1.120   1.493  11.466 -0.4709  0.2581 -0.3576
  161DOPC  H15X19507   1.116   1.416  11.546 -2.2895 -1.6697 -2.1562
  161DOPC  H15Y19508   1.198   1.566  11.494 -2.2084  1.9144  0.3980
  161DOPC  C31619509   1.142   1.415  11.331 -0.4713  0.0706  0.0892
  161DOPC  H16X19510   1.231   1.352  11.352 -0.0187  1.3841  2.5201
  161DOPC  H16Y19511   1.058   1.346  11.308  0.4846 -1.2340  0.4070
  161DOPC  C31719512   1.176   1.506  11.214  0.3888 -0.2987 -0.2418
  161DOPC  H17X19513   1.110   1.594  11.229 -0.5720 -1.3273  2.0044
  161DOPC  H17Y19514   1.281   1.541  11.224  0.2800 -0.2650  0.8206
  161DOPC  C31819515   1.143   1.453  11.078  0.2916 -0.0777 -0.1431
  161DOPC  H18X19516   1.158   1.523  10.994  1.1662 -0.0444  0.0325
  161DOPC  H18Y19517   1.198   1.359  11.054  0.9670 -0.0652  1.2749
  161DOPC  H18Z19518   1.037   1.419  11.075 -0.0075  0.8435 -0.1171
  162DOPC     N19519   5.721   0.917  14.079  0.0743 -0.0546 -0.4954
  162DOPC   C1219520   5.740   0.823  13.961 -0.4565  0.1298 -0.4682
  162DOPC  H12A19521   5.843   0.794  13.977 -0.8286  0.1330  2.6426
  162DOPC  H12B19522   5.734   0.873  13.865 -2.8412 -1.0247 -0.9886
  162DOPC   C1319523   5.588   0.981  14.073 -0.1374  0.1424 -0.4041
  162DOPC  H13A19524   5.512   0.906  14.056  0.6240 -0.4992 -1.0248
  162DOPC  H13B19525   5.566   1.036  14.164 -2.9034 -1.3284 -0.0612
  162DOPC  H13C19526   5.577   1.040  13.983  1.2659  0.2255 -0.5474
  162DOPC   C1419527   5.830   1.019  14.072 -0.2731  0.2941  0.4762
  162DOPC  H14A19528   5.816   1.093  14.150  1.1130  0.2547  0.7836
  162DOPC  H14B19529   5.926   0.974  14.088 -1.2359 -2.3868 -0.7056
  162DOPC  H14C19530   5.834   1.077  13.980 -0.7036  0.6929  0.7030
  162DOPC   C1519531   5.739   0.846  14.220  0.1842  0.3357  0.4303
  162DOPC  H15A19532   5.710   0.890  14.314 -0.7779 -2.1933  1.4035
  162DOPC  H15B19533   5.842   0.819  14.234 -0.1409 -0.8077  0.7089
  162DOPC  H15C19534   5.691   0.749  14.218 -2.1920  1.3059  3.4857
  162DOPC   C1119535   5.653   0.690  13.948 -0.0763 -0.0740 -0.4409
  162DOPC  H11A19536   5.689   0.620  13.870 -2.3002  0.0587 -1.6625
  162DOPC  H11B19537   5.653   0.638  14.046 -1.6834 -0.3798 -0.5765
  162DOPC     P19538   5.496   0.786  13.766 -0.0044 -0.1051  0.0848
  162DOPC   O1319539   5.596   0.885  13.714  0.1770 -0.0883 -0.5999
  162DOPC   O1419540   5.355   0.832  13.770  0.0628 -0.1707  0.5172
  162DOPC   O1219541   5.520   0.733  13.913 -0.3281  0.1815 -0.4049
  162DOPC   O1119542   5.512   0.650  13.682  0.2668 -0.4861  0.5110
  162DOPC    C119543   5.439   0.533  13.719  0.3812  0.2173  0.1921
  162DOPC    HA19544   5.388   0.543  13.817  2.5971  1.4959  1.2997
  162DOPC    HB19545   5.516   0.454  13.736 -0.7039 -1.2730 -1.4539
  162DOPC    C219546   5.350   0.475  13.605  0.4078 -0.2211  0.5549
  162DOPC    HS19547   5.291   0.391  13.648 -1.8516  0.1764 -1.5765
  162DOPC   O2119548   5.423   0.443  13.484 -0.1154 -0.2634  0.2026
  162DOPC   C2119549   5.486   0.330  13.484  0.0680  0.2090  0.9513
  162DOPC   O2219550   5.487   0.250  13.574 -0.1302 -0.0805  0.2335
  162DOPC   C2219551   5.543   0.312  13.341 -0.0644  0.5215 -0.0798
  162DOPC   H2R19552   5.545   0.202  13.327  1.0700  0.4869  0.2051
  162DOPC   H2S19553   5.646   0.352  13.352  0.1629 -0.3549  1.2770
  162DOPC    C319554   5.231   0.575  13.585 -0.0783  0.3545 -0.1607
  162DOPC    HX19555   5.267   0.679  13.571  0.7042  0.2045  0.6447
  162DOPC    HY19556   5.172   0.578  13.679  0.2388  1.8917  0.0094
  162DOPC   O3119557   5.143   0.527  13.486 -0.1012 -0.5106 -0.0100
  162DOPC   C3119558   5.146   0.560  13.361  0.3730  0.6954 -0.4242
  162DOPC   O3219559   5.242   0.614  13.306  0.0955 -0.1516 -0.0013
  162DOPC   C3219560   5.008   0.537  13.298 -0.0708 -0.9602  0.3599
  162DOPC   H2X19561   4.949   0.458  13.348  1.0641 -1.6199  0.6978
  162DOPC   H2Y19562   4.960   0.637  13.300  2.2196  0.1980  1.7423
  162DOPC   C2319563   5.467   0.376  13.223 -0.6182 -0.5502 -0.3738
  162DOPC   H3R19564   5.492   0.483  13.211  0.0610 -0.7831 -1.0921
  162DOPC   H3S19565   5.357   0.381  13.235 -0.5359  2.3848 -0.2173
  162DOPC   C2419566   5.504   0.299  13.094 -0.1030 -0.6115  0.2777
  162DOPC   H4R19567   5.473   0.193  13.089  1.2091 -0.9797 -0.7393
  162DOPC   H4S19568   5.615   0.298  13.094 -0.0472  1.1462  1.5463
  162DOPC   C2519569   5.448   0.372  12.979 -0.4094  0.4143  0.6506
  162DOPC   H5R19570   5.482   0.477  12.984 -1.1529  0.6197  1.6548
  162DOPC   H5S19571   5.338   0.379  12.993 -0.4969 -0.3983  0.4555
  162DOPC   C2619572   5.486   0.317  12.834 -0.3831  0.2567  0.3427
  162DOPC   H6R19573   5.461   0.209  12.831  0.1284  0.1356  0.4314
  162DOPC   H6S19574   5.594   0.333  12.812 -0.3548 -1.6822 -1.2338
  162DOPC   C2719575   5.421   0.401  12.729 -0.1568 -0.3885 -0.2686
  162DOPC   H7R19576   5.431   0.507  12.762  1.0691  0.0953 -2.0394
  162DOPC   H7S19577   5.313   0.375  12.723 -0.5083  1.2365 -1.8770
  162DOPC   C2819578   5.496   0.404  12.593  0.6198 -0.1834  0.0753
  162DOPC   H8R19579   5.598   0.447  12.598  0.4594  0.5444 -1.8858
  162DOPC   H8S19580   5.447   0.479  12.527  0.9885  0.8229  0.9185
  162DOPC   C2919581   5.499   0.267  12.524 -0.2524 -0.2100 -0.0851
  162DOPC   H9R19582   5.537   0.185  12.587  0.5322  0.6944  0.6534
  162DOPC  C21019583   5.451   0.241  12.399 -0.4365  0.1114  0.0216
  162DOPC  H10R19584   5.451   0.140  12.357  1.3170 -0.2977  0.9583
  162DOPC  C21119585   5.385   0.341  12.304 -0.3097  1.0587 -0.7291
  162DOPC  H11R19586   5.415   0.311  12.201  0.4459 -2.3485  0.3274
  162DOPC  H11S19587   5.429   0.442  12.317 -2.2582  2.0014 -1.1681
  162DOPC  C21219588   5.232   0.331  12.305 -0.3859  0.6426 -0.2070
  162DOPC  H12R19589   5.197   0.336  12.410 -1.5503 -0.1504 -0.5437
  162DOPC  H12S19590   5.209   0.232  12.260  0.3763  0.3633 -0.0007
  162DOPC  C21319591   5.155   0.450  12.234 -0.2759  0.9349  0.1623
  162DOPC  H13R19592   5.166   0.543  12.294  0.9570  0.6403  0.4122
  162DOPC  H13S19593   5.048   0.421  12.243 -0.0364  0.5000  1.9879
  162DOPC  C21419594   5.176   0.480  12.088 -0.0704 -0.5792  0.9876
  162DOPC  H14R19595   5.178   0.391  12.023 -0.6633 -0.1383  0.3457
  162DOPC  H14S19596   5.275   0.528  12.074 -0.2676 -0.0148  1.4848
  162DOPC  C21519597   5.057   0.572  12.040 -0.6725  0.2229 -0.5672
  162DOPC  H15R19598   5.041   0.654  12.112  0.1720 -0.2540  0.1768
  162DOPC  H15S19599   4.970   0.505  12.027 -2.8244  2.0917  2.8304
  162DOPC  C21619600   5.079   0.643  11.908 -0.4992 -0.4534 -0.2577
  162DOPC  H16R19601   5.179   0.615  11.871 -0.0174  0.1277  0.5727
  162DOPC  H16S19602   5.087   0.751  11.935  2.4441 -0.6998  0.1089
  162DOPC  C21719603   4.985   0.609  11.794 -0.1020  0.4734  0.3638
  162DOPC  H17R19604   4.885   0.643  11.828 -0.1456 -1.1174  1.9326
  162DOPC  H17S19605   4.984   0.499  11.788  1.5076  0.4203  0.6210
  162DOPC  C21819606   5.027   0.661  11.655 -0.0590 -1.2314 -0.1752
  162DOPC  H18R19607   5.131   0.633  11.627  0.5754  1.5269 -0.9850
  162DOPC  H18S19608   5.031   0.772  11.667  1.9507 -1.4043  1.3873
  162DOPC  H18T19609   4.960   0.630  11.572  0.4932  1.5570 -1.8205
  162DOPC   C3319610   5.023   0.501  13.145 -0.2380  0.4625 -1.0832
  162DOPC   H3X19611   5.093   0.414  13.146 -1.5533 -0.6583 -2.0120
  162DOPC   H3Y19612   5.061   0.583  13.080  0.5875  0.6813 -0.3450
  162DOPC   C3419613   4.901   0.430  13.081 -0.0046  0.6947 -0.2591
  162DOPC   H4X19614   4.822   0.508  13.078  0.2983  1.0224  0.1174
  162DOPC   H4Y19615   4.869   0.347  13.148  1.2680  1.4283  1.3262
  162DOPC   C3519616   4.926   0.385  12.934 -0.1499 -0.1320  0.8795
  162DOPC   H5X19617   4.847   0.313  12.902 -0.3567 -0.7479  2.6668
  162DOPC   H5Y19618   5.028   0.343  12.923  0.4380  1.6667 -1.2244
  162DOPC   C3619619   4.921   0.503  12.838 -0.1594 -0.1939  0.1949
  162DOPC   H6X19620   4.820   0.549  12.838 -1.0542 -1.9958 -1.5029
  162DOPC   H6Y19621   4.993   0.585  12.857 -1.8636  1.1645  1.0876
  162DOPC   C3719622   4.946   0.466  12.691 -0.1020  0.2188  0.3351
  162DOPC   H7X19623   5.051   0.430  12.700  0.5047  1.6183 -0.7683
  162DOPC   H7Y19624   4.882   0.379  12.666 -0.4885  0.8449 -0.9557
  162DOPC   C3819625   4.945   0.583  12.587  0.4364  0.8456 -0.5480
  162DOPC   H8X19626   4.989   0.539  12.495  1.7463 -0.0056  0.4494
  162DOPC   H8Y19627   5.020   0.660  12.613  0.6637  0.9925 -1.6199
  162DOPC   C3919628   4.804   0.630  12.567 -0.5478 -0.5200 -0.5251
  162DOPC   H9X19629   4.771   0.696  12.649  1.7093  1.0596 -0.7976
  162DOPC  C31019630   4.716   0.574  12.481  0.7457 -0.5181 -0.2428
  162DOPC  H10X19631   4.623   0.631  12.490  1.9472  1.2540  2.3399
  162DOPC  C31119632   4.740   0.460  12.388 -0.5010  0.0340  0.1986
  162DOPC  H11X19633   4.653   0.391  12.401 -0.3743 -0.1723 -0.0437
  162DOPC  H11Y19634   4.834   0.405  12.411  0.0565  0.7425 -0.3488
  162DOPC  C31219635   4.735   0.504  12.237  0.2760  0.1262  0.6461
  162DOPC  H12X19636   4.788   0.425  12.180  1.3652  1.2237  0.0945
  162DOPC  H12Y19637   4.802   0.592  12.225  0.8311  0.0180  2.5822
  162DOPC  C31319638   4.593   0.528  12.182 -0.3593 -0.0768 -0.2592
  162DOPC  H13X19639   4.533   0.436  12.202 -0.1401 -0.3029 -0.6174
  162DOPC  H13Y19640   4.543   0.596  12.254 -1.7265  0.1776 -1.3958
  162DOPC  C31419641   4.591   0.565  12.038  0.1722 -0.0792  0.4755
  162DOPC  H14X19642   4.571   0.672  12.020 -0.6106 -0.4839 -1.2642
  162DOPC  H14Y19643   4.694   0.548  12.000  0.5618 -1.0155  1.8626
  162DOPC  C31519644   4.489   0.486  11.957 -0.1260 -0.9050 -0.0022
  162DOPC  H15X19645   4.390   0.508  12.003  0.4139  0.8305  0.3823
  162DOPC  H15Y19646   4.489   0.375  11.963 -1.5388 -1.0096 -1.2972
  162DOPC  C31619647   4.480   0.532  11.811 -0.4438  0.6490 -0.2558
  162DOPC  H16X19648   4.387   0.486  11.773 -0.5005  0.5990 -0.0585
  162DOPC  H16Y19649   4.466   0.642  11.806 -0.3286  0.6879  0.2070
  162DOPC  C31719650   4.602   0.488  11.727 -0.7059  0.0105 -0.1836
  162DOPC  H17X19651   4.690   0.541  11.768  0.1975 -0.6732 -1.1772
  162DOPC  H17Y19652   4.603   0.379  11.751 -1.5527 -0.2911 -1.4222
  162DOPC  C31819653   4.584   0.525  11.579  0.0865 -0.1508  0.2460
  162DOPC  H18X19654   4.683   0.511  11.530 -0.1535 -0.6751 -0.1003
  162DOPC  H18Y19655   4.506   0.459  11.536  0.3456  0.3406 -1.0344
  162DOPC  H18Z19656   4.559   0.630  11.554 -1.7323 -1.1673 -2.8063
  163DOPC     N19657   3.591   3.252  13.926  0.8563 -0.1085 -0.6458
  163DOPC   C1219658   3.658   3.390  13.886  0.2531  0.2427 -0.0422
  163DOPC  H12A19659   3.579   3.460  13.865  1.2037  1.2555 -0.3663
  163DOPC  H12B19660   3.725   3.370  13.804  1.1793 -0.4305  0.8615
  163DOPC   C1319661   3.506   3.206  13.807  0.2004 -0.4630 -0.2745
  163DOPC  H13A19662   3.565   3.168  13.725  1.2986  2.2078 -0.8144
  163DOPC  H13B19663   3.442   3.125  13.840  1.9430 -2.7020 -2.0482
  163DOPC  H13C19664   3.447   3.289  13.769 -0.7552 -0.0174  2.0556
  163DOPC   C1419665   3.507   3.259  14.052  0.0672  0.0437  0.1447
  163DOPC  H14A19666   3.435   3.339  14.042 -0.7437 -0.7673 -0.6544
  163DOPC  H14B19667   3.446   3.172  14.073 -0.9982  0.8266  0.3770
  163DOPC  H14C19668   3.576   3.257  14.135  1.1190  0.7850 -0.6796
  163DOPC   C1519669   3.692   3.153  13.953 -0.1478  0.0171  0.2029
  163DOPC  H15A19670   3.781   3.194  14.000  0.7717 -0.5010 -1.0238
  163DOPC  H15B19671   3.735   3.111  13.864 -2.4810  2.1800 -2.0993
  163DOPC  H15C19672   3.644   3.081  14.017 -2.1535  0.9105 -0.2111
  163DOPC   C1119673   3.751   3.452  13.996  0.0642  0.3199  0.1258
  163DOPC  H11A19674   3.760   3.559  13.965 -0.3887  0.5201  0.6791
  163DOPC  H11B19675   3.704   3.441  14.095 -0.6644 -0.1283 -0.2585
  163DOPC     P19676   4.015   3.436  13.962 -0.2588  0.1887 -0.1567
  163DOPC   O1319677   4.076   3.334  13.872  0.0274 -0.1517  0.1525
  163DOPC   O1419678   4.082   3.459  14.088 -0.4291  0.4779 -0.1351
  163DOPC   O1219679   3.874   3.381  13.986  0.4377 -0.7029  0.1988
  163DOPC   O1119680   4.004   3.570  13.883 -0.0088 -0.1546 -0.2028
  163DOPC    C119681   4.117   3.639  13.829 -0.3572  0.1516 -0.2629
  163DOPC    HA19682   4.213   3.586  13.851 -0.2516  0.9818  1.4829
  163DOPC    HB19683   4.124   3.741  13.873 -0.9901 -0.1048  0.4551
  163DOPC    C219684   4.111   3.643  13.675  0.3334 -0.5299  0.2321
  163DOPC    HS19685   4.202   3.699  13.646  0.1626 -0.4378 -0.1310
  163DOPC   O2119686   3.993   3.700  13.630  0.3168 -0.3818  0.2800
  163DOPC   C2119687   3.999   3.831  13.610 -0.1254 -0.6576 -0.0559
  163DOPC   O2219688   4.087   3.907  13.647  0.2840 -0.3414  0.5576
  163DOPC   C2219689   3.875   3.868  13.527  0.6985 -0.6453 -0.7545
  163DOPC   H2R19690   3.828   3.938  13.599  1.8222 -0.9644  0.3144
  163DOPC   H2S19691   3.807   3.781  13.520 -0.5057 -0.0480  2.0289
  163DOPC    C319692   4.123   3.500  13.614 -0.3972  0.2665 -0.5751
  163DOPC    HX19693   4.031   3.442  13.633 -0.5205  0.8182  0.5537
  163DOPC    HY19694   4.206   3.441  13.659 -1.4406 -0.9284 -0.1701
  163DOPC   O3119695   4.151   3.512  13.474  0.1686 -0.3735 -0.2652
  163DOPC   C3119696   4.101   3.419  13.394  0.3652  0.5728  0.2566
  163DOPC   O3219697   4.024   3.329  13.432  0.0818  0.1248 -0.1051
  163DOPC   C3219698   4.145   3.449  13.253  0.8043 -0.3973  0.0321
  163DOPC   H2X19699   4.073   3.523  13.211 -1.2288 -0.6478  2.8282
  163DOPC   H2Y19700   4.249   3.488  13.256  0.6742 -0.1330  2.0091
  163DOPC   C2319701   3.909   3.941  13.399  0.4388  0.2344 -0.5498
  163DOPC   H3R19702   3.979   4.018  13.436  0.4927 -0.7403  1.5043
  163DOPC   H3S19703   3.818   3.998  13.368  0.2784  0.6366  0.6227
  163DOPC   C2419704   3.953   3.841  13.290  0.0338 -0.5721  0.4963
  163DOPC   H4R19705   3.863   3.778  13.283 -1.9277  2.0119  0.9340
  163DOPC   H4S19706   4.042   3.791  13.334 -0.5095 -0.1648  2.1271
  163DOPC   C2519707   3.991   3.901  13.155  0.0071 -0.2503  0.1735
  163DOPC   H5R19708   4.052   3.992  13.169  0.0551 -0.0319 -1.3166
  163DOPC   H5S19709   3.904   3.945  13.103  0.0440  1.4747  1.5029
  163DOPC   C2619710   4.058   3.796  13.063  0.6887  0.0467 -0.0534
  163DOPC   H6R19711   4.115   3.724  13.125  0.8250 -1.7265 -2.1369
  163DOPC   H6S19712   4.134   3.834  12.991  2.5366 -1.5301  0.9407
  163DOPC   C2719713   3.956   3.717  12.972  0.2000  0.6532  0.8218
  163DOPC   H7R19714   3.877   3.671  13.034 -0.9791  2.1529  0.4932
  163DOPC   H7S19715   4.004   3.633  12.917 -0.3527 -0.4814  2.0376
  163DOPC   C2819716   3.886   3.800  12.861 -0.5493 -0.4376  0.1816
  163DOPC   H8R19717   3.826   3.876  12.916  0.8397  0.1045  0.9843
  163DOPC   H8S19718   3.814   3.731  12.813 -0.2180 -2.2064  2.0820
  163DOPC   C2919719   3.976   3.861  12.754  0.0707 -0.2436 -0.3056
  163DOPC   H9R19720   4.050   3.931  12.796  0.1103  1.1477 -2.5034
  163DOPC  C21019721   3.991   3.834  12.620  0.1353 -0.3219  0.7338
  163DOPC  H10R19722   4.056   3.897  12.558 -0.4813 -0.8291 -0.4590
  163DOPC  C21119723   3.911   3.737  12.532 -0.0909 -0.0075 -0.2759
  163DOPC  H11R19724   3.875   3.654  12.596  1.0253  0.4303  0.9659
  163DOPC  H11S19725   3.968   3.696  12.447 -0.9706  0.9500 -1.3691
  163DOPC  C21219726   3.787   3.803  12.470 -0.1310 -0.6066 -0.2654
  163DOPC  H12R19727   3.722   3.851  12.546  0.8750 -1.2971  1.0584
  163DOPC  H12S19728   3.721   3.728  12.422 -2.7371  0.1726  1.8556
  163DOPC  C21319729   3.818   3.893  12.346  0.5423  0.7141  0.8054
  163DOPC  H13R19730   3.881   3.979  12.377  0.2549  0.9290  0.7886
  163DOPC  H13S19731   3.732   3.946  12.302  1.2727  0.1479 -1.4264
  163DOPC  C21419732   3.883   3.812  12.226  0.5262  0.6697 -0.6937
  163DOPC  H14R19733   3.849   3.708  12.209  0.0990  0.8221 -0.7935
  163DOPC  H14S19734   3.990   3.808  12.254  0.0682 -0.3969  1.0110
  163DOPC  C21519735   3.852   3.900  12.097  0.0845  0.7979 -0.3310
  163DOPC  H15R19736   3.891   3.999  12.128 -0.5473  0.9736 -0.0937
  163DOPC  H15S19737   3.742   3.889  12.087 -0.1722  0.4619  2.1204
  163DOPC  C21619738   3.917   3.845  11.970 -0.0956 -0.0334  0.0345
  163DOPC  H16R19739   4.027   3.838  11.982 -0.1450 -0.3544  0.3055
  163DOPC  H16S19740   3.902   3.915  11.885 -2.5087  0.3491  0.7181
  163DOPC  C21719741   3.860   3.710  11.928  0.0280 -0.3455  0.1008
  163DOPC  H17R19742   3.840   3.650  12.019 -1.3219  0.5521  0.4284
  163DOPC  H17S19743   3.936   3.652  11.873  0.0696  0.3153 -0.5538
  163DOPC  C21819744   3.741   3.719  11.839 -0.0681 -0.0198  0.2391
  163DOPC  H18R19745   3.672   3.792  11.885  1.4258 -0.4013  3.3836
  163DOPC  H18S19746   3.700   3.616  11.838 -0.8275  0.2799  0.4101
  163DOPC  H18T19747   3.757   3.750  11.733  0.3057 -1.5461 -0.1766
  163DOPC   C3319748   4.137   3.316  13.170 -0.1720  0.0994 -0.0152
  163DOPC   H3X19749   4.029   3.293  13.154 -0.6705  3.0828 -1.6307
  163DOPC   H3Y19750   4.187   3.233  13.224 -1.9304 -0.5407  0.7148
  163DOPC   C3419751   4.201   3.331  13.031  0.2757 -0.8585 -0.4082
  163DOPC   H4X19752   4.305   3.293  13.036  0.5012 -0.3066 -0.7983
  163DOPC   H4Y19753   4.202   3.439  13.001  2.2048 -1.1832 -1.6722
  163DOPC   C3519754   4.133   3.240  12.925 -0.4068 -0.4041 -0.8086
  163DOPC   H5X19755   4.025   3.267  12.932  0.1441  1.4959  1.5291
  163DOPC   H5Y19756   4.147   3.137  12.964 -0.1899  0.2825  1.0253
  163DOPC   C3619757   4.185   3.260  12.786 -0.0067 -0.3553  0.5918
  163DOPC   H6X19758   4.152   3.359  12.748 -1.0375 -1.0620 -0.4172
  163DOPC   H6Y19759   4.296   3.257  12.794 -0.0701 -0.2383  1.6744
  163DOPC   C3719760   4.134   3.154  12.701 -0.3846  0.8409  0.4967
  163DOPC   H7X19761   4.171   3.053  12.731  0.3947  1.0343  0.1909
  163DOPC   H7Y19762   4.023   3.149  12.707 -0.3242 -0.9422  0.9112
  163DOPC   C3819763   4.173   3.177  12.552 -0.0521  0.6978 -0.7133
  163DOPC   H8X19764   4.145   3.084  12.499  0.6849  0.1828 -0.2296
  163DOPC   H8Y19765   4.282   3.194  12.535  0.2199  0.2166  0.4297
  163DOPC   C3919766   4.110   3.297  12.481 -0.8804  0.1958  0.2588
  163DOPC   H9X19767   4.112   3.387  12.545  1.7436  0.6348 -0.3072
  163DOPC  C31019768   4.071   3.315  12.352 -0.1311 -0.1422 -0.3164
  163DOPC  H10X19769   4.038   3.415  12.321  1.6497  0.5560 -0.1206
  163DOPC  C31119770   4.079   3.214  12.245  0.3037 -0.0604 -0.1415
  163DOPC  H11X19771   3.989   3.149  12.251 -0.6442  1.0160 -1.8628
  163DOPC  H11Y19772   4.169   3.148  12.250 -0.0687 -0.4956  1.2832
  163DOPC  C31219773   4.081   3.294  12.108 -0.1714  0.0188  0.0591
  163DOPC  H12X19774   4.156   3.373  12.089 -0.3611  0.1142 -0.2985
  163DOPC  H12Y19775   3.982   3.344  12.098 -0.3914 -0.6847 -1.5758
  163DOPC  C31319776   4.090   3.192  11.986  0.5852  0.0562  0.1774
  163DOPC  H13X19777   4.192   3.151  11.970 -1.2298 -4.0227 -2.6597
  163DOPC  H13Y19778   4.023   3.111  12.019 -2.7228  2.5358  0.0521
  163DOPC  C31419779   4.035   3.251  11.849 -0.5882  0.5402 -0.3437
  163DOPC  H14X19780   3.924   3.255  11.854 -0.5332  0.8770  0.7747
  163DOPC  H14Y19781   4.083   3.350  11.842  1.8951 -0.4034  1.8294
  163DOPC  C31519782   4.077   3.159  11.733 -0.2499  0.1342  0.2559
  163DOPC  H15X19783   4.059   3.053  11.761 -2.0710  0.3815  0.1480
  163DOPC  H15Y19784   4.186   3.168  11.713 -0.2609 -0.5418 -0.1465
  163DOPC  C31619785   3.992   3.162  11.600  1.0056  0.1584 -0.4793
  163DOPC  H16X19786   3.898   3.201  11.644  0.8260 -0.7107 -0.0727
  163DOPC  H16Y19787   4.030   3.242  11.532  1.5489  1.6411  1.4669
  163DOPC  C31719788   3.981   3.029  11.530  0.2869 -0.8139 -0.5244
  163DOPC  H17X19789   3.917   2.957  11.585  0.5335  0.4378  1.5188
  163DOPC  H17Y19790   3.934   3.056  11.433 -0.9027 -0.0749  0.2449
  163DOPC  C31819791   4.118   2.977  11.503  0.0944 -0.4597 -0.0045
  163DOPC  H18X19792   4.187   3.060  11.476 -1.2767  0.6840 -0.1107
  163DOPC  H18Y19793   4.168   2.920  11.584  1.3057  0.8264  0.1921
  163DOPC  H18Z19794   4.123   2.908  11.416 -0.8055 -0.8505  0.2468
  164DOPC     N19795   3.194   1.642  13.357  0.0265 -0.7259 -0.9206
  164DOPC   C1219796   3.208   1.569  13.221  0.1234  0.4441 -0.0608
  164DOPC  H12A19797   3.310   1.576  13.185 -0.6287 -0.3771 -2.5798
  164DOPC  H12B19798   3.140   1.613  13.150  0.2956  0.9491  0.0789
  164DOPC   C1319799   3.209   1.786  13.341  0.0743 -0.3018  0.9277
  164DOPC  H13A19800   3.299   1.808  13.286  1.1838 -0.9222  2.4245
  164DOPC  H13B19801   3.136   1.823  13.270  3.4590  2.8033 -1.2435
  164DOPC  H13C19802   3.220   1.833  13.438  0.4600  0.6793  0.4128
  164DOPC   C1419803   3.298   1.593  13.458  0.7149 -0.0863 -0.1260
  164DOPC  H14A19804   3.397   1.613  13.419  0.7780 -1.8788 -1.0119
  164DOPC  H14B19805   3.294   1.655  13.546  0.8975 -0.2442 -0.0051
  164DOPC  H14C19806   3.273   1.491  13.483 -0.9596  0.5438  0.9314
  164DOPC   C1519807   3.056   1.613  13.412  0.2070 -0.1545 -0.3798
  164DOPC  H15A19808   3.038   1.651  13.511 -1.2575 -2.4354  0.3010
  164DOPC  H15B19809   3.067   1.507  13.427  3.4548 -0.0678 -1.3462
  164DOPC  H15C19810   2.974   1.629  13.344 -1.4857 -2.2402  1.0630
  164DOPC   C1119811   3.185   1.415  13.225 -0.1522 -0.2425  0.6557
  164DOPC  H11A19812   3.087   1.398  13.276 -0.5640  0.1787  0.0137
  164DOPC  H11B19813   3.183   1.378  13.121  1.3226 -0.8793  0.8274
  164DOPC     P19814   3.430   1.340  13.218 -0.6623 -0.2067  0.2635
  164DOPC   O1319815   3.522   1.252  13.293 -0.9274  0.5332  0.4616
  164DOPC   O1419816   3.482   1.476  13.190  0.0464 -0.1953 -0.1994
  164DOPC   O1219817   3.293   1.355  13.292 -0.4017  0.4997 -0.0704
  164DOPC   O1119818   3.397   1.270  13.081 -0.3615 -0.4191  0.5697
  164DOPC    C119819   3.499   1.227  12.991 -0.1980 -0.0074  0.2034
  164DOPC    HA19820   3.534   1.123  13.005 -2.4046 -1.1571 -2.1416
  164DOPC    HB19821   3.584   1.299  12.997 -0.1426 -0.0732  0.2043
  164DOPC    C219822   3.452   1.224  12.849  0.5493  0.8325  0.4258
  164DOPC    HS19823   3.502   1.140  12.795  2.4125  2.5143 -0.5986
  164DOPC   O2119824   3.480   1.345  12.788  0.0356  0.2970  0.4457
  164DOPC   C2119825   3.600   1.355  12.746 -0.0836 -0.6841 -0.2554
  164DOPC   O2219826   3.695   1.281  12.769  0.0037  0.5915  0.4049
  164DOPC   C2219827   3.615   1.488  12.678 -0.9005 -0.0166  0.1824
  164DOPC   H2R19828   3.676   1.555  12.741 -1.4078  1.4544 -0.8289
  164DOPC   H2S19829   3.516   1.538  12.671  0.5379  2.8705 -1.6236
  164DOPC    C319830   3.292   1.187  12.841  0.0038 -0.4822 -0.0766
  164DOPC    HX19831   3.233   1.265  12.895 -0.2468 -0.9758  0.3736
  164DOPC    HY19832   3.289   1.089  12.894  1.8383 -0.9270 -0.7439
  164DOPC   O3119833   3.234   1.169  12.711  0.0792 -0.1825  0.1380
  164DOPC   C3119834   3.267   1.071  12.635  0.2831  0.1240 -0.4657
  164DOPC   O3219835   3.353   0.985  12.656 -0.3008 -0.0484 -0.6698
  164DOPC   C3219836   3.188   1.079  12.500 -0.1942  0.7123 -1.0073
  164DOPC   H2X19837   3.089   1.035  12.523  0.8497 -0.1106  2.4840
  164DOPC   H2Y19838   3.172   1.187  12.480 -0.1816  0.5286 -2.0625
  164DOPC   C2319839   3.677   1.487  12.534  0.0939  0.5327  0.2001
  164DOPC   H3R19840   3.768   1.425  12.523  0.2417  0.7745  0.0356
  164DOPC   H3S19841   3.695   1.593  12.504 -2.0893  0.4383 -1.7445
  164DOPC   C2419842   3.568   1.442  12.430  0.1169 -0.4059  0.1779
  164DOPC   H4R19843   3.487   1.518  12.429  0.8384  0.3803  0.4611
  164DOPC   H4S19844   3.522   1.341  12.443 -1.4222  0.1878 -0.4461
  164DOPC   C2519845   3.636   1.454  12.289  0.4289  0.1493  1.2785
  164DOPC   H5R19846   3.728   1.391  12.291  1.6175  1.6583 -0.9784
  164DOPC   H5S19847   3.657   1.562  12.273 -0.5521 -0.0529 -2.0781
  164DOPC   C2619848   3.556   1.406  12.165 -0.5527  1.0510 -0.1924
  164DOPC   H6R19849   3.471   1.478  12.160  0.6014  2.5840  1.3078
  164DOPC   H6S19850   3.514   1.304  12.177 -0.4913  0.4167 -4.0843
  164DOPC   C2719851   3.627   1.399  12.032  0.2388 -0.1654  0.1774
  164DOPC   H7R19852   3.687   1.305  12.030  0.9412  0.2643  0.7453
  164DOPC   H7S19853   3.678   1.496  12.014  0.2389  0.0005  1.0329
  164DOPC   C2819854   3.520   1.388  11.921  0.2547 -1.2075  0.2622
  164DOPC   H8R19855   3.461   1.482  11.918  2.3744  0.1821  0.0180
  164DOPC   H8S19856   3.446   1.311  11.954  0.4067 -1.5178 -0.1079
  164DOPC   C2919857   3.552   1.342  11.785  0.2823 -0.0448  0.6327
  164DOPC   H9R19858   3.550   1.233  11.772  1.2179 -0.2955  2.2590
  164DOPC  C21019859   3.579   1.423  11.685 -0.2798 -0.0479 -0.3403
  164DOPC  H10R19860   3.612   1.383  11.587 -1.0232  1.5488 -1.2884
  164DOPC  C21119861   3.567   1.576  11.690  0.4116  0.0918 -0.4440
  164DOPC  H11R19862   3.661   1.624  11.654 -0.6780  3.1276  0.4116
  164DOPC  H11S19863   3.563   1.618  11.793  3.7475  4.6408 -1.8398
  164DOPC  C21219864   3.436   1.628  11.621  0.3772 -0.2428 -0.8068
  164DOPC  H12R19865   3.348   1.612  11.687  0.3289  2.8657  0.0054
  164DOPC  H12S19866   3.434   1.579  11.521  0.6145 -0.4994 -0.6867
  164DOPC  C21319867   3.439   1.784  11.605 -0.1424  0.4682 -0.0609
  164DOPC  H13R19868   3.534   1.817  11.558  0.9506  0.7086  2.1877
  164DOPC  H13S19869   3.432   1.835  11.703 -0.4775 -1.4169  0.9205
  164DOPC  C21419870   3.312   1.827  11.527 -0.4853  1.0021  0.5497
  164DOPC  H14R19871   3.222   1.816  11.591  0.1667 -0.3237  1.2663
  164DOPC  H14S19872   3.302   1.767  11.434  1.3279  1.1449  0.2293
  164DOPC  C21519873   3.333   1.974  11.484  0.5695 -0.1431  0.6402
  164DOPC  H15R19874   3.267   1.983  11.395  2.6834 -0.5088 -1.0737
  164DOPC  H15S19875   3.439   1.994  11.454  0.3461  2.6757  1.3787
  164DOPC  C21619876   3.298   2.077  11.588  0.2152  0.4930  0.1898
  164DOPC  H16R19877   3.354   2.072  11.683  0.4600 -1.0818 -0.0195
  164DOPC  H16S19878   3.189   2.066  11.609 -0.2103  3.0458 -0.2957
  164DOPC  C21719879   3.332   2.218  11.543 -0.6876 -0.4209 -0.2744
  164DOPC  H17R19880   3.357   2.220  11.435  0.2895  0.6933 -0.0519
  164DOPC  H17S19881   3.422   2.255  11.596 -0.6036 -0.7039 -0.2173
  164DOPC  C21819882   3.217   2.311  11.568 -0.9131 -0.0577 -0.3086
  164DOPC  H18R19883   3.245   2.419  11.568 -1.7355  0.1673 -0.1457
  164DOPC  H18S19884   3.174   2.294  11.669  0.5424 -0.2599  0.2984
  164DOPC  H18T19885   3.142   2.293  11.487  0.2789 -2.2084 -1.0170
  164DOPC   C3319886   3.259   1.009  12.381  0.7977 -0.4151  0.1326
  164DOPC   H3X19887   3.267   0.899  12.390  0.2649 -0.6078 -1.5044
  164DOPC   H3Y19888   3.360   1.055  12.372 -0.9979  3.6069 -2.6848
  164DOPC   C3419889   3.177   1.033  12.256 -0.4247 -0.8963 -0.0502
  164DOPC   H4X19890   3.142   1.139  12.253  1.0306 -0.3793 -3.5838
  164DOPC   H4Y19891   3.085   0.971  12.250 -3.7851  3.4123  1.0681
  164DOPC   C3519892   3.268   1.006  12.132 -0.1250  0.2090 -0.4458
  164DOPC   H5X19893   3.295   0.898  12.138 -1.2048  0.0050  1.8398
  164DOPC   H5Y19894   3.351   1.079  12.130  0.4619 -0.4621 -0.9688
  164DOPC   C3619895   3.193   1.014  11.996  0.5790  0.1758  0.2165
  164DOPC   H6X19896   3.103   0.950  11.995  0.3392  0.3897  2.5869
  164DOPC   H6Y19897   3.148   1.115  11.998  1.4093  0.6498 -2.2663
  164DOPC   C3719898   3.285   0.985  11.880  0.0802  0.4101  0.2741
  164DOPC   H7X19899   3.368   1.058  11.891  1.8000 -1.5948  1.4299
  164DOPC   H7Y19900   3.330   0.884  11.893  1.8371  1.3186  1.8026
  164DOPC   C3819901   3.219   0.993  11.742  0.1099 -0.5848 -0.0101
  164DOPC   H8X19902   3.133   0.922  11.740  1.2012 -1.9629  0.1706
  164DOPC   H8Y19903   3.283   0.940  11.668  0.9832  0.3992  0.0242
  164DOPC   C3919904   3.161   1.126  11.681 -0.5602 -0.4220 -0.0676
  164DOPC   H9X19905   3.075   1.167  11.737 -1.3411  0.1579 -1.6407
  164DOPC  C31019906   3.202   1.192  11.576  0.3226 -0.3891 -0.5707
  164DOPC  H10X19907   3.153   1.282  11.538  0.7569  0.0802 -0.0410
  164DOPC  C31119908   3.329   1.166  11.495  0.4904  0.6287 -0.0544
  164DOPC  H11X19909   3.402   1.109  11.557  1.5218  2.7170  0.7486
  164DOPC  H11Y19910   3.378   1.263  11.471 -1.5117  1.0853 -2.7453
  164DOPC  C31219911   3.302   1.100  11.357 -0.5021 -0.6000 -0.0014
  164DOPC  H12X19912   3.240   1.166  11.292 -2.0939 -1.6715  0.3691
  164DOPC  H12Y19913   3.232   1.017  11.380 -2.1695  0.3037 -1.5423
  164DOPC  C31319914   3.427   1.048  11.291  0.2153  0.2037 -0.4602
  164DOPC  H13X19915   3.484   0.981  11.359  0.1507  0.8591  0.2519
  164DOPC  H13Y19916   3.393   0.981  11.209 -1.5847 -0.5569  0.8575
  164DOPC  C31419917   3.538   1.157  11.250  0.0448 -0.1831  0.3740
  164DOPC  H14X19918   3.615   1.092  11.203  1.0175  0.4019  1.1213
  164DOPC  H14Y19919   3.586   1.208  11.336  1.1651  1.6520 -1.2669
  164DOPC  C31519920   3.486   1.274  11.164  0.3410 -0.2157 -0.0836
  164DOPC  H15X19921   3.386   1.302  11.203  0.5085  2.5676 -1.4401
  164DOPC  H15Y19922   3.478   1.249  11.056  0.1171 -2.0871  0.3300
  164DOPC  C31619923   3.576   1.391  11.187 -0.4791 -0.2356 -0.0266
  164DOPC  H16X19924   3.633   1.394  11.282 -0.1102 -2.2945 -0.1475
  164DOPC  H16Y19925   3.645   1.389  11.100  1.5677  0.4305  1.5158
  164DOPC  C31719926   3.500   1.529  11.196  0.1863  1.0095  0.2916
  164DOPC  H17X19927   3.470   1.552  11.092 -1.5099  2.3010  1.0034
  164DOPC  H17Y19928   3.408   1.513  11.258 -0.9626 -2.1709 -1.9592
  164DOPC  C31819929   3.584   1.640  11.250 -0.3658  0.8744 -0.3063
  164DOPC  H18X19930   3.618   1.623  11.355  1.3308 -1.6543 -1.1800
  164DOPC  H18Y19931   3.671   1.660  11.184 -0.0843 -0.7749 -0.4736
  164DOPC  H18Z19932   3.515   1.727  11.257 -1.7578 -0.3036  2.0143
  165DOPC     N19933   0.773   2.228  13.989  0.7085 -0.3610 -0.1592
  165DOPC   C1219934   0.804   2.278  13.842  0.3427  0.9501  0.2765
  165DOPC  H12A19935   0.879   2.211  13.802  1.8175  0.8397  2.9968
  165DOPC  H12B19936   0.848   2.376  13.851  0.5857  0.7915  0.9257
  165DOPC   C1319937   0.709   2.084  13.984 -0.4790  1.1071 -0.1595
  165DOPC  H13A19938   0.700   2.044  14.084 -3.0658  1.1311 -0.3156
  165DOPC  H13B19939   0.609   2.095  13.946 -1.7037  1.1832  2.8325
  165DOPC  H13C19940   0.766   2.021  13.918 -0.1958  0.3723  0.7630
  165DOPC   C1419941   0.665   2.315  14.072 -1.1294  0.3509 -0.1539
  165DOPC  H14A19942   0.567   2.320  14.026  0.1561  0.5511 -3.1185
  165DOPC  H14B19943   0.642   2.277  14.170  0.2338 -0.4597 -0.1221
  165DOPC  H14C19944   0.704   2.415  14.084  1.3981 -0.4362 -1.2004
  165DOPC   C1519945   0.895   2.224  14.064  0.0155  0.0064 -0.7541
  165DOPC  H15A19946   0.924   2.325  14.086  0.1860 -0.2061  0.0478
  165DOPC  H15B19947   0.974   2.182  14.003  0.4821 -1.4292  0.7583
  165DOPC  H15C19948   0.879   2.169  14.156  1.7595  3.6650  1.9679
  165DOPC   C1119949   0.683   2.282  13.741  0.0713  0.1924 -0.9462
  165DOPC  H11A19950   0.716   2.317  13.641  2.3539 -1.0472 -0.6912
  165DOPC  H11B19951   0.653   2.175  13.736 -2.2026  0.4310  3.5056
  165DOPC     P19952   0.547   2.503  13.749 -0.2509 -0.0338 -0.3329
  165DOPC   O1319953   0.635   2.586  13.829  0.5564  0.4958  0.2269
  165DOPC   O1419954   0.403   2.524  13.765 -0.6590  0.0037 -0.1653
  165DOPC   O1219955   0.574   2.354  13.784 -0.2984 -0.1019 -0.3571
  165DOPC   O1119956   0.591   2.521  13.597 -0.5656 -0.1387 -0.2027
  165DOPC    C119957   0.504   2.508  13.488  0.3292 -0.5420  0.6380
  165DOPC    HA19958   0.396   2.499  13.513  0.3773 -1.0596  0.6663
  165DOPC    HB19959   0.527   2.413  13.436 -3.1422 -0.9000 -0.5191
  165DOPC    C219960   0.530   2.611  13.384  0.1808  0.0448 -0.3962
  165DOPC    HS19961   0.634   2.595  13.349 -0.3381  0.1028 -2.0679
  165DOPC   O2119962   0.500   2.736  13.447 -0.4393 -0.0318 -0.3532
  165DOPC   C2119963   0.552   2.839  13.384 -0.4692 -0.9471  0.1822
  165DOPC   O2219964   0.649   2.836  13.310 -0.4285 -0.2334 -0.0046
  165DOPC   C2219965   0.477   2.966  13.434 -0.7351  0.2889  0.2571
  165DOPC   H2R19966   0.559   3.039  13.452  0.0818 -0.1881 -1.2843
  165DOPC   H2S19967   0.431   2.942  13.532  0.6308 -2.9291  0.2328
  165DOPC    C319968   0.435   2.592  13.262 -0.0013  0.1277 -0.0130
  165DOPC    HX19969   0.332   2.597  13.304  0.0974 -3.1701  0.9075
  165DOPC    HY19970   0.450   2.489  13.222  0.8198  0.4225 -0.4833
  165DOPC   O3119971   0.454   2.688  13.153  0.3989 -0.2761 -0.1976
  165DOPC   C3119972   0.555   2.666  13.069  0.2484 -0.1677 -0.7342
  165DOPC   O3219973   0.614   2.560  13.058 -0.0529  0.0249  0.4875
  165DOPC   C3219974   0.578   2.794  12.990  0.0777  0.3686 -0.4791
  165DOPC   H2X19975   0.477   2.839  12.984 -0.3523  0.2418  3.4073
  165DOPC   H2Y19976   0.650   2.852  13.051 -1.0768  2.2512 -0.8535
  165DOPC   C2319977   0.371   3.018  13.337  0.1952 -0.6805  0.0239
  165DOPC   H3R19978   0.307   3.090  13.393 -1.5350 -0.9825 -1.4759
  165DOPC   H3S19979   0.305   2.936  13.300 -1.2087  0.3913  0.0572
  165DOPC   C2419980   0.428   3.085  13.217 -1.2021  0.1166 -0.1061
  165DOPC   H4R19981   0.497   3.010  13.173 -1.4604 -0.4067  0.3694
  165DOPC   H4S19982   0.478   3.176  13.257  0.1682 -0.7342  0.1853
  165DOPC   C2519983   0.324   3.119  13.114 -0.1577 -0.2680 -0.2710
  165DOPC   H5R19984   0.251   3.182  13.167  1.5930  0.9422  0.7998
  165DOPC   H5S19985   0.277   3.024  13.081 -2.2142  0.7375 -0.3760
  165DOPC   C2619986   0.393   3.181  12.991 -0.1797  0.6464 -0.2814
  165DOPC   H6R19987   0.490   3.129  12.976 -0.7574 -0.5281 -0.0130
  165DOPC   H6S19988   0.426   3.284  13.019  1.2684  0.4659 -1.2153
  165DOPC   C2719989   0.313   3.179  12.863 -0.0660  0.2000 -0.3160
  165DOPC   H7R19990   0.219   3.238  12.869 -0.0110  0.3391 -0.7393
  165DOPC   H7S19991   0.288   3.073  12.844  0.2744  0.2284 -0.9770
  165DOPC   C2819992   0.396   3.227  12.742 -0.7360 -0.4795  0.0580
  165DOPC   H8R19993   0.340   3.204  12.649  0.0903 -3.3178  0.1852
  165DOPC   H8S19994   0.490   3.168  12.737 -1.1600 -1.2665  1.1836
  165DOPC   C2919995   0.436   3.377  12.748  0.2927 -0.0202 -0.2531
  165DOPC   H9R19996   0.468   3.409  12.848 -3.7107  0.2279  1.1350
  165DOPC  C21019997   0.430   3.467  12.652 -0.5910 -0.1356  0.1240
  165DOPC  H10R19998   0.458   3.572  12.666  0.8379 -0.2197 -1.6958
  165DOPC  C21119999   0.399   3.442  12.506  0.3898  0.3997 -0.2215
  165DOPC  H11R20000   0.319   3.512  12.474 -0.8398 -1.7113 -2.0616
  165DOPC  H11S20001   0.345   3.347  12.488  1.3077  0.0404 -1.1822
  165DOPC  C21220002   0.523   3.475  12.416 -0.2747 -0.9207 -0.0289
  165DOPC  H12R20003   0.614   3.419  12.443  0.3430 -0.1061 -0.3651
  165DOPC  H12S20004   0.549   3.581  12.436 -0.3440 -0.9780  0.3636
  165DOPC  C21320005   0.504   3.480  12.268 -0.4131 -0.5510 -0.7172
  165DOPC  H13R20006   0.417   3.538  12.232 -0.8841 -1.3395 -0.8777
  165DOPC  H13S20007   0.489   3.374  12.241 -0.2515  0.1574 -3.9370
  165DOPC  C21420008   0.621   3.523  12.180 -0.0320 -0.5638 -0.4712
  165DOPC  H14R20009   0.718   3.491  12.223  0.5111 -0.0176 -1.2478
  165DOPC  H14S20010   0.626   3.634  12.185 -2.5481 -0.4421  0.8850
  165DOPC  C21520011   0.618   3.475  12.036 -0.6378 -0.1637  0.0518
  165DOPC  H15R20012   0.514   3.487  11.998 -0.7682 -0.5642  0.2676
  165DOPC  H15S20013   0.661   3.373  12.038  2.1336  0.9324  0.3115
  165DOPC  C21620014   0.719   3.552  11.957  0.1928 -1.0750  0.6275
  165DOPC  H16R20015   0.823   3.528  11.987  0.3853  0.7024  1.5346
  165DOPC  H16S20016   0.714   3.663  11.961  1.6422 -1.0202  2.1067
  165DOPC  C21720017   0.696   3.520  11.809 -0.8510 -0.8701  0.0874
  165DOPC  H17R20018   0.591   3.538  11.777 -0.3523 -2.3456 -2.6879
  165DOPC  H17S20019   0.716   3.412  11.791  0.5882 -0.4510 -0.9598
  165DOPC  C21820020   0.796   3.603  11.725 -0.0633  0.3023 -0.2481
  165DOPC  H18R20021   0.896   3.576  11.764 -0.2693 -2.2825 -1.2981
  165DOPC  H18S20022   0.783   3.712  11.739  1.8488  0.4481  0.6619
  165DOPC  H18T20023   0.788   3.575  11.617  1.4199 -0.1028 -0.2739
  165DOPC   C3320024   0.648   2.762  12.852  0.6000  1.2445 -0.4689
  165DOPC   H3X20025   0.573   2.702  12.797  2.4833 -2.2850  0.4619
  165DOPC   H3Y20026   0.728   2.685  12.863 -1.5278 -1.1025 -0.5535
  165DOPC   C3420027   0.693   2.881  12.765  0.0369  0.2569 -0.1888
  165DOPC   H4X20028   0.793   2.911  12.805  0.8008 -0.7288 -1.2786
  165DOPC   H4Y20029   0.613   2.955  12.787 -0.2229 -0.3334  0.9144
  165DOPC   C3520030   0.699   2.857  12.615 -0.1540  0.4129 -0.3061
  165DOPC   H5X20031   0.620   2.788  12.577 -0.1629  1.1638 -1.6963
  165DOPC   H5Y20032   0.793   2.804  12.588  1.4638  1.5999  2.6211
  165DOPC   C3620033   0.693   2.990  12.541 -0.0637  0.2695  0.4389
  165DOPC   H6X20034   0.588   3.025  12.537 -0.7573 -1.7560 -0.9187
  165DOPC   H6Y20035   0.765   3.058  12.591  0.7543 -0.6977  0.6139
  165DOPC   C3720036   0.733   2.976  12.390  0.2047  0.3144 -0.0823
  165DOPC   H7X20037   0.684   2.890  12.339  1.4160  0.9678 -2.4999
  165DOPC   H7Y20038   0.840   2.951  12.376 -0.1976 -0.3046 -2.5071
  165DOPC   C3820039   0.702   3.113  12.324  0.0610 -0.3283  0.7847
  165DOPC   H8X20040   0.743   3.189  12.394 -0.6764 -0.4949  1.4062
  165DOPC   H8Y20041   0.593   3.128  12.339  0.1225 -0.3765  1.3209
  165DOPC   C3920042   0.745   3.138  12.185  0.5598 -0.4833 -0.4244
  165DOPC   H9X20043   0.659   3.121  12.118 -0.3808 -0.8701  0.8517
  165DOPC  C31020044   0.863   3.175  12.142  0.4911 -0.1276  0.3885
  165DOPC  H10X20045   0.872   3.194  12.034  3.8827 -0.3713  0.5080
  165DOPC  C31120046   0.989   3.196  12.221  0.2002 -0.1221 -0.6933
  165DOPC  H11X20047   0.983   3.183  12.331  1.0164 -2.3200 -0.8537
  165DOPC  H11Y20048   1.024   3.299  12.196 -0.2085  0.2137  0.0912
  165DOPC  C31220049   1.100   3.098  12.202  0.2938  0.0024 -0.4024
  165DOPC  H12X20050   1.069   2.992  12.212 -0.9027  0.4030  0.3593
  165DOPC  H12Y20051   1.164   3.114  12.291 -1.4598 -1.9427  1.3159
  165DOPC  C31320052   1.188   3.110  12.075  0.0144  0.2932 -0.5948
  165DOPC  H13X20053   1.237   3.013  12.051 -2.9063 -1.1481 -1.1445
  165DOPC  H13Y20054   1.127   3.125  11.984  0.1133 -1.3433 -0.9667
  165DOPC  C31420055   1.291   3.224  12.072 -0.4071  0.2940  0.2844
  165DOPC  H14X20056   1.245   3.317  12.113  0.2483  0.9774 -0.5043
  165DOPC  H14Y20057   1.373   3.196  12.141 -0.3225  0.5577  0.2910
  165DOPC  C31520058   1.340   3.268  11.934 -0.1600 -0.4974  0.0905
  165DOPC  H15X20059   1.362   3.175  11.876  4.2302  0.2698  0.1998
  165DOPC  H15Y20060   1.433   3.328  11.941 -0.2244 -0.5122  1.3026
  165DOPC  C31620061   1.252   3.344  11.842 -0.0205  0.8983 -0.3240
  165DOPC  H16X20062   1.149   3.308  11.862  0.4740 -1.1678 -1.2151
  165DOPC  H16Y20063   1.254   3.453  11.862 -0.1966  1.2446 -2.0488
  165DOPC  C31720064   1.279   3.310  11.694  0.9286 -0.1347  0.5843
  165DOPC  H17X20065   1.381   3.348  11.671  0.1978  0.1922 -2.5283
  165DOPC  H17Y20066   1.275   3.199  11.687  0.1467 -0.1592  1.2343
  165DOPC  C31820067   1.169   3.372  11.607  0.5083 -0.8138 -1.1084
  165DOPC  H18X20068   1.152   3.476  11.644 -1.7923 -0.8208 -1.9623
  165DOPC  H18Y20069   1.201   3.374  11.500  0.8234  2.1984 -1.0616
  165DOPC  H18Z20070   1.072   3.320  11.619 -0.7583  1.9121  1.9593
  166DOPC     N20071   2.763   3.025  13.974 -0.1727 -0.2591  0.1452
  166DOPC   C1220072   2.781   3.069  13.827 -0.2355  0.0170  0.7770
  166DOPC  H12A20073   2.684   3.097  13.790  1.0476  0.3675 -2.6270
  166DOPC  H12B20074   2.810   2.982  13.770 -2.0282  0.7286 -1.3714
  166DOPC   C1320075   2.686   3.126  14.054 -0.3389  0.5549  0.4269
  166DOPC  H13A20076   2.592   3.140  14.004 -0.4510 -1.4566 -0.0162
  166DOPC  H13B20077   2.680   3.107  14.160  0.9170 -0.1328  0.3918
  166DOPC  H13C20078   2.737   3.220  14.038  1.0603 -0.2332  0.0951
  166DOPC   C1420079   2.904   3.002  14.037  0.7726 -0.0399  0.1551
  166DOPC  H14A20080   2.893   2.969  14.139  0.1119 -2.7475 -0.7083
  166DOPC  H14B20081   2.957   2.919  13.993 -0.0181 -0.9745  0.9216
  166DOPC  H14C20082   2.963   3.091  14.019 -0.6048  1.2217  1.5870
  166DOPC   C1520083   2.697   2.887  13.982  0.3580 -0.1967  0.3125
  166DOPC  H15A20084   2.601   2.893  13.933  1.3595  0.8597 -1.6420
  166DOPC  H15B20085   2.692   2.845  14.081 -2.6164  0.7315  0.6319
  166DOPC  H15C20086   2.754   2.815  13.924  0.8912 -1.0180  1.8015
  166DOPC   C1120087   2.871   3.189  13.787 -0.5537 -0.0443 -0.1462
  166DOPC  H11A20088   2.975   3.163  13.815 -0.7764  0.1940  0.9298
  166DOPC  H11B20089   2.877   3.201  13.676  2.2173  1.0850  0.0668
  166DOPC     P20090   2.772   3.429  13.771 -0.3253 -0.6686  0.0963
  166DOPC   O1320091   2.799   3.551  13.856 -0.4978  0.1428 -0.1625
  166DOPC   O1420092   2.631   3.397  13.747 -0.2268  0.2799 -0.5140
  166DOPC   O1220093   2.828   3.305  13.855 -0.3994  0.8198  0.2746
  166DOPC   O1120094   2.846   3.430  13.633  0.1030  0.9020  0.2046
  166DOPC    C120095   2.983   3.467  13.618 -0.6392 -0.3523 -0.0126
  166DOPC    HA20096   3.056   3.391  13.652  0.0669  1.4364  2.8366
  166DOPC    HB20097   3.000   3.556  13.683 -1.9054  0.9949 -1.4159
  166DOPC    C220098   3.016   3.514  13.473 -0.5704 -0.2270 -0.1012
  166DOPC    HS20099   3.126   3.522  13.486 -0.7047 -1.4633  2.4140
  166DOPC   O2120100   2.952   3.643  13.451  0.2584  0.6286  0.6008
  166DOPC   C2120101   3.045   3.738  13.416  0.3100  0.2363  0.3513
  166DOPC   O2220102   3.163   3.720  13.404 -0.4180  0.3299  0.3528
  166DOPC   C2220103   2.978   3.872  13.412 -0.2222  0.0338  0.5722
  166DOPC   H2R20104   2.996   3.918  13.512 -2.1054 -0.4427  1.1750
  166DOPC   H2S20105   2.869   3.855  13.399  0.1739 -2.3064 -0.1811
  166DOPC    C320106   2.976   3.412  13.366  0.5647  0.1163 -0.4196
  166DOPC    HX20107   2.866   3.419  13.376  0.7110  2.1723  0.1703
  166DOPC    HY20108   3.007   3.309  13.396  0.9518  0.3196 -0.1124
  166DOPC   O3120109   2.999   3.451  13.227  0.3380  0.4165 -0.8894
  166DOPC   C3120110   3.113   3.401  13.182  0.1987  0.0704  0.4127
  166DOPC   O3220111   3.192   3.329  13.244 -0.1829 -0.4255 -0.2181
  166DOPC   C3220112   3.141   3.445  13.044  0.1099  0.1773 -0.7222
  166DOPC   H2X20113   3.157   3.353  12.984  0.2117  0.0997 -0.5773
  166DOPC   H2Y20114   3.048   3.491  13.004  0.1649  0.6196 -0.3605
  166DOPC   C2320115   3.022   3.960  13.297 -0.1247 -0.2329 -0.0575
  166DOPC   H3R20116   3.133   3.965  13.291 -0.1901  0.0280 -1.4847
  166DOPC   H3S20117   2.986   4.062  13.322  1.7676  0.5441 -0.2991
  166DOPC   C2420118   2.970   3.909  13.165 -0.3941  0.5763  0.4871
  166DOPC   H4R20119   2.860   3.919  13.175 -0.4347  1.8719 -0.9284
  166DOPC   H4S20120   3.004   3.805  13.148 -1.1935  0.5231 -1.0131
  166DOPC   C2520121   3.022   3.981  13.041 -0.1935 -0.4293 -0.2682
  166DOPC   H5R20122   3.130   3.957  13.045 -0.2076 -0.3360  2.4102
  166DOPC   H5S20123   3.017   4.090  13.065 -1.7516 -0.5283  0.0281
  166DOPC   C2620124   2.954   3.957  12.911  0.2080  0.0662  0.1908
  166DOPC   H6R20125   2.847   3.980  12.931 -0.0819 -1.3829  0.3816
  166DOPC   H6S20126   2.960   3.851  12.880  1.0782  0.1806 -0.0666
  166DOPC   C2720127   2.999   4.051  12.799  0.2466 -0.5409  0.2849
  166DOPC   H7R20128   3.093   4.012  12.756  0.0239  1.4475 -2.2791
  166DOPC   H7S20129   3.029   4.150  12.840 -0.9793 -0.1293  0.2634
  166DOPC   C2820130   2.895   4.084  12.689  0.3209 -0.1137 -0.1584
  166DOPC   H8R20131   2.927   4.160  12.614 -1.8838  1.1908  0.1204
  166DOPC   H8S20132   2.812   4.132  12.746  1.7336 -0.6476  2.4858
  166DOPC   C2920133   2.850   3.957  12.626 -0.0404  0.1024  0.3121
  166DOPC   H9R20134   2.784   3.893  12.688  2.8330 -0.3150  3.2089
  166DOPC  C21020135   2.869   3.911  12.499 -0.5078 -0.1391 -0.2462
  166DOPC  H10R20136   2.796   3.836  12.465 -1.7680  1.4352 -1.1572
  166DOPC  C21120137   2.944   3.984  12.393 -0.4283 -0.3795 -0.0284
  166DOPC  H11R20138   3.007   3.913  12.335 -2.5694 -1.4731 -1.1384
  166DOPC  H11S20139   3.014   4.067  12.418 -2.5866  1.7148 -0.5212
  166DOPC  C21220140   2.831   4.038  12.299 -0.7307 -0.2961  0.1304
  166DOPC  H12R20141   2.771   4.112  12.355 -0.8541  0.3279 -0.8153
  166DOPC  H12S20142   2.771   3.954  12.258 -2.0360 -0.2431  1.8357
  166DOPC  C21320143   2.889   4.121  12.179 -0.4511  0.3778  0.2161
  166DOPC  H13R20144   2.953   4.048  12.124 -0.5777  0.9168 -0.6536
  166DOPC  H13S20145   2.962   4.197  12.213  0.8707 -0.6923 -0.1253
  166DOPC  C21420146   2.776   4.187  12.101  0.1867  0.5963  0.3051
  166DOPC  H14R20147   2.717   4.262  12.157 -1.3229 -0.5100  0.2488
  166DOPC  H14S20148   2.694   4.119  12.071  0.5467  0.2315  0.1434
  166DOPC  C21520149   2.831   4.251  11.975 -0.4930 -0.4481  0.3717
  166DOPC  H15R20150   2.911   4.193  11.926  1.0314  1.2749  0.7180
  166DOPC  H15S20151   2.868   4.349  12.012 -3.0866  1.2335 -1.1107
  166DOPC  C21620152   2.716   4.268  11.875 -0.0512  0.6855 -0.5282
  166DOPC  H16R20153   2.624   4.326  11.899  0.5817  1.7098 -0.4878
  166DOPC  H16S20154   2.680   4.168  11.842 -0.4915 -0.3599  2.7568
  166DOPC  C21720155   2.759   4.354  11.755  0.3950 -0.0296  0.4618
  166DOPC  H17R20156   2.862   4.318  11.735 -0.2650 -1.1236 -1.1714
  166DOPC  H17S20157   2.757   4.463  11.780 -0.8845  0.0851 -0.0292
  166DOPC  C21820158   2.664   4.342  11.638 -0.0776  0.4956  0.6564
  166DOPC  H18R20159   2.556   4.364  11.656 -0.1246  0.3791  0.5121
  166DOPC  H18S20160   2.669   4.238  11.600  0.6811  0.7966 -0.1008
  166DOPC  H18T20161   2.703   4.394  11.548 -0.1726 -0.5856 -0.0199
  166DOPC   C3320162   3.243   3.561  13.032  0.2937 -0.0594  0.0317
  166DOPC   H3X20163   3.344   3.527  13.063 -0.1543 -0.3466  1.2104
  166DOPC   H3Y20164   3.216   3.643  13.102 -0.5925 -0.2488 -0.0772
  166DOPC   C3420165   3.244   3.614  12.887  0.0306  0.3530 -0.6504
  166DOPC   H4X20166   3.308   3.703  12.866  2.6469 -1.2481  0.1195
  166DOPC   H4Y20167   3.141   3.639  12.854 -0.9310 -0.1113  1.8029
  166DOPC   C3520168   3.301   3.510  12.799  0.3286 -0.4599  0.4602
  166DOPC   H5X20169   3.257   3.409  12.814 -1.9191  0.1067 -1.6087
  166DOPC   H5Y20170   3.411   3.501  12.808  0.7101  1.4933 -1.2811
  166DOPC   C3620171   3.270   3.551  12.649  0.2028  0.6091 -0.7357
  166DOPC   H6X20172   3.323   3.646  12.625  0.3831  0.5473 -0.5965
  166DOPC   H6Y20173   3.318   3.475  12.583 -4.6784 -1.7400 -2.0313
  166DOPC   C3720174   3.120   3.554  12.607 -0.5432  0.1290  0.2701
  166DOPC   H7X20175   3.075   3.471  12.667  0.1436  0.3352  1.1035
  166DOPC   H7Y20176   3.073   3.650  12.636  0.4577  0.9855 -0.8658
  166DOPC   C3820177   3.095   3.537  12.453  1.0026  0.0095 -0.5405
  166DOPC   H8X20178   3.167   3.461  12.415 -0.1601 -1.5007  0.1856
  166DOPC   H8Y20179   3.119   3.637  12.409 -0.6365  0.7967  0.2869
  166DOPC   C3920180   2.959   3.479  12.422  0.1225 -0.8378  0.9529
  166DOPC   H9X20181   2.934   3.385  12.474  1.3649 -0.5888  2.0470
  166DOPC  C31020182   2.860   3.526  12.337  0.0018  0.3603  0.1036
  166DOPC  H10X20183   2.764   3.474  12.339  0.0425  0.2139 -1.0479
  166DOPC  C31120184   2.849   3.653  12.258 -0.6073 -0.2434 -0.5232
  166DOPC  H11X20185   2.947   3.706  12.269 -0.1764 -0.6302 -2.2433
  166DOPC  H11Y20186   2.764   3.712  12.298 -0.4634 -1.0302  1.0279
  166DOPC  C31220187   2.832   3.642  12.108  0.0517 -0.5481 -0.2057
  166DOPC  H12X20188   2.738   3.593  12.075  0.4950 -0.8589 -1.0446
  166DOPC  H12Y20189   2.919   3.584  12.070 -0.6839 -1.3544 -0.7050
  166DOPC  C31320190   2.834   3.778  12.038  0.2861 -0.3485  0.6330
  166DOPC  H13X20191   2.755   3.843  12.080 -0.1333 -1.0172  0.8815
  166DOPC  H13Y20192   2.932   3.830  12.048  0.2812 -0.4586  1.2518
  166DOPC  C31420193   2.821   3.773  11.881 -0.1830  0.4505  0.2929
  166DOPC  H14X20194   2.887   3.690  11.848  1.6333  1.7030  0.6328
  166DOPC  H14Y20195   2.716   3.765  11.847  0.7063  0.4479 -2.7969
  166DOPC  C31520196   2.856   3.909  11.815 -0.2467 -0.2770  0.4743
  166DOPC  H15X20197   2.966   3.911  11.830 -0.2995  1.5780  0.9316
  166DOPC  H15Y20198   2.813   3.993  11.874  0.3204  1.1927 -1.1291
  166DOPC  C31620199   2.821   3.927  11.669  0.2272  0.4008  0.7289
  166DOPC  H16X20200   2.872   4.020  11.636 -0.7888  0.3628 -1.0884
  166DOPC  H16Y20201   2.872   3.851  11.606  0.6018  0.5158  0.8878
  166DOPC  C31720202   2.669   3.948  11.640 -0.0831  0.1851  0.0696
  166DOPC  H17X20203   2.620   3.851  11.664 -0.4293  0.3857  0.1775
  166DOPC  H17Y20204   2.620   4.024  11.705  0.3388 -0.2004  0.8480
  166DOPC  C31820205   2.645   3.969  11.489 -0.0132 -0.0610 -0.2214
  166DOPC  H18X20206   2.673   3.882  11.426  0.8151  0.5382 -0.7036
  166DOPC  H18Y20207   2.537   3.984  11.466 -0.7910 -1.4559  2.1468
  166DOPC  H18Z20208   2.699   4.060  11.454 -1.3320  1.1985  0.8694
  167DOPC     N20209   1.234   2.462  13.474  1.0538  0.3621  0.1450
  167DOPC   C1220210   1.342   2.511  13.565  0.5333 -0.3746  0.2954
  167DOPC  H12A20211   1.330   2.458  13.659 -2.0742 -0.0393  0.2348
  167DOPC  H12B20212   1.327   2.617  13.577  1.4394  0.0344 -1.8126
  167DOPC   C1320213   1.247   2.318  13.442  0.2489  0.2137 -0.1757
  167DOPC  H13A20214   1.166   2.280  13.382  1.0051 -0.4309 -0.8020
  167DOPC  H13B20215   1.329   2.293  13.378 -0.6942 -2.0682 -0.5694
  167DOPC  H13C20216   1.244   2.265  13.536 -0.5002  0.7412  0.1177
  167DOPC   C1420217   1.231   2.533  13.341  0.6077  0.0693 -0.4785
  167DOPC  H14A20218   1.214   2.639  13.351  1.9036  0.4088 -1.6338
  167DOPC  H14B20219   1.323   2.518  13.287  1.0200  0.2353  0.1682
  167DOPC  H14C20220   1.152   2.485  13.284  0.6506  0.7625 -1.1303
  167DOPC   C1520221   1.101   2.493  13.546  0.4370 -0.0929  0.0452
  167DOPC  H15A20222   1.094   2.436  13.637 -0.1596  1.1180  0.7794
  167DOPC  H15B20223   1.014   2.471  13.487  1.4919 -5.2446 -0.0457
  167DOPC  H15C20224   1.092   2.596  13.576 -1.4421 -0.4247  0.7734
  167DOPC   C1120225   1.481   2.474  13.523 -1.0196  0.2227 -0.1015
  167DOPC  H11A20226   1.541   2.526  13.601 -0.4098 -2.3346  1.2471
  167DOPC  H11B20227   1.489   2.365  13.540 -0.2357  0.3538  0.4091
  167DOPC     P20228   1.591   2.437  13.289  0.0963  0.0244  0.4387
  167DOPC   O1320229   1.493   2.379  13.193 -0.1541 -0.1611 -0.0926
  167DOPC   O1420230   1.683   2.344  13.357  0.0602  1.1305  0.6803
  167DOPC   O1220231   1.512   2.524  13.393  0.0257  0.2319 -0.1586
  167DOPC   O1120232   1.685   2.543  13.212 -0.1788  0.1890  0.3207
  167DOPC    C120233   1.641   2.658  13.137  0.0302 -0.0037 -0.3108
  167DOPC    HA20234   1.706   2.745  13.161 -2.0531  1.8723 -1.0698
  167DOPC    HB20235   1.543   2.697  13.170  0.9382  1.3252  0.9372
  167DOPC    C220236   1.657   2.633  12.985 -0.1055  0.1915  0.5434
  167DOPC    HS20237   1.623   2.723  12.930 -0.1542  0.8678  1.6582
  167DOPC   O2120238   1.575   2.525  12.943 -0.2284  0.0207  0.2086
  167DOPC   C2120239   1.446   2.552  12.951 -0.1697 -0.4447  0.4106
  167DOPC   O2220240   1.396   2.659  12.973  0.4732 -0.1250  0.2047
  167DOPC   C2220241   1.368   2.421  12.911 -0.2916 -0.6564 -0.4821
  167DOPC   H2R20242   1.279   2.415  12.978  0.1410 -0.4407  0.1184
  167DOPC   H2S20243   1.432   2.331  12.921  0.0109 -0.6808 -2.2470
  167DOPC    C320244   1.804   2.584  12.958  0.6764 -0.4003 -0.2188
  167DOPC    HX20245   1.813   2.488  13.013 -3.4526 -1.2144 -0.6623
  167DOPC    HY20246   1.875   2.664  12.988  0.1015  0.7718 -1.8275
  167DOPC   O3120247   1.827   2.558  12.816  0.2292  0.2121  0.5099
  167DOPC   C3120248   1.932   2.480  12.800 -0.1211  0.7930  0.2302
  167DOPC   O3220249   2.005   2.436  12.884 -0.1422 -0.4385 -0.2575
  167DOPC   C3220250   1.937   2.441  12.655 -0.3959  0.1488 -0.0081
  167DOPC   H2X20251   2.042   2.410  12.638 -0.4901 -0.2490  0.1347
  167DOPC   H2Y20252   1.865   2.359  12.636 -2.0143  1.3342  0.7356
  167DOPC   C2320253   1.315   2.433  12.763 -0.1683 -0.1348 -0.1745
  167DOPC   H3R20254   1.270   2.535  12.759  0.0608 -0.0811 -2.1037
  167DOPC   H3S20255   1.250   2.344  12.754  0.1246 -0.8394  3.2652
  167DOPC   C2420256   1.424   2.428  12.654 -0.1247  0.8838  0.0064
  167DOPC   H4R20257   1.484   2.334  12.653  0.5163  1.2724  0.6120
  167DOPC   H4S20258   1.500   2.508  12.669  2.2912 -1.4967  1.4803
  167DOPC   C2520259   1.358   2.461  12.511  0.4538 -0.5589 -0.0246
  167DOPC   H5R20260   1.309   2.560  12.517  0.0739 -0.7604  0.2434
  167DOPC   H5S20261   1.272   2.392  12.496 -2.1266  1.9841  1.8670
  167DOPC   C2620262   1.463   2.445  12.409  0.1065  0.6172 -0.3035
  167DOPC   H6R20263   1.542   2.379  12.451 -0.8444  0.2144  0.9072
  167DOPC   H6S20264   1.503   2.548  12.394  2.1694 -0.2123 -1.0134
  167DOPC   C2720265   1.402   2.396  12.275 -0.0520  0.3505  0.9370
  167DOPC   H7R20266   1.356   2.296  12.263  0.7602  0.0181  0.5679
  167DOPC   H7S20267   1.489   2.383  12.207 -1.3300 -2.2178 -0.3520
  167DOPC   C2820268   1.301   2.497  12.217 -0.1208 -0.6377  0.4685
  167DOPC   H8R20269   1.235   2.541  12.295  0.9561 -0.0329  1.0799
  167DOPC   H8S20270   1.237   2.449  12.140 -1.2307  1.8764 -0.2859
  167DOPC   C2920271   1.380   2.617  12.166 -0.0718  0.4137 -0.3177
  167DOPC   H9R20272   1.437   2.676  12.240  0.3180 -0.1424 -0.1709
  167DOPC  C21020273   1.396   2.650  12.037 -0.0868 -0.2670 -0.2512
  167DOPC  H10R20274   1.448   2.743  12.009  0.1960  0.4050  2.2233
  167DOPC  C21120275   1.340   2.579  11.912 -0.2989 -0.1819 -0.3411
  167DOPC  H11R20276   1.231   2.602  11.909 -0.0897  0.7989 -2.4466
  167DOPC  H11S20277   1.356   2.471  11.931 -1.6485 -0.1977  0.8918
  167DOPC  C21220278   1.410   2.628  11.787 -0.4762  0.5115 -0.0116
  167DOPC  H12R20279   1.398   2.738  11.775 -1.3750  0.3418 -0.8571
  167DOPC  H12S20280   1.519   2.609  11.792 -0.4104  1.0956  0.8827
  167DOPC  C21320281   1.340   2.578  11.657 -0.5025  0.3700  0.2732
  167DOPC  H13R20282   1.233   2.599  11.677 -0.7959 -0.9161  0.1660
  167DOPC  H13S20283   1.349   2.468  11.647  0.7385  0.1963  2.7403
  167DOPC  C21420284   1.390   2.651  11.532  0.4675  0.1130  0.3455
  167DOPC  H14R20285   1.493   2.611  11.517 -0.4263 -2.2769  0.1428
  167DOPC  H14S20286   1.390   2.760  11.554 -0.8951  0.5553 -1.5976
  167DOPC  C21520287   1.303   2.632  11.399 -0.3628 -0.3826 -0.1232
  167DOPC  H15R20288   1.323   2.528  11.367  2.0246  0.5141 -1.8050
  167DOPC  H15S20289   1.346   2.691  11.316  0.2924 -1.3950 -0.5232
  167DOPC  C21620290   1.160   2.662  11.425  0.4904 -0.0922  0.4548
  167DOPC  H16R20291   1.143   2.771  11.429 -0.4159 -0.2425  0.9928
  167DOPC  H16S20292   1.121   2.609  11.515  0.0896  1.2189  1.0800
  167DOPC  C21720293   1.074   2.617  11.309 -0.1343  0.0164  0.1612
  167DOPC  H17R20294   0.968   2.638  11.331  0.1864  2.4300 -0.3430
  167DOPC  H17S20295   1.083   2.511  11.277 -1.0427 -0.7194  2.1703
  167DOPC  C21820296   1.102   2.698  11.183 -0.3993  1.3790  0.0908
  167DOPC  H18R20297   1.062   2.799  11.207 -0.7170  1.1277  0.6376
  167DOPC  H18S20298   1.045   2.644  11.105  0.3466 -0.5068  0.7982
  167DOPC  H18T20299   1.202   2.713  11.137 -0.8706  0.0798 -1.4500
  167DOPC   C3320300   1.909   2.554  12.557 -0.2264 -0.4007 -0.8109
  167DOPC   H3X20301   1.984   2.634  12.573 -1.0622  0.6698 -2.0284
  167DOPC   H3Y20302   1.809   2.598  12.579 -0.0254 -1.7313  3.8308
  167DOPC   C3420303   1.914   2.516  12.403  0.4955 -0.4683  0.0251
  167DOPC   H4X20304   1.840   2.433  12.395  1.8247 -1.8317  1.3850
  167DOPC   H4Y20305   2.007   2.460  12.377 -1.1882 -2.2268 -2.9152
  167DOPC   C3520306   1.900   2.635  12.304  0.4404  0.4032 -0.1642
  167DOPC   H5X20307   1.968   2.712  12.345 -0.6602  0.2746  2.0338
  167DOPC   H5Y20308   1.794   2.665  12.313 -0.3135 -2.3519  1.4264
  167DOPC   C3620309   1.934   2.600  12.165 -0.1937  0.2950  0.1053
  167DOPC   H6X20310   1.925   2.691  12.101 -1.5213 -0.7908 -1.3139
  167DOPC   H6Y20311   2.035   2.556  12.147  0.0653  1.5878 -1.9246
  167DOPC   C3720312   1.841   2.484  12.117 -0.0645 -0.4169  0.3201
  167DOPC   H7X20313   1.860   2.386  12.166 -2.3270 -1.0258  0.1011
  167DOPC   H7Y20314   1.736   2.517  12.131  0.5334  1.6858  0.1148
  167DOPC   C3820315   1.854   2.450  11.966 -1.0768 -0.2436  0.1102
  167DOPC   H8X20316   1.786   2.369  11.930  0.0144 -0.4378 -1.6409
  167DOPC   H8Y20317   1.955   2.407  11.949 -0.6077  0.5795  0.7415
  167DOPC   C3920318   1.825   2.568  11.880  0.0680  0.0548 -0.8694
  167DOPC   H9X20319   1.718   2.592  11.890 -0.1412 -1.7984  2.6425
  167DOPC  C31020320   1.905   2.645  11.806 -0.0371  0.2258  0.4562
  167DOPC  H10X20321   1.852   2.724  11.751  1.3374  0.8275 -0.0335
  167DOPC  C31120322   2.048   2.602  11.778 -0.2988  0.0203  0.1033
  167DOPC  H11X20323   2.062   2.497  11.748 -3.3378 -0.2818 -0.5142
  167DOPC  H11Y20324   2.120   2.615  11.862  1.5153  0.5328 -1.4451
  167DOPC  C31220325   2.100   2.685  11.659 -0.5221  0.1221  0.2966
  167DOPC  H12X20326   2.024   2.710  11.582 -1.0127 -1.7791  0.1101
  167DOPC  H12Y20327   2.169   2.615  11.607 -2.2092 -1.4389  0.0476
  167DOPC  C31320328   2.161   2.820  11.700 -0.5047  0.5282 -0.0692
  167DOPC  H13X20329   2.083   2.867  11.763 -0.1147 -1.0198  1.6445
  167DOPC  H13Y20330   2.247   2.789  11.764 -0.4856  1.9170  0.6341
  167DOPC  C31420331   2.211   2.917  11.591  0.3379 -0.6627 -0.4444
  167DOPC  H14X20332   2.130   2.944  11.520  1.1688 -0.8545 -1.4884
  167DOPC  H14Y20333   2.231   3.013  11.644 -0.6444 -0.8510  0.2894
  167DOPC  C31520334   2.335   2.859  11.519  0.7236 -0.0231  0.1788
  167DOPC  H15X20335   2.311   2.762  11.471  2.6014  0.1535 -1.2463
  167DOPC  H15Y20336   2.408   2.839  11.601  0.2080  0.4143  0.7511
  167DOPC  C31620337   2.396   2.949  11.411 -0.0298 -0.2199 -0.2506
  167DOPC  H16X20338   2.463   2.883  11.353 -2.4048 -0.4188 -2.9430
  167DOPC  H16Y20339   2.321   2.981  11.336  0.4789 -0.7649 -0.9915
  167DOPC  C31720340   2.468   3.088  11.438  0.7917  0.3197  0.0620
  167DOPC  H17X20341   2.491   3.127  11.337  1.6450 -1.2233 -0.3763
  167DOPC  H17Y20342   2.392   3.151  11.489  1.0424  1.9932 -1.5323
  167DOPC  C31820343   2.590   3.076  11.521 -0.1101 -0.3838 -0.4043
  167DOPC  H18X20344   2.627   3.180  11.533 -0.7516 -0.2313  0.2949
  167DOPC  H18Y20345   2.562   3.025  11.615  1.9832 -2.1041 -0.6214
  167DOPC  H18Z20346   2.676   3.017  11.480 -0.8002 -1.9227  0.2824
  168DOPC     N20347   4.701   0.912  13.685  0.0191 -0.5016  0.2723
  168DOPC   C1220348   4.833   0.964  13.636  0.2043 -0.3567  0.1679
  168DOPC  H12A20349   4.906   0.974  13.714 -1.5141  1.5738  1.6512
  168DOPC  H12B20350   4.820   1.064  13.596  0.7498  0.4238  1.8536
  168DOPC   C1320351   4.592   0.933  13.582  0.1050  0.1194  0.1171
  168DOPC  H13A20352   4.623   0.911  13.481  0.4422  2.2717 -0.3003
  168DOPC  H13B20353   4.506   0.870  13.601 -0.3574  0.2926 -1.2972
  168DOPC  H13C20354   4.565   1.037  13.575 -2.3437 -0.4040  0.8744
  168DOPC   C1420355   4.660   0.992  13.807  0.4652  0.7223  0.6531
  168DOPC  H14A20356   4.579   0.937  13.854 -0.0992  2.7217  2.1076
  168DOPC  H14B20357   4.740   1.004  13.878 -0.5921  1.7511  1.6981
  168DOPC  H14C20358   4.630   1.094  13.789  2.1285  1.7264  3.1074
  168DOPC   C1520359   4.707   0.768  13.720 -0.2397 -0.5185 -0.4135
  168DOPC  H15A20360   4.784   0.745  13.792  0.0094  3.1039  0.6357
  168DOPC  H15B20361   4.724   0.714  13.627 -0.8219 -1.6626  0.1244
  168DOPC  H15C20362   4.613   0.727  13.754  1.4004 -2.0907  2.6385
  168DOPC   C1120363   4.899   0.884  13.522 -0.8585  0.7886  0.2057
  168DOPC  H11A20364   5.003   0.915  13.499 -0.6976 -1.0887 -1.9357
  168DOPC  H11B20365   4.916   0.784  13.565  1.3320  1.2726  0.5639
  168DOPC     P20366   4.814   1.001  13.299 -0.0459  0.1803  0.2473
  168DOPC   O1320367   4.899   1.110  13.348  0.4269 -0.0598  0.3107
  168DOPC   O1420368   4.672   1.026  13.272 -0.4985  0.3903  0.1435
  168DOPC   O1220369   4.824   0.881  13.403 -0.1885  0.0527 -0.4308
  168DOPC   O1120370   4.893   0.930  13.182  0.2402  0.1259 -0.7453
  168DOPC    C120371   4.838   0.815  13.118 -0.4838  0.5649 -0.8241
  168DOPC    HA20372   4.760   0.766  13.179 -0.7099  1.0167 -0.7410
  168DOPC    HB20373   4.917   0.740  13.097 -1.5979 -1.4030  1.5173
  168DOPC    C220374   4.773   0.870  12.985 -0.5993 -0.4658 -0.9180
  168DOPC    HS20375   4.697   0.948  13.007 -1.1567 -0.5590 -2.3514
  168DOPC   O2120376   4.715   0.756  12.915 -0.1223  0.2473 -0.3011
  168DOPC   C2120377   4.590   0.732  12.950  0.3527  0.2791  0.2439
  168DOPC   O2220378   4.531   0.788  13.036 -0.0847 -0.3715 -0.0587
  168DOPC   C2220379   4.536   0.601  12.886 -0.0470  0.7941  0.5343
  168DOPC   H2R20380   4.582   0.519  12.946 -0.0196 -1.2296 -2.0613
  168DOPC   H2S20381   4.578   0.601  12.783 -0.2353  1.8984  0.4504
  168DOPC    C320382   4.890   0.932  12.902 -0.6689 -0.4455  0.2568
  168DOPC    HX20383   4.980   0.867  12.911  0.2162  0.3600 -2.0001
  168DOPC    HY20384   4.932   1.020  12.956 -0.6131 -0.3590  0.0747
  168DOPC   O3120385   4.851   0.963  12.757 -0.2846  0.3345  0.2300
  168DOPC   C3120386   4.935   1.036  12.691  0.2474  0.1703  0.0762
  168DOPC   O3220387   5.039   1.074  12.740  0.4165  0.0615  0.0201
  168DOPC   C3220388   4.879   1.072  12.548 -0.3578  0.1602  0.0495
  168DOPC   H2X20389   4.770   1.055  12.543 -0.1106 -1.7850  0.3141
  168DOPC   H2Y20390   4.896   1.180  12.528 -0.2474  0.5470  2.0276
  168DOPC   C2320391   4.387   0.593  12.879  0.3301  0.4211  0.9878
  168DOPC   H3R20392   4.356   0.681  12.818  0.1353  0.6733  1.4482
  168DOPC   H3S20393   4.355   0.603  12.985  0.0300  0.7785  0.8678
  168DOPC   C2420394   4.332   0.467  12.810 -0.2276  0.4473 -0.2447
  168DOPC   H4R20395   4.233   0.440  12.852 -0.2980  0.3609 -0.4668
  168DOPC   H4S20396   4.392   0.377  12.835 -0.1291  0.4912 -0.3236
  168DOPC   C2520397   4.323   0.482  12.659  0.4747  0.2284  0.0163
  168DOPC   H5R20398   4.415   0.529  12.618  1.3839 -2.6169 -1.5253
  168DOPC   H5S20399   4.236   0.548  12.642  0.7581  0.4728 -0.4978
  168DOPC   C2620400   4.310   0.344  12.594 -0.3924 -0.5095  0.1653
  168DOPC   H6R20401   4.226   0.294  12.646 -0.7447  0.4755  0.5564
  168DOPC   H6S20402   4.399   0.283  12.623 -0.4165 -0.7256 -0.2052
  168DOPC   C2720403   4.297   0.365  12.441 -0.3582  0.1595  0.6184
  168DOPC   H7R20404   4.398   0.357  12.394 -0.2467  0.9949  0.7008
  168DOPC   H7S20405   4.266   0.469  12.418 -1.1702 -0.2744 -0.3368
  168DOPC   C2820406   4.194   0.277  12.370 -0.5162  0.5203  0.9265
  168DOPC   H8R20407   4.217   0.296  12.264  1.5680 -0.6740  1.1151
  168DOPC   H8S20408   4.093   0.317  12.396 -0.7155  0.2650  0.5609
  168DOPC   C2920409   4.215   0.129  12.382 -0.0440 -0.2969  0.5117
  168DOPC   H9R20410   4.244   0.098  12.483 -0.2522  1.7310  1.2478
  168DOPC  C21020411   4.169   0.038  12.291 -0.7022 -0.7306  0.4702
  168DOPC  H10R20412   4.193  -0.068  12.305 -0.1040 -0.5058  1.2289
  168DOPC  C21120413   4.087   0.062  12.165 -0.7260  0.6751  0.4388
  168DOPC  H11R20414   3.998   0.123  12.192 -1.2335  0.8184 -1.4037
  168DOPC  H11S20415   4.044  -0.036  12.133 -1.9150  1.9025 -2.0405
  168DOPC  C21220416   4.174   0.114  12.048  0.2763  0.6493  0.1776
  168DOPC  H12R20417   4.231   0.034  11.998 -0.0636  0.0113  0.7995
  168DOPC  H12S20418   4.256   0.180  12.083 -0.2023  0.5899  1.4510
  168DOPC  C21320419   4.086   0.181  11.945 -0.5502  0.5448 -0.6339
  168DOPC  H13R20420   4.037   0.267  11.997  1.2811  0.2714  1.7198
  168DOPC  H13S20421   4.011   0.113  11.900 -1.1116  0.4850  0.3495
  168DOPC  C21420422   4.166   0.235  11.819 -0.1432  0.1787 -0.0088
  168DOPC  H14R20423   4.261   0.283  11.850  0.5767 -1.3870  0.3039
  168DOPC  H14S20424   4.091   0.305  11.777 -0.7631 -0.5902 -0.2102
  168DOPC  C21520425   4.191   0.130  11.713 -0.2243  0.9703 -0.4847
  168DOPC  H15R20426   4.094   0.090  11.676 -0.6623  1.0213  0.5827
  168DOPC  H15S20427   4.245   0.041  11.752 -0.1100 -0.4116 -3.5040
  168DOPC  C21620428   4.258   0.199  11.599 -0.2241  0.3109 -0.1385
  168DOPC  H16R20429   4.355   0.227  11.647 -0.3720  0.5171  0.0418
  168DOPC  H16S20430   4.218   0.294  11.558  0.1926 -0.3669 -2.2565
  168DOPC  C21720431   4.287   0.102  11.480  0.3458 -0.0779  0.0722
  168DOPC  H17R20432   4.186   0.083  11.439  0.4461 -0.5440  0.0414
  168DOPC  H17S20433   4.319   0.004  11.521  0.0215 -0.5172 -0.7292
  168DOPC  C21820434   4.404   0.156  11.391  0.2369  0.4350  0.3007
  168DOPC  H18R20435   4.427   0.096  11.301  0.5935 -0.3163  0.8848
  168DOPC  H18S20436   4.496   0.166  11.453  0.6780 -3.4657  0.5256
  168DOPC  H18T20437   4.373   0.254  11.349 -2.0427 -0.7413 -0.9461
  168DOPC   C3320438   4.938   0.991  12.434  0.0035  0.4736 -0.1335
  168DOPC   H3X20439   4.900   0.889  12.456 -0.8563  0.6671 -0.6810
  168DOPC   H3Y20440   5.048   0.988  12.415  0.0398 -0.2739  0.1580
  168DOPC   C3420441   4.870   1.033  12.303  0.2879 -0.0533 -0.3824
  168DOPC   H4X20442   4.919   1.121  12.256  1.6140  0.0475  1.1083
  168DOPC   H4Y20443   4.767   1.069  12.327  1.3079  2.2593  0.8181
  168DOPC   C3520444   4.860   0.918  12.200  0.0118 -0.1450 -0.2539
  168DOPC   H5X20445   4.820   0.822  12.239  0.0181 -0.1014 -0.1398
  168DOPC   H5Y20446   4.966   0.911  12.168  0.4196  2.9651  0.0519
  168DOPC   C3620447   4.777   0.956  12.071  0.0291  0.0923  0.0793
  168DOPC   H6X20448   4.804   0.876  11.999  1.1163  1.4051 -1.0438
  168DOPC   H6Y20449   4.668   0.950  12.093  0.1605  0.4295  0.8381
  168DOPC   C3720450   4.800   1.090  12.002 -0.9105  0.0222  0.4246
  168DOPC   H7X20451   4.757   1.178  12.056  1.9607  3.7355 -2.7014
  168DOPC   H7Y20452   4.907   1.118  11.996 -0.6038 -1.3465 -1.1903
  168DOPC   C3820453   4.743   1.104  11.867  0.5278  0.0558  0.7341
  168DOPC   H8X20454   4.759   1.209  11.834  1.5544 -0.3965 -0.2567
  168DOPC   H8Y20455   4.632   1.095  11.873  0.6209 -0.3893  2.1804
  168DOPC   C3920456   4.804   0.998  11.773  0.1734 -0.8261 -0.1372
  168DOPC   H9X20457   4.906   0.964  11.796  1.1574  2.0688  0.1984
  168DOPC  C31020458   4.742   0.947  11.668 -0.4580  0.8200  0.2609
  168DOPC  H10X20459   4.781   0.859  11.615  2.1971  0.8404  2.0146
  168DOPC  C31120460   4.607   0.991  11.622  0.7194  0.9128  0.0524
  168DOPC  H11X20461   4.537   0.982  11.707  0.8368 -0.5024  0.0268
  168DOPC  H11Y20462   4.570   0.910  11.555  2.9254 -0.5709  0.5065
  168DOPC  C31220463   4.595   1.137  11.578 -0.7831  0.1353  0.2745
  168DOPC  H12X20464   4.635   1.213  11.649  1.3990 -0.4931 -0.1933
  168DOPC  H12Y20465   4.487   1.160  11.569 -0.2127  2.8059 -1.0120
  168DOPC  C31320466   4.659   1.145  11.441  0.4605  0.2864  0.0840
  168DOPC  H13X20467   4.654   1.051  11.381 -0.6671  0.5401 -0.2512
  168DOPC  H13Y20468   4.611   1.230  11.387  0.5975  0.2233 -0.1403
  168DOPC  C31420469   4.807   1.181  11.439 -0.0889  0.2023  0.3116
  168DOPC  H14X20470   4.841   1.267  11.502  0.9670  0.3751 -0.4620
  168DOPC  H14Y20471   4.870   1.101  11.484  0.8219 -0.8948 -2.7058
  168DOPC  C31520472   4.853   1.219  11.299  0.4152 -0.2592 -0.0992
  168DOPC  H15X20473   4.815   1.322  11.283  1.9667  0.7297  2.0018
  168DOPC  H15Y20474   4.804   1.157  11.221 -2.0768  1.5882 -0.1325
  168DOPC  C31620475   5.001   1.216  11.273 -0.0711 -0.8019 -0.6007
  168DOPC  H16X20476   5.051   1.276  11.352  0.9268  0.2591 -2.0071
  168DOPC  H16Y20477   5.031   1.112  11.298 -1.2771 -0.9788  0.1856
  168DOPC  C31720478   5.055   1.267  11.144 -0.3909  0.4761 -0.1055
  168DOPC  H17X20479   5.166   1.257  11.144 -0.5355 -3.2709  2.7713
  168DOPC  H17Y20480   5.012   1.206  11.062  0.9622 -0.4651 -0.1448
  168DOPC  C31820481   5.007   1.415  11.111 -0.4796 -0.4081  0.6388
  168DOPC  H18X20482   5.023   1.471  11.206  1.0442 -0.7282  0.5978
  168DOPC  H18Y20483   5.080   1.454  11.036 -0.5361  1.7433  1.6232
  168DOPC  H18Z20484   4.901   1.427  11.081  0.0871 -0.7625 -1.6499
  169DOPC     N20485   3.254   2.239  14.009 -0.3886  0.4556  0.6139
  169DOPC   C1220486   3.218   2.089  13.993 -0.4117 -0.4275 -0.3437
  169DOPC  H12A20487   3.126   2.076  13.937 -0.5202  1.3649 -0.6468
  169DOPC  H12B20488   3.186   2.051  14.089 -3.0292 -0.0041 -0.9585
  169DOPC   C1320489   3.387   2.257  14.077  0.4468 -0.5244 -1.0486
  169DOPC  H13A20490   3.467   2.213  14.019  1.6277 -1.0629  0.9136
  169DOPC  H13B20491   3.406   2.362  14.095 -0.5181 -0.3381 -1.0709
  169DOPC  H13C20492   3.394   2.206  14.172  1.3065  0.8094 -0.3639
  169DOPC   C1420493   3.157   2.302  14.095  0.5450 -0.0710 -0.6617
  169DOPC  H14A20494   3.059   2.305  14.050 -0.9103 -1.0542  2.1472
  169DOPC  H14B20495   3.147   2.262  14.195 -2.7131  0.5704 -0.6372
  169DOPC  H14C20496   3.177   2.407  14.112  0.1155 -0.0587 -0.2025
  169DOPC   C1520497   3.255   2.302  13.879 -0.0300 -0.1952  0.3718
  169DOPC  H15A20498   3.166   2.291  13.819 -0.2741  2.4232  0.1499
  169DOPC  H15B20499   3.328   2.253  13.817  0.2098  0.1457  0.3820
  169DOPC  H15C20500   3.288   2.404  13.893  0.6844 -0.6696  2.6155
  169DOPC   C1120501   3.332   2.011  13.936 -0.0077  0.9948  0.3100
  169DOPC  H11A20502   3.435   2.031  13.972 -0.0345  0.1526  0.8654
  169DOPC  H11B20503   3.304   1.907  13.963  0.0171  1.3592  1.8652
  169DOPC     P20504   3.286   1.932  13.694  0.1114  0.5503 -0.0759
  169DOPC   O1320505   3.179   1.863  13.756 -0.4159  0.2067  0.4812
  169DOPC   O1420506   3.398   1.848  13.644 -0.0539 -0.7544 -0.5953
  169DOPC   O1220507   3.344   2.040  13.793 -0.0942 -0.1076 -0.5170
  169DOPC   O1120508   3.230   2.018  13.569  0.4356 -0.2870  0.4673
  169DOPC    C120509   3.142   2.130  13.584 -0.0590 -0.0072 -0.8489
  169DOPC    HA20510   3.199   2.222  13.612  0.6897 -0.3700 -1.1611
  169DOPC    HB20511   3.066   2.110  13.662 -0.7084  0.6728 -1.2932
  169DOPC    C220512   3.067   2.158  13.449  0.4246  0.0640 -0.3297
  169DOPC    HS20513   3.008   2.066  13.430 -0.8050  1.0236 -1.3014
  169DOPC   O2120514   3.159   2.185  13.339  0.0612 -0.0566 -0.2165
  169DOPC   C2120515   3.121   2.165  13.218  0.6037 -0.2148 -0.2085
  169DOPC   O2220516   3.008   2.131  13.183 -0.5713 -0.4320 -0.3353
  169DOPC   C2220517   3.229   2.200  13.115  0.6016  0.3097  0.1259
  169DOPC   H2R20518   3.299   2.118  13.141  1.3033  0.8584 -0.0295
  169DOPC   H2S20519   3.288   2.292  13.133  0.3730  0.3977  0.4320
  169DOPC    C320520   2.967   2.273  13.471 -0.3463  0.2266  0.2192
  169DOPC    HX20521   2.905   2.259  13.562 -0.3731 -0.5258  0.0893
  169DOPC    HY20522   2.899   2.290  13.385  1.1800 -1.4967 -1.4057
  169DOPC   O3120523   3.057   2.391  13.483  0.0788  0.0903  0.2833
  169DOPC   C3120524   2.988   2.498  13.493 -0.1010 -0.2498  0.1870
  169DOPC   O3220525   2.868   2.506  13.502  0.3165 -0.2295 -0.2982
  169DOPC   C3220526   3.077   2.613  13.481 -0.0842  0.5822 -0.2681
  169DOPC   H2X20527   3.064   2.683  13.566  0.4084  1.6004 -1.0028
  169DOPC   H2Y20528   3.184   2.582  13.483 -0.2076  0.1995  0.9277
  169DOPC   C2320529   3.167   2.192  12.980 -0.0250  0.1322 -0.3804
  169DOPC   H3R20530   3.090   2.272  12.974  1.4565  1.7660  1.3883
  169DOPC   H3S20531   3.122   2.091  12.974 -2.0817  0.8913  0.9736
  169DOPC   C2420532   3.276   2.221  12.877 -0.2294  0.2370  0.5246
  169DOPC   H4R20533   3.343   2.132  12.885 -0.3442  0.3058  2.8651
  169DOPC   H4S20534   3.323   2.314  12.914 -0.1860  0.6202 -0.4756
  169DOPC   C2520535   3.214   2.245  12.742 -0.2641  0.2368 -0.0012
  169DOPC   H5R20536   3.124   2.307  12.759  0.8258  1.3472  2.1808
  169DOPC   H5S20537   3.190   2.144  12.701  1.0904  0.6207 -1.8776
  169DOPC   C2620538   3.315   2.315  12.652  0.5797 -0.1523  0.6994
  169DOPC   H6R20539   3.402   2.248  12.632  2.3834  2.6383 -1.7089
  169DOPC   H6S20540   3.356   2.397  12.714  0.6154  0.1952  0.2190
  169DOPC   C2720541   3.257   2.365  12.511 -0.2419  0.4578  0.5061
  169DOPC   H7R20542   3.338   2.426  12.467  0.3208  1.5621  2.9508
  169DOPC   H7S20543   3.181   2.436  12.550 -0.7814 -0.1795  0.6329
  169DOPC   C2820544   3.202   2.245  12.428  0.1164 -0.2168 -0.1241
  169DOPC   H8R20545   3.128   2.298  12.364 -0.4542  2.1714  2.3406
  169DOPC   H8S20546   3.132   2.184  12.489 -2.4304  0.3666 -2.2759
  169DOPC   C2920547   3.311   2.165  12.368  0.7311 -0.2502  0.1847
  169DOPC   H9R20548   3.397   2.146  12.434  0.5315 -2.6250 -0.1472
  169DOPC  C21020549   3.309   2.118  12.242  0.1468 -0.0224 -0.1027
  169DOPC  H10R20550   3.396   2.057  12.215 -0.5560 -2.1469  2.0150
  169DOPC  C21120551   3.203   2.148  12.145 -0.7053 -0.0898  0.7508
  169DOPC  H11R20552   3.168   2.253  12.148  1.6483  0.8226 -0.9452
  169DOPC  H11S20553   3.114   2.081  12.148  0.0662 -1.1398  0.8481
  169DOPC  C21220554   3.265   2.141  12.001  0.1325  0.1399 -0.4099
  169DOPC  H12R20555   3.184   2.161  11.929  0.4287  2.8578 -0.0944
  169DOPC  H12S20556   3.293   2.035  11.986 -0.0442  0.0496 -0.1216
  169DOPC  C21320557   3.384   2.233  11.979 -0.9938 -0.3977  0.6213
  169DOPC  H13R20558   3.428   2.213  11.878 -2.7806 -3.4247  0.3116
  169DOPC  H13S20559   3.467   2.210  12.050  0.8983  3.7341  0.0444
  169DOPC  C21420560   3.340   2.381  11.970 -0.1405  0.1746  0.2003
  169DOPC  H14R20561   3.274   2.403  12.057  0.4833  0.3522  0.6323
  169DOPC  H14S20562   3.272   2.393  11.883  0.7754  3.9503 -0.1716
  169DOPC  C21520563   3.456   2.490  11.968  0.1098  0.3507  0.0456
  169DOPC  H15R20564   3.396   2.583  11.954 -0.5093 -0.3423 -2.4607
  169DOPC  H15S20565   3.519   2.488  11.876  0.1735 -0.6896  0.1014
  169DOPC  C21620566   3.540   2.505  12.085 -0.1329  0.7015 -0.0253
  169DOPC  H16R20567   3.608   2.592  12.070  0.5430  0.3290  0.8006
  169DOPC  H16S20568   3.604   2.415  12.099 -3.2385 -1.4619  1.3132
  169DOPC  C21720569   3.466   2.539  12.216 -0.0341  0.5691 -0.0409
  169DOPC  H17R20570   3.540   2.531  12.299  0.5906 -0.6144 -0.6876
  169DOPC  H17S20571   3.395   2.455  12.229  0.1647  0.3797 -0.1838
  169DOPC  C21820572   3.410   2.678  12.229  0.5470  0.1798  0.1788
  169DOPC  H18R20573   3.317   2.682  12.290  1.2971  4.0371  1.3433
  169DOPC  H18S20574   3.388   2.707  12.124 -0.0554  0.0389  0.2613
  169DOPC  H18T20575   3.468   2.757  12.282 -1.2635  0.4390  1.9129
  169DOPC   C3320576   3.055   2.688  13.349  0.2304 -0.4108  0.4497
  169DOPC   H3X20577   3.132   2.768  13.351 -0.9386  0.8025 -0.6573
  169DOPC   H3Y20578   2.956   2.737  13.339  0.0347 -0.6331  1.2492
  169DOPC   C3420579   3.080   2.596  13.224 -0.0848  0.2452  0.4045
  169DOPC   H4X20580   3.011   2.509  13.218 -0.6216  0.6554  0.4820
  169DOPC   H4Y20581   3.183   2.555  13.229  0.7462  1.1431 -4.5817
  169DOPC   C3520582   3.053   2.682  13.099 -0.3525 -0.2243 -0.6606
  169DOPC   H5X20583   3.119   2.770  13.088 -1.8282  1.0148  0.0301
  169DOPC   H5Y20584   2.951   2.724  13.104 -1.0276 -1.8632  0.2442
  169DOPC   C3620585   3.049   2.607  12.964 -0.6126  0.2075 -0.1309
  169DOPC   H6X20586   3.149   2.561  12.949  0.0884  0.5346  2.9699
  169DOPC   H6Y20587   2.978   2.521  12.963  0.1429 -0.4259 -0.3200
  169DOPC   C3720588   3.027   2.704  12.847 -0.2628  0.0826 -0.4046
  169DOPC   H7X20589   2.919   2.728  12.841 -0.6191 -1.6881 -2.4463
  169DOPC   H7Y20590   3.082   2.796  12.877  2.3485 -1.2887 -0.6483
  169DOPC   C3820591   3.083   2.640  12.716 -0.9482  0.1195  0.4344
  169DOPC   H8X20592   3.017   2.555  12.687 -3.3966  1.5986  1.3376
  169DOPC   H8Y20593   3.187   2.606  12.730 -1.1968 -0.8464  0.0182
  169DOPC   C3920594   3.086   2.746  12.614  0.2929  0.0118 -0.4926
  169DOPC   H9X20595   3.132   2.843  12.638 -0.4839 -0.3432  3.0051
  169DOPC  C31020596   3.033   2.735  12.493 -0.3743 -0.0434 -0.2957
  169DOPC  H10X20597   3.042   2.819  12.423 -0.6336  0.1265 -0.1245
  169DOPC  C31120598   2.965   2.610  12.429 -0.4124  0.6419  0.2317
  169DOPC  H11X20599   2.858   2.634  12.412  0.0067  0.8513 -2.5534
  169DOPC  H11Y20600   2.977   2.520  12.493  0.2980 -0.2120 -1.0739
  169DOPC  C31220601   3.024   2.575  12.290  0.0424  0.7558  0.1087
  169DOPC  H12X20602   2.992   2.475  12.253  1.8151  0.1493  0.1229
  169DOPC  H12Y20603   3.134   2.562  12.292 -0.1121 -0.6660  1.4475
  169DOPC  C31320604   2.991   2.675  12.183  0.5089 -0.3820 -1.0700
  169DOPC  H13X20605   2.883   2.700  12.176  0.9514  2.0915  0.1458
  169DOPC  H13Y20606   3.050   2.768  12.195 -0.7652  0.2763  0.4117
  169DOPC  C31420607   3.052   2.626  12.051 -0.6033 -0.4345  0.1650
  169DOPC  H14X20608   3.159   2.600  12.064 -0.4950 -0.0955 -0.0318
  169DOPC  H14Y20609   2.998   2.534  12.020 -2.3725  0.0283  1.7215
  169DOPC  C31520610   3.042   2.736  11.942 -0.1250 -0.2604  0.4158
  169DOPC  H15X20611   3.108   2.815  11.982 -0.8829 -0.6407  2.5613
  169DOPC  H15Y20612   2.940   2.780  11.946  0.1359  0.2808  1.2867
  169DOPC  C31620613   3.093   2.702  11.799 -0.1484 -0.1174 -0.4574
  169DOPC  H16X20614   3.200   2.674  11.808 -0.3315 -1.6403 -2.4726
  169DOPC  H16Y20615   3.037   2.611  11.769  1.2438 -0.5324 -1.9155
  169DOPC  C31720616   3.068   2.811  11.692 -0.1561  0.0444 -0.6242
  169DOPC  H17X20617   2.957   2.815  11.687 -0.0881  1.3162 -1.6317
  169DOPC  H17Y20618   3.115   2.907  11.721  0.4711  0.0317 -1.5477
  169DOPC  C31820619   3.124   2.781  11.555  0.4381 -0.0231 -0.4207
  169DOPC  H18X20620   3.062   2.710  11.496 -0.4692  2.4325 -2.5953
  169DOPC  H18Y20621   3.136   2.873  11.495  0.4960 -0.2100 -0.6949
  169DOPC  H18Z20622   3.223   2.734  11.571  0.4099  0.4445  1.3972
  170DOPC     N20623   2.406   0.137  13.608  0.0678 -0.3119 -0.6377
  170DOPC   C1220624   2.271   0.202  13.642 -0.0047  0.1397 -0.2250
  170DOPC  H12A20625   2.259   0.231  13.745 -1.8072 -2.5728  0.4235
  170DOPC  H12B20626   2.202   0.119  13.641  0.6424 -0.4150 -0.3695
  170DOPC   C1320627   2.427   0.030  13.711 -0.6587 -0.2453  0.3888
  170DOPC  H13A20628   2.349  -0.042  13.692 -0.2241 -0.6710  0.1996
  170DOPC  H13B20629   2.525  -0.016  13.711 -1.4296 -1.9636 -0.4897
  170DOPC  H13C20630   2.414   0.071  13.810  0.6904  0.1460  0.4254
  170DOPC   C1420631   2.519   0.233  13.622  0.6837  0.3104  0.2464
  170DOPC  H14A20632   2.527   0.269  13.724  0.4891 -0.1311  0.4247
  170DOPC  H14B20633   2.615   0.188  13.605  0.3391 -0.7135  0.8922
  170DOPC  H14C20634   2.504   0.312  13.551  1.2000 -1.9038 -2.4862
  170DOPC   C1520635   2.416   0.089  13.471  0.3105 -0.2725  0.2087
  170DOPC  H15A20636   2.335   0.027  13.435 -1.1858  1.6684  0.0623
  170DOPC  H15B20637   2.507   0.036  13.449  0.0718  0.3418 -2.5330
  170DOPC  H15C20638   2.429   0.168  13.399 -1.0633  1.9202  2.1861
  170DOPC   C1120639   2.228   0.323  13.560  0.1080 -0.1062 -0.1957
  170DOPC  H11A20640   2.227   0.287  13.455 -0.5991 -0.4938 -0.0631
  170DOPC  H11B20641   2.122   0.350  13.583 -0.2850 -1.5265 -0.2290
  170DOPC     P20642   2.255   0.562  13.494  0.0579 -0.1004  0.6199
  170DOPC   O1320643   2.352   0.672  13.515  0.5705 -0.0498 -0.0461
  170DOPC   O1420644   2.116   0.580  13.546 -0.2586  0.6563  0.4115
  170DOPC   O1220645   2.319   0.437  13.566  0.0364 -0.4108 -0.2957
  170DOPC   O1120646   2.261   0.520  13.341 -0.1884 -0.9481 -0.3285
  170DOPC    C120647   2.150   0.519  13.251  0.1834  0.1570 -0.0165
  170DOPC    HA20648   2.069   0.586  13.287 -1.7772 -0.9138 -2.1307
  170DOPC    HB20649   2.103   0.419  13.243  1.0729 -0.4267  1.6419
  170DOPC    C220650   2.171   0.580  13.110 -0.7070  0.9069 -0.0408
  170DOPC    HS20651   2.093   0.547  13.038 -2.2828  0.2585  1.8785
  170DOPC   O2120652   2.307   0.538  13.063  0.2743 -0.2137 -0.0379
  170DOPC   C2120653   2.319   0.423  13.026 -0.3650 -0.5562  0.9398
  170DOPC   O2220654   2.239   0.331  13.029  0.3183  0.2500  0.7199
  170DOPC   C2220655   2.455   0.410  12.964  0.5177 -0.2196 -0.6694
  170DOPC   H2R20656   2.507   0.371  13.054 -0.8565 -0.8774 -0.1396
  170DOPC   H2S20657   2.507   0.505  12.939 -0.5375  0.5157 -0.1431
  170DOPC    C320658   2.165   0.734  13.115 -0.3396 -0.1809 -0.2654
  170DOPC    HX20659   2.246   0.767  13.183  1.8898 -2.6436 -1.5683
  170DOPC    HY20660   2.067   0.762  13.159 -1.2147 -1.1682 -1.5252
  170DOPC   O3120661   2.180   0.788  12.984 -0.3074  0.1990 -0.2190
  170DOPC   C3120662   2.066   0.793  12.913 -0.4299 -0.4353 -0.1372
  170DOPC   O3220663   1.958   0.752  12.953 -0.1001  0.2391 -0.3638
  170DOPC   C3220664   2.104   0.845  12.777  0.9815  0.6404  0.4842
  170DOPC   H2X20665   2.134   0.951  12.783  0.1348  1.0253 -1.3084
  170DOPC   H2Y20666   2.195   0.791  12.741  1.1720  2.5658 -2.2302
  170DOPC   C2320667   2.469   0.296  12.863  0.7719  0.8963 -0.6409
  170DOPC   H3R20668   2.406   0.209  12.892  1.7006 -0.1575 -1.6706
  170DOPC   H3S20669   2.570   0.250  12.876  0.2506 -1.2636 -3.2247
  170DOPC   C2420670   2.445   0.325  12.713 -0.2492 -0.1693 -0.3043
  170DOPC   H4R20671   2.455   0.239  12.643  1.8257 -0.5900  0.4324
  170DOPC   H4S20672   2.522   0.399  12.682  1.3277 -1.2956  0.7139
  170DOPC   C2520673   2.302   0.389  12.681  0.2104 -0.4080  0.9346
  170DOPC   H5R20674   2.295   0.493  12.719 -1.1457 -0.5709  1.1791
  170DOPC   H5S20675   2.222   0.326  12.726 -0.0117  0.6912  2.1681
  170DOPC   C2620676   2.264   0.401  12.530  0.1743 -0.4888 -0.0936
  170DOPC   H6R20677   2.340   0.467  12.483 -1.2379 -0.2221 -2.1520
  170DOPC   H6S20678   2.166   0.453  12.526  0.4876  0.4606  2.7443
  170DOPC   C2720679   2.258   0.267  12.453 -0.2343  0.3281  0.7041
  170DOPC   H7R20680   2.171   0.212  12.495 -0.4763  0.3826  0.2805
  170DOPC   H7S20681   2.352   0.214  12.479 -0.5603 -1.2301 -1.1024
  170DOPC   C2820682   2.245   0.292  12.301 -0.4612 -0.2485  0.8698
  170DOPC   H8R20683   2.252   0.196  12.245 -1.1962  1.1597 -1.7820
  170DOPC   H8S20684   2.340   0.347  12.282 -1.8023  1.5594 -1.0373
  170DOPC   C2920685   2.126   0.358  12.246 -0.5753 -0.0037 -0.6933
  170DOPC   H9R20686   2.037   0.338  12.307 -0.2346 -4.2182 -1.2309
  170DOPC  C21020687   2.130   0.456  12.155 -0.3949  0.4425  0.2052
  170DOPC  H10R20688   2.033   0.502  12.133  0.0483  0.6785 -1.3754
  170DOPC  C21120689   2.252   0.495  12.071 -0.3183  0.0751  0.4555
  170DOPC  H11R20690   2.349   0.468  12.118  0.2549  0.0845 -0.6836
  170DOPC  H11S20691   2.247   0.605  12.058  3.3507  0.5182  1.6431
  170DOPC  C21220692   2.271   0.432  11.926  0.1383  0.1217 -0.4179
  170DOPC  H12R20693   2.334   0.340  11.931 -0.7645 -0.6342 -2.1061
  170DOPC  H12S20694   2.327   0.511  11.872  1.2528 -0.2480  0.1622
  170DOPC  C21320695   2.134   0.400  11.862 -0.2009 -0.0055 -0.0115
  170DOPC  H13R20696   2.053   0.474  11.876  1.0054  1.2560  0.6369
  170DOPC  H13S20697   2.104   0.301  11.901  1.9892 -1.0921 -0.8672
  170DOPC  C21420698   2.151   0.373  11.706  0.1383 -0.0895 -1.1047
  170DOPC  H14R20699   2.202   0.455  11.651  1.4806 -0.7484 -0.9062
  170DOPC  H14S20700   2.056   0.361  11.650  0.9772 -1.5921 -2.2927
  170DOPC  C21520701   2.253   0.256  11.675  0.0006 -0.1063  0.3350
  170DOPC  H15R20702   2.244   0.163  11.736 -0.7073 -0.1784  0.1244
  170DOPC  H15S20703   2.354   0.300  11.690 -0.2441  0.8305 -0.7209
  170DOPC  C21620704   2.233   0.227  11.524  0.1992  0.4163 -0.0974
  170DOPC  H16R20705   2.313   0.160  11.487 -0.3494 -0.2176 -0.1535
  170DOPC  H16S20706   2.230   0.317  11.457  1.3450  0.0359 -0.6918
  170DOPC  C21720707   2.097   0.151  11.506  0.0362 -0.1666 -0.5792
  170DOPC  H17R20708   2.014   0.222  11.525 -1.3452 -2.0426  0.7494
  170DOPC  H17S20709   2.082   0.076  11.586  0.4789  1.7144  1.3474
  170DOPC  C21820710   2.074   0.085  11.373 -0.2985  0.6286  0.1675
  170DOPC  H18R20711   1.969   0.051  11.354 -1.6056  3.0294  2.4897
  170DOPC  H18S20712   2.146   0.005  11.347 -0.2325  0.1746  1.6713
  170DOPC  H18T20713   2.090   0.148  11.283 -1.5566 -0.7518 -1.0954
  170DOPC   C3320714   1.984   0.831  12.676  0.1828 -0.0071 -0.1627
  170DOPC   H3X20715   1.892   0.879  12.714 -1.7708 -0.8949 -3.4391
  170DOPC   H3Y20716   1.956   0.723  12.676 -3.1086  0.7628  0.6800
  170DOPC   C3420717   2.020   0.896  12.543  0.3315 -0.0209  0.2852
  170DOPC   H4X20718   2.111   0.851  12.498  0.2442  0.6522 -0.6014
  170DOPC   H4Y20719   2.046   1.002  12.566  0.6035  0.0108 -0.1605
  170DOPC   C3520720   1.897   0.898  12.456  0.2595  0.1104  1.2378
  170DOPC   H5X20721   1.805   0.949  12.492 -0.8099 -1.5838  1.0462
  170DOPC   H5Y20722   1.869   0.790  12.454  0.8666 -0.0345 -0.1987
  170DOPC   C3620723   1.946   0.931  12.314 -0.5975 -0.5052  0.9252
  170DOPC   H6X20724   2.003   1.026  12.319  0.6529 -1.2001  0.2332
  170DOPC   H6Y20725   2.021   0.853  12.290  2.2884  1.4815  2.8457
  170DOPC   C3720726   1.833   0.923  12.211 -0.0422  0.0307 -0.6671
  170DOPC   H7X20727   1.771   0.832  12.231  2.2371 -1.7040 -1.0584
  170DOPC   H7Y20728   1.763   1.005  12.237  0.4403  0.4450 -0.6724
  170DOPC   C3820729   1.877   0.929  12.065  0.3318  0.5021  0.6400
  170DOPC   H8X20730   1.933   0.832  12.064 -1.3337 -0.4962  0.5782
  170DOPC   H8Y20731   1.943   1.015  12.041 -1.3717  1.4005 -1.1298
  170DOPC   C3920732   1.761   0.914  11.964  0.5339  0.2318  0.4322
  170DOPC   H9X20733   1.659   0.924  12.003  0.2470  1.1160 -0.5063
  170DOPC  C31020734   1.777   0.868  11.838  0.5472 -0.4624 -0.5236
  170DOPC  H10X20735   1.687   0.860  11.776  0.0824  0.1943  0.0563
  170DOPC  C31120736   1.899   0.828  11.763  0.8472 -0.4403 -0.2405
  170DOPC  H11X20737   1.932   0.730  11.804 -2.9342 -0.7394  2.6443
  170DOPC  H11Y20738   1.973   0.911  11.770  0.8781 -0.5127  0.4142
  170DOPC  C31220739   1.882   0.811  11.615 -0.6162  0.4310  0.2215
  170DOPC  H12X20740   1.830   0.713  11.603  2.4133 -1.3555  0.5977
  170DOPC  H12Y20741   1.978   0.793  11.562 -2.0692 -1.2595 -2.0359
  170DOPC  C31320742   1.828   0.934  11.542  0.2196 -0.1277  0.0608
  170DOPC  H13X20743   1.741   0.977  11.596  2.0863  3.7710  0.3552
  170DOPC  H13Y20744   1.899   1.020  11.530 -0.6136  0.4399 -0.9675
  170DOPC  C31420745   1.786   0.892  11.401  0.2631  0.2637 -0.2295
  170DOPC  H14X20746   1.878   0.848  11.357 -0.8911 -1.1918 -1.2961
  170DOPC  H14Y20747   1.704   0.818  11.406 -0.6956  1.3861  1.1247
  170DOPC  C31520748   1.718   1.007  11.327  0.4836 -0.5112 -0.2345
  170DOPC  H15X20749   1.793   1.087  11.345  0.9324 -1.1971  1.1508
  170DOPC  H15Y20750   1.621   1.046  11.367  0.2772 -0.4062 -0.8240
  170DOPC  C31620751   1.701   0.981  11.178  0.3172 -0.2174 -0.0863
  170DOPC  H16X20752   1.636   1.060  11.134  1.4695  1.5269  1.2292
  170DOPC  H16Y20753   1.796   0.996  11.122 -0.1689  0.7662 -0.6613
  170DOPC  C31720754   1.642   0.843  11.144 -0.1832 -0.0114 -0.1105
  170DOPC  H17X20755   1.733   0.782  11.162  0.9965  1.5994 -0.4087
  170DOPC  H17Y20756   1.555   0.827  11.212 -2.4923  3.8023 -1.8609
  170DOPC  C31820757   1.601   0.822  10.999  0.5368  0.1903  0.4532
  170DOPC  H18X20758   1.684   0.869  10.942 -1.2650  1.9459 -0.8406
  170DOPC  H18Y20759   1.588   0.714  10.976 -0.0299  0.2242  0.6139
  170DOPC  H18Z20760   1.515   0.888  10.975  0.0390 -0.7375 -0.3896
  171DOPC     N20761   6.192   3.604   8.597  0.0513  0.3506 -0.0273
  171DOPC   C1220762   6.292   3.675   8.687  0.0037  0.7843  0.2352
  171DOPC  H12A20763   6.338   3.740   8.614  1.1397 -1.7620 -1.4297
  171DOPC  H12B20764   6.372   3.611   8.720 -1.5364  0.9451  5.0396
  171DOPC   C1320765   6.090   3.698   8.540 -0.0988  0.8808 -0.0462
  171DOPC  H13A20766   6.005   3.641   8.506  0.3134 -0.2337  0.7102
  171DOPC  H13B20767   6.080   3.777   8.612  0.1941  0.1409  0.8288
  171DOPC  H13C20768   6.129   3.752   8.455 -0.0363  1.6136  0.4394
  171DOPC   C1420769   6.110   3.501   8.671  0.4532 -0.1184 -0.2346
  171DOPC  H14A20770   6.047   3.545   8.747  0.6467  2.2993 -1.4016
  171DOPC  H14B20771   6.040   3.462   8.599  2.1127 -0.1841 -1.8805
  171DOPC  H14C20772   6.176   3.424   8.707  2.0929  0.8882 -0.9815
  171DOPC   C1520773   6.264   3.530   8.487  0.0954  0.0024 -0.3883
  171DOPC  H15A20774   6.333   3.592   8.432  0.4463 -1.2457 -1.4172
  171DOPC  H15B20775   6.209   3.473   8.414  0.2169 -0.9186  0.2162
  171DOPC  H15C20776   6.324   3.453   8.533 -2.1400 -1.0987  0.8389
  171DOPC   C1120777   6.235   3.739   8.814 -0.6677  0.1490  0.7824
  171DOPC  H11A20778   6.200   3.661   8.885  0.1544  0.3622  1.4433
  171DOPC  H11B20779   6.322   3.795   8.855 -1.4188  1.2272  0.9514
  171DOPC     P20780   6.041   3.902   8.895  0.2974 -0.2271  0.5102
  171DOPC   O1320781   5.897   3.891   8.857  0.1153  0.0504 -0.1312
  171DOPC   O1420782   6.093   4.040   8.915  0.4479  0.2721 -0.5421
  171DOPC   O1220783   6.127   3.830   8.787 -0.2937  0.7560 -0.3143
  171DOPC   O1120784   6.056   3.822   9.030 -0.5928  0.1131 -0.3657
  171DOPC    C120785   5.989   3.886   9.143 -1.0322 -0.2250 -0.2252
  171DOPC    HA20786   5.883   3.854   9.154 -0.0198 -4.1439 -0.4327
  171DOPC    HB20787   6.005   3.996   9.134 -1.4981 -0.1842 -0.5793
  171DOPC    C220788   6.061   3.864   9.281 -0.3013  0.5930  0.5817
  171DOPC    HS20789   6.165   3.886   9.251 -0.0530  0.0125  0.9944
  171DOPC   O2120790   6.035   3.732   9.334 -0.1310  0.3124 -0.2456
  171DOPC   C2120791   5.914   3.703   9.367  0.0165 -0.5755  0.1269
  171DOPC   O2220792   5.817   3.774   9.367  0.1761 -0.6658  0.2885
  171DOPC   C2220793   5.915   3.558   9.414  0.0989 -0.7517  0.4229
  171DOPC   H2R20794   6.020   3.528   9.435  1.2196  0.6268 -2.6854
  171DOPC   H2S20795   5.875   3.498   9.330 -0.2476  0.7239 -0.5099
  171DOPC    C320796   6.033   3.984   9.375  0.1288  0.3774 -0.1328
  171DOPC    HX20797   5.930   3.976   9.416  0.1898  2.2905  0.5121
  171DOPC    HY20798   6.031   4.074   9.309  0.4926 -0.6261 -1.5771
  171DOPC   O3120799   6.144   3.989   9.470 -0.2109  0.5255  0.0276
  171DOPC   C3120800   6.195   4.112   9.500 -0.3030  0.3372 -0.3927
  171DOPC   O3220801   6.150   4.217   9.465 -0.0749 -0.4332  0.0693
  171DOPC   C3220802   6.329   4.100   9.565 -0.1561  0.3351 -0.3161
  171DOPC   H2X20803   6.368   3.999   9.538 -1.2128 -0.4317  0.9196
  171DOPC   H2Y20804   6.395   4.177   9.520 -0.0834  1.7027  1.9731
  171DOPC   C2320805   5.835   3.541   9.550  0.2962  0.2418 -0.4307
  171DOPC   H3R20806   5.815   3.433   9.568 -1.1909  0.9998  3.3934
  171DOPC   H3S20807   5.734   3.583   9.531  0.8560  2.4616  1.1683
  171DOPC   C2420808   5.888   3.607   9.672 -0.5942  0.1034  0.1466
  171DOPC   H4R20809   5.944   3.701   9.650  1.6947 -1.1741  0.1802
  171DOPC   H4S20810   5.957   3.534   9.719 -1.6728 -1.0699 -0.0303
  171DOPC   C2520811   5.778   3.649   9.775 -0.4165  0.4604 -0.0713
  171DOPC   H5R20812   5.751   3.553   9.825  1.0235 -0.2010 -0.5187
  171DOPC   H5S20813   5.685   3.693   9.733 -2.8424 -1.2227  3.0745
  171DOPC   C2620814   5.843   3.748   9.873  0.4166 -0.1129  0.3778
  171DOPC   H6R20815   5.885   3.840   9.829 -1.5082  0.6014 -0.0868
  171DOPC   H6S20816   5.940   3.702   9.903  1.5905  1.5004 -0.8119
  171DOPC   C2720817   5.750   3.784   9.989 -0.0959  0.1329 -0.1893
  171DOPC   H7R20818   5.707   3.693  10.035  0.3104  1.4563  3.0812
  171DOPC   H7S20819   5.676   3.854   9.944  0.7894  0.4908 -1.1383
  171DOPC   C2820820   5.837   3.853  10.097  0.0393 -0.5642  0.2346
  171DOPC   H8R20821   5.776   3.924  10.156  0.0405 -0.2385 -0.1479
  171DOPC   H8S20822   5.915   3.917  10.048  2.2019 -1.9852  1.6289
  171DOPC   C2920823   5.935   3.764  10.177  0.6836  0.0286 -0.7388
  171DOPC   H9R20824   6.020   3.722  10.121  0.9746 -2.7085  1.5336
  171DOPC  C21020825   5.900   3.717  10.300 -0.6640  0.2364  0.4754
  171DOPC  H10R20826   5.969   3.644  10.345  0.2562  1.2070  0.6986
  171DOPC  C21120827   5.778   3.751  10.380  0.1103 -0.4012 -0.5076
  171DOPC  H11R20828   5.686   3.714  10.330 -0.9970  0.8653  0.5366
  171DOPC  H11S20829   5.769   3.860  10.393 -0.0246 -0.5070  0.2891
  171DOPC  C21220830   5.792   3.700  10.526 -0.3079 -0.4124  0.2608
  171DOPC  H12R20831   5.812   3.591  10.538  0.1997 -0.6419 -2.0366
  171DOPC  H12S20832   5.698   3.701  10.585  1.7391  2.0098  3.8441
  171DOPC  C21320833   5.892   3.782  10.608 -0.0787  0.1685 -0.1543
  171DOPC  H13R20834   5.838   3.878  10.621 -0.6905  0.2388 -2.7684
  171DOPC  H13S20835   5.971   3.810  10.535  0.3498  3.8715  1.5085
  171DOPC  C21420836   5.938   3.718  10.737  0.4546  0.5664 -0.2142
  171DOPC  H14R20837   6.029   3.767  10.777  1.5788 -1.3024 -0.3968
  171DOPC  H14S20838   5.975   3.618  10.709  0.0089  0.1730  0.5484
  171DOPC  C21520839   5.838   3.708  10.849  0.1229  0.1504 -0.3253
  171DOPC  H15R20840   5.757   3.637  10.823  0.8456 -1.0238  0.5756
  171DOPC  H15S20841   5.795   3.809  10.869  0.4388 -0.2167  2.5962
  171DOPC  C21620842   5.900   3.668  10.984 -0.6034  0.3565  0.7740
  171DOPC  H16R20843   5.830   3.686  11.069 -1.3830  0.6466  0.0849
  171DOPC  H16S20844   6.001   3.712  10.993 -0.5992  1.5681 -3.2284
  171DOPC  C21720845   5.925   3.512  10.983  0.0665 -0.3172 -0.0738
  171DOPC  H17R20846   5.994   3.486  10.900 -0.3040 -0.7427 -0.2510
  171DOPC  H17S20847   5.833   3.453  10.965  0.7026 -1.6189  0.7296
  171DOPC  C21820848   5.990   3.468  11.115  0.5013  0.4754 -0.0728
  171DOPC  H18R20849   5.919   3.500  11.194  1.0269  3.8745 -0.7976
  171DOPC  H18S20850   6.089   3.518  11.111  1.1804 -0.8841 -0.8139
  171DOPC  H18T20851   6.004   3.358  11.114  0.2993  0.4355  0.8957
  171DOPC   C3320852   6.339   4.132   9.710  0.4368 -0.4497  0.1245
  171DOPC   H3X20853   6.251   4.194   9.739 -0.4523 -1.2897 -0.7056
  171DOPC   H3Y20854   6.426   4.200   9.724 -1.3915  1.8680  0.7949
  171DOPC   C3420855   6.332   4.007   9.804 -0.0464 -0.1287  0.9337
  171DOPC   H4X20856   6.414   3.935   9.781  0.6963  0.7484  0.8024
  171DOPC   H4Y20857   6.240   3.948   9.788 -0.5298  0.9930 -0.5861
  171DOPC   C3520858   6.334   4.052   9.948  0.2655  0.2004  0.3669
  171DOPC   H5X20859   6.254   4.126   9.968  0.1919  0.0414  0.6689
  171DOPC   H5Y20860   6.430   4.107   9.954 -0.1876  1.2237 -1.1581
  171DOPC   C3620861   6.322   3.938  10.046 -0.1454 -0.1438 -0.1798
  171DOPC   H6X20862   6.242   3.871  10.009 -1.1561  0.6055  0.6040
  171DOPC   H6Y20863   6.418   3.887  10.069 -0.5329 -0.7188  0.1711
  171DOPC   C3720864   6.263   3.978  10.180 -0.2902 -0.3585  0.3243
  171DOPC   H7X20865   6.318   4.072  10.203  0.3059 -0.7658  0.5780
  171DOPC   H7Y20866   6.158   4.011  10.164 -0.6374 -0.0646  2.8820
  171DOPC   C3820867   6.292   3.866  10.283  0.6087 -0.2882  0.2806
  171DOPC   H8X20868   6.402   3.862  10.292  1.0304  4.0723 -0.9085
  171DOPC   H8Y20869   6.248   3.771  10.245 -0.4744  0.1528  0.4042
  171DOPC   C3920870   6.224   3.889  10.416 -0.1270 -0.1082  0.7827
  171DOPC   H9X20871   6.120   3.922  10.406 -0.6197 -2.0584 -1.3164
  171DOPC  C31020872   6.268   3.870  10.543 -0.1383  0.4789  0.0802
  171DOPC  H10X20873   6.199   3.896  10.625 -0.4660 -1.5280  0.5027
  171DOPC  C31120874   6.398   3.814  10.584  0.0393 -0.0453  0.0696
  171DOPC  H11X20875   6.463   3.897  10.619  0.7459 -0.8925  0.8081
  171DOPC  H11Y20876   6.453   3.772  10.498 -1.9615 -0.0890 -1.2581
  171DOPC  C31220877   6.384   3.703  10.700  0.0022  0.6293 -0.5134
  171DOPC  H12X20878   6.482   3.652  10.712  0.1537  0.7992 -1.0104
  171DOPC  H12Y20879   6.302   3.634  10.672  0.1512 -0.1795  0.9401
  171DOPC  C31320880   6.360   3.771  10.838  0.4001 -0.1692 -0.4357
  171DOPC  H13X20881   6.444   3.843  10.836  0.5279 -0.2392  0.9634
  171DOPC  H13Y20882   6.262   3.820  10.854  1.3662  1.7174  0.0197
  171DOPC  C31420883   6.382   3.681  10.965 -0.1651  0.2600 -0.3825
  171DOPC  H14X20884   6.301   3.604  10.964 -1.2890  1.3854  0.5897
  171DOPC  H14Y20885   6.480   3.631  10.976 -1.5535 -2.3005  1.6036
  171DOPC  C31520886   6.366   3.755  11.100  0.6854  0.4742  0.3159
  171DOPC  H15X20887   6.260   3.790  11.105  0.2788 -0.7620  1.0130
  171DOPC  H15Y20888   6.438   3.839  11.104  2.7728 -1.1986 -0.7546
  171DOPC  C31620889   6.374   3.654  11.222  0.0522 -0.1322  1.2287
  171DOPC  H16X20890   6.306   3.567  11.206 -0.0265  0.0123  0.7792
  171DOPC  H16Y20891   6.474   3.604  11.223  0.3567  0.4033 -0.3035
  171DOPC  C31720892   6.331   3.718  11.357 -0.2633  0.4876  0.4611
  171DOPC  H17X20893   6.388   3.811  11.377 -0.4618  0.6317  0.3653
  171DOPC  H17Y20894   6.221   3.726  11.364 -0.3276  0.2319 -0.1462
  171DOPC  C31820895   6.371   3.622  11.473 -0.3700  0.3175  0.5437
  171DOPC  H18X20896   6.329   3.645  11.574 -0.3798 -2.3202  1.2161
  171DOPC  H18Y20897   6.329   3.525  11.438  1.7941 -0.6381  0.3939
  171DOPC  H18Z20898   6.481   3.609  11.482 -0.4377  0.0486  1.0853
  172DOPC     N20899   6.210   4.408   8.768 -0.4370  0.0011  0.0506
  172DOPC   C1220900   6.244   4.378   8.913 -0.5249  0.6631 -0.0821
  172DOPC  H12A20901   6.228   4.274   8.935 -0.1831  1.0113  2.0096
  172DOPC  H12B20902   6.189   4.450   8.971  0.2152  0.2009  1.2350
  172DOPC   C1320903   6.226   4.552   8.739 -0.0356 -0.3520 -0.3575
  172DOPC  H13A20904   6.219   4.569   8.633  0.7374 -0.4403 -0.4271
  172DOPC  H13B20905   6.145   4.607   8.784  0.9185 -0.6117  1.7893
  172DOPC  H13C20906   6.322   4.585   8.775 -1.1617  2.6623  0.2365
  172DOPC   C1420907   6.070   4.378   8.748  0.2151 -0.3987  0.7162
  172DOPC  H14A20908   6.049   4.274   8.771  0.5942 -0.7418 -0.4115
  172DOPC  H14B20909   6.003   4.431   8.814  1.3731  0.1570  1.4813
  172DOPC  H14C20910   6.041   4.392   8.645  1.4799 -0.9817  0.2687
  172DOPC   C1520911   6.290   4.328   8.664 -0.1969 -0.0381 -0.1112
  172DOPC  H15A20912   6.253   4.345   8.564 -0.4964  0.1015  0.0187
  172DOPC  H15B20913   6.278   4.223   8.688 -1.5548 -0.1067 -0.9876
  172DOPC  H15C20914   6.392   4.356   8.683 -0.3645 -0.3630  1.3786
  172DOPC   C1120915   6.387   4.405   8.948 -0.5014  0.3167 -0.4986
  172DOPC  H11A20916   6.414   4.349   9.040 -2.7994 -0.1134 -0.0346
  172DOPC  H11B20917   6.459   4.360   8.876 -0.3532  2.8627 -2.0700
  172DOPC     P20918   6.389   4.619   9.101  0.2712  0.0150 -0.1038
  172DOPC   O1320919   6.386   4.767   9.085  0.0036  0.4208  0.2196
  172DOPC   O1420920   6.487   4.559   9.190  0.2293 -0.1885  0.1243
  172DOPC   O1220921   6.416   4.543   8.962  0.2374 -0.2165 -0.2705
  172DOPC   O1120922   6.250   4.570   9.140  0.0661 -0.2753 -0.1397
  172DOPC    C120923   6.126   4.643   9.120  0.3050  0.1287  0.0366
  172DOPC    HA20924   6.042   4.572   9.104  0.7692 -0.1942 -1.0338
  172DOPC    HB20925   6.127   4.717   9.038  1.0930  0.7483  0.5848
  172DOPC    C220926   6.077   4.730   9.241  0.6721  0.0891  0.3827
  172DOPC    HS20927   6.150   4.814   9.238  1.2513 -0.4278 -0.8050
  172DOPC   O2120928   6.092   4.642   9.352  0.0150 -0.1018  0.2720
  172DOPC   C2120929   6.159   4.689   9.451 -0.0322  1.0342  0.2126
  172DOPC   O2220930   6.205   4.803   9.460 -0.4873 -0.3625 -0.1071
  172DOPC   C2220931   6.153   4.588   9.564 -0.0590  0.4491 -0.1572
  172DOPC   H2R20932   6.213   4.500   9.532 -1.3602 -0.4409 -0.2484
  172DOPC   H2S20933   6.047   4.557   9.579  0.4594 -1.2780  0.1159
  172DOPC    C320934   5.927   4.786   9.220  0.1913  0.4731  0.1215
  172DOPC    HX20935   5.868   4.692   9.211  0.6604 -0.1538  2.6395
  172DOPC    HY20936   5.915   4.844   9.126 -1.7054  0.3703  0.2550
  172DOPC   O3120937   5.876   4.865   9.331  0.2204  0.7445  0.3787
  172DOPC   C3120938   5.935   4.982   9.333  0.2842 -0.2943  0.1874
  172DOPC   O3220939   6.024   5.020   9.265 -0.1345 -0.6957  0.8026
  172DOPC   C3220940   5.874   5.066   9.448  0.0244  0.8332  0.5843
  172DOPC   H2X20941   5.905   5.171   9.425  3.2229 -0.1634 -0.1979
  172DOPC   H2Y20942   5.764   5.055   9.445  0.1282 -0.6960  1.5316
  172DOPC   C2320943   6.215   4.646   9.693 -0.1386 -0.0776  0.2586
  172DOPC   H3R20944   6.147   4.724   9.732 -0.2234 -0.4208  0.8085
  172DOPC   H3S20945   6.320   4.682   9.693  0.0613 -0.3767 -2.5194
  172DOPC   C2420946   6.196   4.530   9.801 -0.1466 -0.1213  0.3980
  172DOPC   H4R20947   6.257   4.447   9.758  0.7046  1.2601 -1.1880
  172DOPC   H4S20948   6.088   4.512   9.816 -0.6791  2.7398  0.5886
  172DOPC   C2520949   6.259   4.571   9.934  0.0530 -0.2831  0.2381
  172DOPC   H5R20950   6.201   4.655   9.979 -0.2085 -0.6532  0.5906
  172DOPC   H5S20951   6.359   4.611   9.904 -0.4453 -0.0486 -1.2125
  172DOPC   C2620952   6.272   4.450  10.023 -0.4953  0.2595 -0.2141
  172DOPC   H6R20953   6.330   4.375   9.965 -0.9094  0.0199 -0.3208
  172DOPC   H6S20954   6.177   4.403  10.057 -0.2049 -0.0078  0.2331
  172DOPC   C2720955   6.373   4.480  10.135  1.3038  0.0851 -0.3926
  172DOPC   H7R20956   6.332   4.558  10.203 -0.8323 -2.3607  1.3298
  172DOPC   H7S20957   6.463   4.517  10.082  2.7667  0.3518  2.1192
  172DOPC   C2820958   6.429   4.367  10.216  0.4008  0.8483  0.0078
  172DOPC   H8R20959   6.514   4.408  10.275 -0.2725  0.0099  1.6169
  172DOPC   H8S20960   6.471   4.290  10.148  0.1879  0.3475  0.4306
  172DOPC   C2920961   6.321   4.305  10.297  0.1749  0.5730 -0.4017
  172DOPC   H9R20962   6.234   4.286  10.232  0.8279 -1.1794 -0.8121
  172DOPC  C21020963   6.313   4.281  10.429 -0.4053  0.2247  0.1157
  172DOPC  H10R20964   6.214   4.245  10.462 -1.2056  0.4355 -1.9309
  172DOPC  C21120965   6.416   4.307  10.533 -0.8609 -0.4704  0.1012
  172DOPC  H11R20966   6.515   4.335  10.490 -0.7766 -0.1595  0.4937
  172DOPC  H11S20967   6.432   4.214  10.592 -1.8835 -1.7202 -1.4848
  172DOPC  C21220968   6.377   4.412  10.629  0.0703  0.2300 -0.1547
  172DOPC  H12R20969   6.282   4.380  10.677 -0.9133  2.6381 -0.3414
  172DOPC  H12S20970   6.363   4.511  10.580 -1.5866  0.6951  1.1475
  172DOPC  C21320971   6.478   4.445  10.744 -0.2860  0.9064 -0.5683
  172DOPC  H13R20972   6.446   4.536  10.799 -0.3661  0.4312  0.1855
  172DOPC  H13S20973   6.576   4.472  10.698  0.5490 -0.3932  0.3887
  172DOPC  C21420974   6.490   4.328  10.838 -0.7105 -0.3569  0.0914
  172DOPC  H14R20975   6.537   4.239  10.792  0.4916 -0.3344  1.2192
  172DOPC  H14S20976   6.384   4.299  10.856 -0.4806 -1.6453 -0.5262
  172DOPC  C21520977   6.553   4.352  10.977 -0.1907 -0.1174  0.3687
  172DOPC  H15R20978   6.503   4.439  11.024  0.8034  1.2594 -1.0283
  172DOPC  H15S20979   6.662   4.372  10.978 -0.2867  0.9244 -2.3650
  172DOPC  C21620980   6.550   4.221  11.070  0.1802  0.3823 -0.0528
  172DOPC  H16R20981   6.635   4.158  11.038  1.5207  2.1586 -0.1797
  172DOPC  H16S20982   6.453   4.172  11.045  0.6570  0.4135 -2.1559
  172DOPC  C21720983   6.564   4.258  11.222  0.2801 -0.4499 -0.2344
  172DOPC  H17R20984   6.482   4.331  11.242  2.0330  1.2446  1.1329
  172DOPC  H17S20985   6.658   4.316  11.229  0.1436  0.0214 -1.8191
  172DOPC  C21820986   6.551   4.138  11.316  0.8771 -0.1407 -0.4680
  172DOPC  H18R20987   6.464   4.072  11.292 -0.1412  0.8238  0.4470
  172DOPC  H18S20988   6.549   4.178  11.419  1.7749  1.8431 -1.1737
  172DOPC  H18T20989   6.637   4.069  11.306 -0.5358 -2.2453  1.1094
  172DOPC   C3320990   5.927   5.034   9.594  0.1702 -0.2315  0.3050
  172DOPC   H3X20991   6.021   4.974   9.591  0.0383 -0.5710  2.0503
  172DOPC   H3Y20992   5.852   4.986   9.659 -0.0892 -3.5821 -2.2073
  172DOPC   C3420993   5.955   5.168   9.656  0.0470 -0.6252 -0.0632
  172DOPC   H4X20994   5.868   5.228   9.623  1.5572  0.6846 -1.8359
  172DOPC   H4Y20995   6.041   5.219   9.609 -0.6514  0.4917 -0.1705
  172DOPC   C3520996   5.988   5.158   9.807 -0.0136 -0.4434  0.1795
  172DOPC   H5X20997   6.083   5.103   9.824 -0.3015 -1.5085 -1.4388
  172DOPC   H5Y20998   5.905   5.092   9.842  0.7927 -2.1518 -0.9802
  172DOPC   C3620999   5.987   5.292   9.879 -0.5218 -0.0732  0.2259
  172DOPC   H6X21000   6.092   5.327   9.868 -0.7054  0.7476  0.9649
  172DOPC   H6Y21001   5.920   5.364   9.828 -0.2634 -0.8933 -1.3381
  172DOPC   C3721002   5.942   5.290  10.024  0.0228  0.3260 -0.8280
  172DOPC   H7X21003   5.939   5.387  10.079 -1.5824 -0.1288 -0.0588
  172DOPC   H7Y21004   5.843   5.240  10.017  0.4752 -0.5735 -0.8515
  172DOPC   C3821005   6.031   5.183  10.103 -0.5390  0.3988  0.1340
  172DOPC   H8X21006   6.012   5.090  10.045  0.1238 -0.2928  0.9898
  172DOPC   H8Y21007   5.985   5.160  10.202  0.1956  2.0514  0.8972
  172DOPC   C3921008   6.184   5.210  10.127 -0.4200 -0.1624 -0.0260
  172DOPC   H9X21009   6.254   5.225  10.043  0.1595 -2.4293 -0.0153
  172DOPC  C31021010   6.238   5.221  10.253 -0.0767 -0.0653 -0.0553
  172DOPC  H10X21011   6.347   5.233  10.262 -0.2917  1.4397  1.0509
  172DOPC  C31121012   6.176   5.210  10.394  0.5235 -0.6503  0.2769
  172DOPC  H11X21013   6.070   5.179  10.388  0.7801 -1.3438 -1.1497
  172DOPC  H11Y21014   6.166   5.314  10.433  0.7263  0.3575 -2.1678
  172DOPC  C31221015   6.245   5.120  10.497 -0.4460  0.1652  0.0906
  172DOPC  H12X21016   6.351   5.151  10.501 -0.0430 -1.2023  0.8813
  172DOPC  H12Y21017   6.248   5.011  10.474 -0.6632  0.4297 -1.2610
  172DOPC  C31321018   6.181   5.142  10.638 -0.5445 -0.3985 -0.0807
  172DOPC  H13X21019   6.215   5.244  10.667  1.0970 -0.2170 -2.3855
  172DOPC  H13Y21020   6.071   5.144  10.650 -0.7648  4.7671 -0.4619
  172DOPC  C31421021   6.249   5.044  10.741 -0.1286 -0.5748 -0.2545
  172DOPC  H14X21022   6.233   4.937  10.718 -1.0336 -1.3655  3.4437
  172DOPC  H14Y21023   6.358   5.066  10.743 -0.4615  1.2764 -0.2042
  172DOPC  C31521024   6.184   5.063  10.878  0.3918  0.5825 -0.2092
  172DOPC  H15X21025   6.089   5.007  10.896 -0.1184  0.9491 -1.6233
  172DOPC  H15Y21026   6.156   5.170  10.880 -1.0575  0.4532 -4.3247
  172DOPC  C31621027   6.274   5.020  10.994 -0.6054 -0.5159  0.7875
  172DOPC  H16X21028   6.270   4.909  10.993  1.0489 -0.6398  2.3157
  172DOPC  H16Y21029   6.379   5.049  10.969 -1.1436 -1.1610 -2.8081
  172DOPC  C31721030   6.227   5.079  11.128 -0.3745  0.0371  0.3079
  172DOPC  H17X21031   6.228   5.190  11.121  0.0161 -0.0683 -2.5266
  172DOPC  H17Y21032   6.120   5.051  11.144 -0.2763 -0.6754 -0.2541
  172DOPC  C31821033   6.307   5.014  11.244  0.0555 -0.3863 -0.8632
  172DOPC  H18X21034   6.283   4.906  11.237  1.4530 -0.7764 -0.0346
  172DOPC  H18Y21035   6.416   5.029  11.229  0.6248 -2.0884  1.0564
  172DOPC  H18Z21036   6.257   5.051  11.337 -1.1345 -0.9114 -1.2727
  173DOPC     N21037   3.890   4.457   9.693 -0.1225 -0.2324 -0.6119
  173DOPC   C1221038   3.756   4.535   9.657  0.5294  0.2611 -0.3609
  173DOPC  H12A21039   3.760   4.638   9.688  1.7639 -0.4124  1.9693
  173DOPC  H12B21040   3.682   4.507   9.729 -0.5968  2.5319 -0.5419
  173DOPC   C1321041   4.009   4.536   9.653  0.3291  0.3918  0.3334
  173DOPC  H13A21042   4.020   4.623   9.717  2.9153 -1.2895  2.4025
  173DOPC  H13B21043   4.102   4.482   9.660 -0.5017 -1.0860  0.2551
  173DOPC  H13C21044   4.005   4.573   9.552  4.7186  0.0640 -0.1394
  173DOPC   C1421045   3.893   4.325   9.636 -0.3885  0.0253 -0.2498
  173DOPC  H14A21046   3.870   4.320   9.531 -2.1522  0.3625  0.0718
  173DOPC  H14B21047   3.980   4.271   9.670 -0.3804 -0.0795 -0.4366
  173DOPC  H14C21048   3.808   4.272   9.678  0.4550 -0.6147  0.6780
  173DOPC   C1521049   3.902   4.445   9.844 -0.4652 -0.0847  0.0430
  173DOPC  H15A21050   3.812   4.410   9.893 -0.4663 -0.5281 -0.2769
  173DOPC  H15B21051   3.923   4.543   9.886  0.1618 -0.3448  0.3461
  173DOPC  H15C21052   3.991   4.387   9.865  0.5079  0.6577 -1.7610
  173DOPC   C1121053   3.694   4.527   9.514  0.8561  0.1251  0.2313
  173DOPC  H11A21054   3.670   4.419   9.500  1.4388  0.1367 -1.0064
  173DOPC  H11B21055   3.596   4.579   9.502  0.8047 -0.5101 -3.1235
  173DOPC     P21056   3.787   4.734   9.395  0.4573 -0.0237  0.0336
  173DOPC   O1321057   3.667   4.762   9.316 -0.2685 -0.4326 -0.6105
  173DOPC   O1421058   3.921   4.767   9.334 -0.3848  0.0417 -0.3729
  173DOPC   O1221059   3.785   4.578   9.416 -0.0257 -0.7041 -0.4610
  173DOPC   O1121060   3.778   4.793   9.541  0.6810  0.0465  0.0123
  173DOPC    C121061   3.834   4.920   9.572  0.8976 -0.2168  0.3433
  173DOPC    HA21062   3.761   4.999   9.543  0.0390 -0.4611  1.7170
  173DOPC    HB21063   3.926   4.937   9.514 -0.5847  0.1604 -2.0197
  173DOPC    C221064   3.885   4.934   9.718  0.3955  0.7679  0.0609
  173DOPC    HS21065   3.964   4.857   9.731  0.4768  0.6874 -0.8503
  173DOPC   O2121066   3.775   4.902   9.801 -0.0774  1.0787  0.0841
  173DOPC   C2121067   3.797   4.827   9.912 -0.2988 -0.7315 -0.0364
  173DOPC   O2221068   3.900   4.766   9.937  0.0972  0.1098  0.3274
  173DOPC   C2221069   3.665   4.839   9.988 -0.0904  0.1738  0.2584
  173DOPC   H2R21070   3.578   4.793   9.936  1.5650 -1.9936 -0.7695
  173DOPC   H2S21071   3.652   4.947  10.009  1.3718  1.0362 -2.6903
  173DOPC    C321072   3.956   5.063   9.756  0.6008  0.5480  0.2432
  173DOPC    HX21073   3.895   5.152   9.732 -0.6611 -0.4852 -0.5059
  173DOPC    HY21074   4.042   5.077   9.686 -0.0431 -1.5362 -1.0721
  173DOPC   O3121075   3.984   5.062   9.895 -0.2161 -0.4247 -0.2826
  173DOPC   C3121076   4.091   5.013   9.954  0.1193 -0.1618  0.2475
  173DOPC   O3221077   4.179   4.954   9.892 -0.0636  0.0557  0.0910
  173DOPC   C3221078   4.102   5.060  10.101 -0.0858  0.1282 -0.1264
  173DOPC   H2X21079   4.001   5.082  10.142  0.4821 -0.1779  1.5080
  173DOPC   H2Y21080   4.128   4.967  10.155 -0.1697 -0.5934 -1.2951
  173DOPC   C2321081   3.671   4.771  10.127 -0.6686  0.7491  0.5085
  173DOPC   H3R21082   3.747   4.814  10.195  0.6468  0.0424 -0.4836
  173DOPC   H3S21083   3.687   4.664  10.103  1.7197  1.7452 -3.2095
  173DOPC   C2421084   3.528   4.782  10.191 -0.1523 -0.5172  0.1693
  173DOPC   H4R21085   3.448   4.748  10.122  2.3316  0.0232 -3.2138
  173DOPC   H4S21086   3.507   4.888  10.219 -0.6081 -0.3411 -0.7938
  173DOPC   C2521087   3.513   4.701  10.320 -0.0149 -0.0659 -0.5829
  173DOPC   H5R21088   3.600   4.740  10.377 -0.3047  0.9743 -0.8154
  173DOPC   H5S21089   3.527   4.593  10.299  0.6666 -0.0136 -0.4383
  173DOPC   C2621090   3.390   4.734  10.409 -0.0955  0.0950  0.2970
  173DOPC   H6R21091   3.295   4.715  10.355  0.3741  1.6846 -1.1601
  173DOPC   H6S21092   3.389   4.844  10.420 -1.1780  0.2541 -1.1152
  173DOPC   C2721093   3.393   4.647  10.530  0.6200  0.3661  0.3013
  173DOPC   H7R21094   3.470   4.675  10.605  0.0438 -2.3887  2.0830
  173DOPC   H7S21095   3.411   4.543  10.495 -1.8501  0.1282 -0.4679
  173DOPC   C2821096   3.259   4.650  10.609 -0.5901 -0.4440  0.3584
  173DOPC   H8R21097   3.242   4.754  10.645 -1.5983 -0.4029 -0.1980
  173DOPC   H8S21098   3.264   4.589  10.702 -0.1944  0.3371  0.8536
  173DOPC   C2921099   3.136   4.604  10.532 -0.1451 -0.0539 -0.0248
  173DOPC   H9R21100   3.088   4.688  10.481 -0.8545  0.5966  1.6433
  173DOPC  C21021101   3.083   4.480  10.528  0.6402  0.2247  0.4569
  173DOPC  H10R21102   2.984   4.464  10.484  1.0359  1.3613 -0.9075
  173DOPC  C21121103   3.142   4.355  10.588  0.8964 -0.2378  0.0734
  173DOPC  H11R21104   3.238   4.377  10.640  2.0328 -1.4503 -1.4500
  173DOPC  H11S21105   3.179   4.285  10.510 -1.8177 -0.0471 -1.5052
  173DOPC  C21221106   3.046   4.299  10.686 -0.4383  0.4276 -0.1195
  173DOPC  H12R21107   2.968   4.255  10.620  0.4848  0.2127 -1.0847
  173DOPC  H12S21108   2.978   4.371  10.737 -2.3684 -0.7653 -0.8744
  173DOPC  C21321109   3.118   4.203  10.783 -0.5933 -0.0505  0.1759
  173DOPC  H13R21110   3.207   4.257  10.824  0.5226 -1.4364 -0.3612
  173DOPC  H13S21111   3.166   4.126  10.720 -0.8640  1.2782 -1.7351
  173DOPC  C21421112   3.032   4.138  10.893  0.2591  0.5361 -0.5490
  173DOPC  H14R21113   3.090   4.066  10.954 -1.1769 -2.5498 -2.5960
  173DOPC  H14S21114   2.962   4.068  10.844  1.2180  0.0511 -1.2574
  173DOPC  C21521115   2.976   4.244  10.987 -0.1674  0.1325 -0.7107
  173DOPC  H15R21116   2.896   4.306  10.942 -2.4936 -0.7086  1.9426
  173DOPC  H15S21117   3.053   4.313  11.028  1.5366 -2.8316  1.5174
  173DOPC  C21621118   2.908   4.186  11.119  0.5220  0.4948 -0.7013
  173DOPC  H16R21119   2.890   4.268  11.191  2.0425 -0.2269  0.5650
  173DOPC  H16S21120   2.984   4.120  11.167  0.0652 -1.1332 -2.0877
  173DOPC  C21721121   2.790   4.093  11.093  0.1941  0.1339  0.0897
  173DOPC  H17R21122   2.756   4.044  11.187  0.2884  0.7858  0.4738
  173DOPC  H17S21123   2.828   4.005  11.036 -0.0350 -2.9737  4.2667
  173DOPC  C21821124   2.677   4.156  11.021  0.4957 -0.0568 -0.0607
  173DOPC  H18R21125   2.672   4.264  11.045  1.1455  0.0614 -0.4260
  173DOPC  H18S21126   2.574   4.122  11.044 -0.1037  2.6265  1.7405
  173DOPC  H18T21127   2.688   4.142  10.912  0.5688 -1.1558  0.0690
  173DOPC   C3321128   4.189   5.185  10.117 -0.2893  0.3192  0.5392
  173DOPC   H3X21129   4.143   5.248  10.038 -0.5481  0.2796  0.6579
  173DOPC   H3Y21130   4.293   5.151  10.097 -0.8015 -0.6913 -0.4476
  173DOPC   C3421131   4.156   5.261  10.248  0.4031  0.2696  0.1588
  173DOPC   H4X21132   4.053   5.303  10.247  0.0181 -0.6270 -1.9418
  173DOPC   H4Y21133   4.229   5.345  10.251  1.1255 -0.3559  2.7219
  173DOPC   C3521134   4.180   5.193  10.385  0.2994  0.1691 -0.8350
  173DOPC   H5X21135   4.289   5.180  10.397  0.3998  1.3197 -0.3992
  173DOPC   H5Y21136   4.114   5.104  10.397  1.0595 -0.2508  0.4427
  173DOPC   C3621137   4.149   5.282  10.505  0.4328 -0.1497 -0.1485
  173DOPC   H6X21138   4.233   5.354  10.510  2.2282 -2.0850 -1.0539
  173DOPC   H6Y21139   4.059   5.347  10.495 -0.3507 -1.0345  0.9894
  173DOPC   C3721140   4.141   5.196  10.628 -0.0377 -0.2440 -0.3305
  173DOPC   H7X21141   4.070   5.112  10.611  0.5739 -0.8731  0.1785
  173DOPC   H7Y21142   4.243   5.151  10.631 -0.9951 -3.2445 -4.3782
  173DOPC   C3821143   4.102   5.276  10.765 -0.6096 -0.1308 -0.1165
  173DOPC   H8X21144   4.085   5.199  10.843  2.5774 -1.3271 -0.4540
  173DOPC   H8Y21145   3.998   5.306  10.742 -0.7611 -0.0398  0.6630
  173DOPC   C3921146   4.191   5.396  10.794  0.1857 -0.1823 -0.4690
  173DOPC   H9X21147   4.208   5.460  10.707 -0.4415 -0.6297 -0.9236
  173DOPC  C31021148   4.254   5.425  10.908 -0.2578  0.0044  0.8638
  173DOPC  H10X21149   4.313   5.517  10.921  0.8140 -0.9984  4.2916
  173DOPC  C31121150   4.257   5.343  11.034  0.2618 -0.1777  0.8151
  173DOPC  H11X21151   4.309   5.247  11.010 -0.5447 -0.8353  1.6524
  173DOPC  H11Y21152   4.158   5.317  11.076 -0.2542  1.8711  0.9702
  173DOPC  C31221153   4.345   5.411  11.142  0.1124  0.4311 -0.0024
  173DOPC  H12X21154   4.286   5.493  11.188 -0.2041  1.2506 -1.7692
  173DOPC  H12Y21155   4.440   5.453  11.104  1.3602  0.4437  2.8998
  173DOPC  C31321156   4.387   5.304  11.243  0.1185 -0.5537  0.8196
  173DOPC  H13X21157   4.372   5.203  11.202 -3.2790 -0.1013  0.6758
  173DOPC  H13Y21158   4.497   5.311  11.260 -0.0205 -0.8494  1.9547
  173DOPC  C31421159   4.332   5.325  11.386  0.3645  0.2045  0.4026
  173DOPC  H14X21160   4.412   5.313  11.463 -0.0052  0.7600  0.8828
  173DOPC  H14Y21161   4.298   5.431  11.390  1.2360  0.4641  1.6668
  173DOPC  C31521162   4.215   5.231  11.420 -0.0192 -1.0318 -0.0624
  173DOPC  H15X21163   4.236   5.123  11.435 -1.3893 -1.1747  0.9626
  173DOPC  H15Y21164   4.158   5.245  11.326 -0.4006  0.1532  0.3315
  173DOPC  C31621165   4.130   5.281  11.539 -0.0100 -0.3156  0.0078
  173DOPC  H16X21166   4.183   5.283  11.636 -1.8523 -0.3638  1.0713
  173DOPC  H16Y21167   4.093   5.384  11.523  1.0989 -0.0321 -0.8621
  173DOPC  C31721168   4.006   5.187  11.548  0.3139 -0.4405  0.5290
  173DOPC  H17X21169   3.967   5.178  11.444 -0.2965 -1.0794  0.8064
  173DOPC  H17Y21170   4.031   5.083  11.578  1.1413 -0.6833 -0.9333
  173DOPC  C31821171   3.887   5.243  11.624 -0.3956  0.6947 -0.2962
  173DOPC  H18X21172   3.918   5.243  11.731 -0.6401 -1.1388 -0.1932
  173DOPC  H18Y21173   3.865   5.350  11.605  2.1529  1.4817  0.7700
  173DOPC  H18Z21174   3.798   5.176  11.619 -0.0855  0.3098 -0.6294
  174DOPC     N21175   0.042   4.807   9.234 -0.2690  0.0304 -0.2641
  174DOPC   C1221176   0.005   4.665   9.252 -0.3581  0.0997 -0.1330
  174DOPC  H12A21177  -0.021   4.624   9.155  1.4988  0.6338 -0.9111
  174DOPC  H12B21178  -0.082   4.664   9.315 -1.3378 -1.8804 -1.3922
  174DOPC   C1321179   0.158   4.818   9.139  0.5366 -0.3169  0.6670
  174DOPC  H13A21180   0.232   4.755   9.185  0.5460 -0.6267  0.2271
  174DOPC  H13B21181   0.131   4.773   9.045 -3.0777  0.8948  0.9757
  174DOPC  H13C21182   0.208   4.914   9.136 -0.9201  0.4443 -0.6547
  174DOPC   C1421183   0.078   4.857   9.367 -0.7812 -0.7354  0.3588
  174DOPC  H14A21184   0.164   4.805   9.406 -0.5846 -0.2564  0.5701
  174DOPC  H14B21185   0.103   4.962   9.374 -1.9757 -0.5207  2.3051
  174DOPC  H14C21186  -0.013   4.843   9.424 -2.4051  0.6609 -1.7172
  174DOPC   C1521187  -0.073   4.885   9.188 -0.0833 -0.5870  0.3956
  174DOPC  H15A21188  -0.052   4.991   9.181  1.2625 -0.8637  0.0249
  174DOPC  H15B21189  -0.161   4.861   9.245 -0.1897 -0.8404  0.1290
  174DOPC  H15C21190  -0.103   4.846   9.092  0.5256  1.3703 -0.6480
  174DOPC   C1121191   0.116   4.566   9.307  0.0005 -0.2016  0.1361
  174DOPC  H11A21192   0.147   4.602   9.407  3.5379 -0.4623 -0.7468
  174DOPC  H11B21193   0.065   4.467   9.314  0.0843 -0.4243 -1.7661
  174DOPC     P21194   0.210   4.459   9.089  0.0304  0.0260 -0.3330
  174DOPC   O1321195   0.348   4.435   9.039  0.2544  0.6494 -0.5365
  174DOPC   O1421196   0.107   4.510   8.999 -0.6816  0.1128 -0.2493
  174DOPC   O1221197   0.228   4.553   9.220  0.0734  0.1072 -0.1243
  174DOPC   O1121198   0.160   4.313   9.141 -1.3157  0.4858  0.2841
  174DOPC    C121199   0.257   4.230   9.212  0.2377 -0.0985  0.0183
  174DOPC    HA21200   0.304   4.295   9.289  0.9370  1.1329 -1.4002
  174DOPC    HB21201   0.337   4.196   9.143  0.9184 -0.4155  0.9326
  174DOPC    C221202   0.193   4.109   9.290  0.1092  0.4797  0.0064
  174DOPC    HS21203   0.131   4.060   9.212 -0.2808 -0.1647  0.7058
  174DOPC   O2121204   0.113   4.145   9.400 -0.1874 -0.5514 -0.3073
  174DOPC   C2121205   0.028   4.045   9.431 -0.2576  0.1069  0.5868
  174DOPC   O2221206   0.010   3.945   9.361 -0.2166 -0.1636  0.0785
  174DOPC   C2221207  -0.060   4.080   9.549 -0.3220 -0.2043 -0.4476
  174DOPC   H2R21208  -0.151   4.016   9.547 -1.7560  1.7391 -1.0436
  174DOPC   H2S21209  -0.114   4.177   9.537 -0.9581 -0.3224  1.1391
  174DOPC    C321210   0.308   4.011   9.348  0.0555 -0.2564 -0.2730
  174DOPC    HX21211   0.375   3.984   9.263  1.2988  2.6106 -0.3203
  174DOPC    HY21212   0.261   3.918   9.385  0.9201  0.0997  1.8450
  174DOPC   O3121213   0.387   4.073   9.451 -0.7219  0.3322 -0.3570
  174DOPC   C3121214   0.379   4.021   9.574  0.2057  0.1931  0.1763
  174DOPC   O3221215   0.316   3.922   9.608 -0.2373  0.7305  0.6754
  174DOPC   C3221216   0.455   4.113   9.670 -0.3062  0.3060 -0.2932
  174DOPC   H2X21217   0.563   4.100   9.645 -0.5457  0.5981 -1.5929
  174DOPC   H2Y21218   0.434   4.222   9.663 -3.9469 -0.2196  0.5467
  174DOPC   C2321219   0.018   4.065   9.685  0.3020  0.4237 -0.1752
  174DOPC   H3R21220   0.080   4.157   9.691 -1.6796  2.0205 -2.2282
  174DOPC   H3S21221   0.090   3.980   9.683  0.7482  0.7250 -3.7951
  174DOPC   C2421222  -0.071   4.051   9.807 -0.3276  0.4806  1.0489
  174DOPC   H4R21223  -0.147   3.970   9.808 -0.8845  0.9869  2.9582
  174DOPC   H4S21224  -0.123   4.147   9.823 -0.9620  0.0401  1.6730
  174DOPC   C2521225   0.024   4.023   9.924  0.8781  0.4022  0.0812
  174DOPC   H5R21226   0.096   4.107   9.931  1.2614  0.0167  0.8842
  174DOPC   H5S21227   0.083   3.932   9.901  0.6429  0.3638 -0.3737
  174DOPC   C2621228  -0.057   3.998  10.047  1.0929 -0.1819  0.0470
  174DOPC   H6R21229  -0.131   3.919  10.025 -0.1051  1.1121 -0.6857
  174DOPC   H6S21230  -0.120   4.083  10.082 -0.2572 -1.4113  0.6826
  174DOPC   C2721231   0.048   3.955  10.154  0.6873 -0.5646  0.2078
  174DOPC   H7R21232   0.119   4.037  10.179  1.5632 -2.1206  3.4160
  174DOPC   H7S21233   0.102   3.866  10.115 -1.0215 -2.4262  1.8888
  174DOPC   C2821234  -0.004   3.909  10.293 -0.4134  0.1722  0.1743
  174DOPC   H8R21235   0.079   3.863  10.352  0.2868 -1.3665 -1.9089
  174DOPC   H8S21236  -0.075   3.824  10.281  0.3396 -0.3290 -0.9459
  174DOPC   C2921237  -0.068   4.017  10.375  0.3725 -0.6657 -0.6128
  174DOPC   H9R21238  -0.118   4.096  10.318 -2.4233 -2.0439 -0.2890
  174DOPC  C21021239  -0.082   4.029  10.510 -0.0889  0.4006 -0.6087
  174DOPC  H10R21240  -0.135   4.118  10.548  1.0029 -0.2939  2.8645
  174DOPC  C21121241  -0.019   3.930  10.610 -0.8175  0.1479  0.4722
  174DOPC  H11R21242   0.076   3.885  10.575 -1.3179  0.2643 -1.0910
  174DOPC  H11S21243  -0.083   3.842  10.629  1.4637 -1.0320  3.4469
  174DOPC  C21221244   0.007   3.986  10.751 -0.0539 -0.1284 -0.0677
  174DOPC  H12R21245  -0.087   4.030  10.790  0.8662  1.6943  0.2218
  174DOPC  H12S21246   0.089   4.061  10.739 -0.3636 -0.0065 -1.6831
  174DOPC  C21321247   0.072   3.874  10.849  0.2822 -0.1577  0.0612
  174DOPC  H13R21248   0.167   3.840  10.803  0.2093  0.8021 -0.8284
  174DOPC  H13S21249   0.000   3.789  10.852  1.1329 -0.8826  0.3634
  174DOPC  C21421250   0.106   3.925  10.987 -0.2452  0.2923 -0.3152
  174DOPC  H14R21251   0.023   3.997  11.007  1.6396  2.8581 -1.1470
  174DOPC  H14S21252   0.192   3.994  10.970 -1.8221  2.5705  0.4001
  174DOPC  C21521253   0.118   3.817  11.098 -0.2702 -0.0759 -0.8985
  174DOPC  H15R21254   0.221   3.803  11.139 -1.1331 -1.5726  0.9387
  174DOPC  H15S21255   0.094   3.713  11.065  0.3184 -0.7951  0.7834
  174DOPC  C21621256   0.032   3.852  11.222  0.5839 -0.2293 -0.2935
  174DOPC  H16R21257  -0.074   3.841  11.191  0.4969  0.4215 -0.2495
  174DOPC  H16S21258   0.040   3.959  11.253  1.0138  0.1598 -1.6981
  174DOPC  C21721259   0.068   3.755  11.333  0.4719 -0.0383  0.4821
  174DOPC  H17R21260   0.175   3.761  11.362  0.4975 -0.9941  0.6274
  174DOPC  H17S21261   0.059   3.649  11.299 -1.7538 -0.0893  1.0513
  174DOPC  C21821262  -0.014   3.765  11.459 -0.3462  0.4964 -1.4084
  174DOPC  H18R21263   0.009   3.863  11.505 -0.5642 -1.0611  2.3517
  174DOPC  H18S21264   0.015   3.697  11.542  0.3092  1.6749 -0.6558
  174DOPC  H18T21265  -0.123   3.756  11.435 -0.8905  2.0330  0.2974
  174DOPC   C3321266   0.418   4.066   9.811 -0.2234  0.2361  0.5976
  174DOPC   H3X21267   0.464   3.966   9.828 -0.4810 -0.2528 -1.4106
  174DOPC   H3Y21268   0.311   4.042   9.828  0.0280 -0.5950  1.0745
  174DOPC   C3421269   0.472   4.154   9.924 -0.8875  0.3257  0.2572
  174DOPC   H4X21270   0.401   4.238   9.921  0.3636  1.3858 -1.9579
  174DOPC   H4Y21271   0.574   4.191   9.898 -1.5840  2.4731  0.4750
  174DOPC   C3521272   0.458   4.072  10.043  1.2545 -0.0135 -0.4357
  174DOPC   H5X21273   0.540   3.998  10.046  0.8023 -0.5046  1.0242
  174DOPC   H5Y21274   0.360   4.019  10.042  1.5087 -0.5572  0.9008
  174DOPC   C3621275   0.473   4.164  10.165 -0.6694 -0.4686  0.2936
  174DOPC   H6X21276   0.575   4.208  10.167  0.0449 -2.0111 -0.6659
  174DOPC   H6Y21277   0.399   4.244  10.145  1.2578  1.9604  2.1642
  174DOPC   C3721278   0.432   4.105  10.302  0.7622 -0.4688 -0.3755
  174DOPC   H7X21279   0.427   4.195  10.367  1.6477  0.2872 -1.3062
  174DOPC   H7Y21280   0.328   4.067  10.294  0.8887 -0.5231 -2.3201
  174DOPC   C3821281   0.523   3.995  10.357 -0.4016 -0.3225 -0.0528
  174DOPC   H8X21282   0.553   3.935  10.269  2.1033  0.7312  0.0050
  174DOPC   H8Y21283   0.462   3.931  10.424 -2.3865  1.9779  0.4649
  174DOPC   C3921284   0.652   4.043  10.415  0.9516  0.2003 -0.3219
  174DOPC   H9X21285   0.711   4.107  10.348  1.0201  1.9126  1.2852
  174DOPC  C31021286   0.696   4.004  10.538  0.3594 -0.5724  0.0700
  174DOPC  H10X21287   0.793   4.045  10.569 -0.1491  0.0033  0.9100
  174DOPC  C31121288   0.638   3.927  10.653  0.2447 -0.0069 -0.0504
  174DOPC  H11X21289   0.716   3.868  10.706 -1.3540 -1.0214  1.3012
  174DOPC  H11Y21290   0.582   3.841  10.608 -0.6359  1.0294 -0.9998
  174DOPC  C31221291   0.551   4.016  10.739  0.9713 -0.6296 -0.6067
  174DOPC  H12X21292   0.462   4.049  10.681  1.8935 -1.4766 -2.6071
  174DOPC  H12Y21293   0.617   4.098  10.775  0.0316 -0.6648  1.3369
  174DOPC  C31321294   0.508   3.947  10.868 -0.0137 -0.4616 -0.1857
  174DOPC  H13X21295   0.410   3.895  10.864  0.2583 -1.0255  0.2624
  174DOPC  H13Y21296   0.579   3.866  10.896  0.0791 -0.1713  0.4456
  174DOPC  C31421297   0.511   4.040  10.988  0.0075  0.3125  0.2272
  174DOPC  H14X21298   0.597   4.108  10.971  1.1932 -0.9961  0.7996
  174DOPC  H14Y21299   0.411   4.088  10.997  0.2403  1.0133 -0.7620
  174DOPC  C31521300   0.524   3.953  11.115 -0.3573 -0.1370 -0.3716
  174DOPC  H15X21301   0.448   3.872  11.113 -0.1049 -0.3934  0.3673
  174DOPC  H15Y21302   0.496   4.027  11.193  2.1977  0.9769 -0.4214
  174DOPC  C31621303   0.661   3.901  11.167  0.1509  0.1727  0.4647
  174DOPC  H16X21304   0.710   3.852  11.080 -0.3467  2.1973 -1.0325
  174DOPC  H16Y21305   0.727   3.985  11.197  1.0287 -0.2143 -0.3381
  174DOPC  C31721306   0.645   3.801  11.285  0.3747 -1.0056  0.4053
  174DOPC  H17X21307   0.567   3.724  11.269 -1.1944  0.3339  1.2146
  174DOPC  H17Y21308   0.743   3.752  11.303  1.9095  1.6896 -0.0200
  174DOPC  C31821309   0.597   3.873  11.414  0.0471  0.5011 -0.0694
  174DOPC  H18X21310   0.674   3.938  11.462  1.6540 -2.0723  1.0585
  174DOPC  H18Y21311   0.510   3.937  11.390  0.6994  1.4400  0.0003
  174DOPC  H18Z21312   0.564   3.804  11.495  0.6487  0.2262 -0.0494
  175DOPC     N21313   5.439   6.229   9.021  0.0503  0.0611  0.0846
  175DOPC   C1221314   5.517   6.171   9.134  0.0365 -0.1664 -0.1664
  175DOPC  H12A21315   5.602   6.238   9.139  1.1625 -1.2169 -2.8308
  175DOPC  H12B21316   5.542   6.073   9.094 -1.2135 -0.3621 -0.5032
  175DOPC   C1321317   5.536   6.248   8.908 -0.0617  0.1880  0.4646
  175DOPC  H13A21318   5.479   6.271   8.819  0.6651  0.1534 -0.0221
  175DOPC  H13B21319   5.610   6.324   8.927 -0.9096  1.1834 -0.1487
  175DOPC  H13C21320   5.592   6.157   8.890 -0.7155  0.0256 -0.8419
  175DOPC   C1421321   5.394   6.369   9.061  0.1737 -0.8303 -0.4538
  175DOPC  H14A21322   5.482   6.431   9.054  1.1944 -2.1629  0.0682
  175DOPC  H14B21323   5.315   6.418   9.005  0.7822  0.1972 -0.4380
  175DOPC  H14C21324   5.353   6.377   9.161  2.5946 -1.8406  0.7022
  175DOPC   C1521325   5.332   6.143   8.973  0.4100  0.2408 -0.2968
  175DOPC  H15A21326   5.280   6.188   8.890 -2.1656 -1.6746  0.1534
  175DOPC  H15B21327   5.258   6.127   9.051  0.6257 -0.2723 -0.1888
  175DOPC  H15C21328   5.369   6.044   8.952  0.4914 -0.0156  0.9674
  175DOPC   C1121329   5.448   6.139   9.265  0.4303  0.0164 -0.6762
  175DOPC  H11A21330   5.517   6.128   9.351  0.1023 -0.4004 -0.4639
  175DOPC  H11B21331   5.369   6.216   9.272 -1.9489 -2.2522 -1.0846
  175DOPC     P21332   5.464   5.873   9.251  0.0338 -0.0649 -0.1045
  175DOPC   O1321333   5.572   5.873   9.150  0.1364  0.2825 -0.2213
  175DOPC   O1421334   5.359   5.767   9.235  0.0158 -0.0996  0.4662
  175DOPC   O1221335   5.384   6.010   9.250 -0.0686 -0.0680  0.1572
  175DOPC   O1121336   5.528   5.871   9.389  0.3399 -0.3837 -0.4029
  175DOPC    C121337   5.442   5.823   9.495 -0.2653 -0.6908 -0.5851
  175DOPC    HA21338   5.503   5.797   9.584 -1.1352 -3.3060 -0.6853
  175DOPC    HB21339   5.405   5.721   9.476 -1.7263 -0.1132 -0.9608
  175DOPC    C221340   5.337   5.921   9.546  0.4714  0.0862 -0.0572
  175DOPC    HS21341   5.269   5.964   9.470  1.1094  2.7406  0.7579
  175DOPC   O2121342   5.405   6.030   9.620 -0.6340  0.1321  0.4096
  175DOPC   C2121343   5.324   6.128   9.657  0.0066 -0.1786  0.7158
  175DOPC   O2221344   5.208   6.143   9.619  0.0430 -1.1327  0.0611
  175DOPC   C2221345   5.397   6.214   9.759 -0.1294  0.8014  0.6289
  175DOPC   H2R21346   5.472   6.279   9.709  1.1446 -0.4849  0.8225
  175DOPC   H2S21347   5.448   6.153   9.836  0.1421  0.5259  0.2361
  175DOPC    C321348   5.237   5.854   9.646  0.1683  0.1169 -0.3169
  175DOPC    HX21349   5.201   5.752   9.621 -0.6386  0.2309  0.3183
  175DOPC    HY21350   5.146   5.917   9.643  0.1247  0.1965  1.4753
  175DOPC   O3121351   5.295   5.828   9.781 -0.9476 -0.2659 -0.1007
  175DOPC   C3121352   5.225   5.868   9.881 -0.0166  0.3399  0.3181
  175DOPC   O3221353   5.108   5.900   9.885  0.1004  0.6021 -0.2598
  175DOPC   C3221354   5.310   5.846  10.002  0.9155 -0.0679  0.2728
  175DOPC   H2X21355   5.351   5.742   9.997 -0.2546 -0.7231  2.7348
  175DOPC   H2Y21356   5.402   5.908   9.989  0.0762  1.2340  0.3895
  175DOPC   C2321357   5.296   6.306   9.833  0.6069 -0.5617 -0.0096
  175DOPC   H3R21358   5.200   6.251   9.843  0.5595 -0.7582 -1.3446
  175DOPC   H3S21359   5.253   6.390   9.774  0.4446 -1.8403 -1.7927
  175DOPC   C2421360   5.354   6.359   9.962 -0.1611  0.0083 -0.5966
  175DOPC   H4R21361   5.271   6.417  10.009  0.3150  0.3551 -0.1679
  175DOPC   H4S21362   5.432   6.437   9.947  0.7504 -0.6670  0.4655
  175DOPC   C2521363   5.394   6.251  10.072 -0.7386  0.1482 -0.2145
  175DOPC   H5R21364   5.450   6.163  10.034 -1.7613 -0.5886 -0.0593
  175DOPC   H5S21365   5.301   6.207  10.114  0.4542 -0.6879  1.6836
  175DOPC   C2621366   5.482   6.312  10.181  0.2323 -0.1228  0.3924
  175DOPC   H6R21367   5.554   6.381  10.131 -0.8953  1.5580  1.0391
  175DOPC   H6S21368   5.524   6.240  10.255 -1.7007  0.2876  1.9612
  175DOPC   C2721369   5.400   6.400  10.283 -0.1373  0.4173 -0.5477
  175DOPC   H7R21370   5.325   6.334  10.331  0.3592 -0.1525 -0.5528
  175DOPC   H7S21371   5.352   6.483  10.227 -0.6993  0.1660 -0.4359
  175DOPC   C2821372   5.501   6.465  10.380 -0.5853 -0.2577 -0.3414
  175DOPC   H8R21373   5.559   6.548  10.335  1.2677 -1.0137  0.5279
  175DOPC   H8S21374   5.572   6.383  10.406 -0.3768  0.5725  1.8958
  175DOPC   C2921375   5.438   6.506  10.515  0.3322 -0.9817 -0.1198
  175DOPC   H9R21376   5.335   6.544  10.508  0.4917 -0.2395  1.3221
  175DOPC  C21021377   5.482   6.496  10.639 -0.3308  0.0558 -0.0752
  175DOPC  H10R21378   5.411   6.525  10.718 -0.2941 -0.5383  0.1867
  175DOPC  C21121379   5.618   6.451  10.689 -0.6205  0.2932  0.3026
  175DOPC  H11R21380   5.692   6.533  10.674 -0.1558  0.0325  1.0903
  175DOPC  H11S21381   5.654   6.360  10.636 -1.5638 -1.2035  2.0849
  175DOPC  C21221382   5.616   6.403  10.836  0.6026  0.6662  0.1690
  175DOPC  H12R21383   5.549   6.315  10.847  0.3370  0.9863  1.2420
  175DOPC  H12S21384   5.573   6.479  10.904  0.5638  0.2622  0.5996
  175DOPC  C21321385   5.757   6.363  10.894 -0.4666 -0.5923  0.2194
  175DOPC  H13R21386   5.834   6.443  10.890  0.4370 -1.4791 -1.1864
  175DOPC  H13S21387   5.792   6.296  10.812 -2.1064  0.9215 -1.8468
  175DOPC  C21421388   5.768   6.297  11.031 -0.4428 -0.1795 -0.3547
  175DOPC  H14R21389   5.874   6.274  11.055  0.0417 -0.0252 -2.1660
  175DOPC  H14S21390   5.707   6.205  11.029 -0.0940 -0.5114  1.8200
  175DOPC  C21521391   5.715   6.381  11.147 -0.4735 -0.2511  0.2048
  175DOPC  H15R21392   5.605   6.392  11.137 -0.3137  1.7868  0.2927
  175DOPC  H15S21393   5.758   6.482  11.162  2.0441 -0.9900 -1.3852
  175DOPC  C21621394   5.725   6.313  11.285  0.7875 -0.9108  0.6575
  175DOPC  H16R21395   5.809   6.353  11.346  0.6680  0.0247  0.2207
  175DOPC  H16S21396   5.731   6.202  11.279 -0.8274 -1.1663  2.5899
  175DOPC  C21721397   5.600   6.337  11.377 -0.2353 -0.2246  0.4810
  175DOPC  H17R21398   5.513   6.314  11.312  0.3479 -0.1459 -0.3465
  175DOPC  H17S21399   5.586   6.443  11.405  0.6876 -0.4534  1.8915
  175DOPC  C21821400   5.605   6.243  11.502  0.3488 -1.2664  0.4055
  175DOPC  H18R21401   5.523   6.269  11.572 -0.0081 -0.7897 -0.1801
  175DOPC  H18S21402   5.709   6.248  11.542 -0.6489 -1.0768  3.2030
  175DOPC  H18T21403   5.574   6.139  11.478  0.0964 -1.2153  0.5044
  175DOPC   C3321404   5.246   5.873  10.137 -0.8555  0.2682 -0.0109
  175DOPC   H3X21405   5.171   5.795  10.163 -0.4101 -0.1040  0.1701
  175DOPC   H3Y21406   5.199   5.973  10.132 -0.9319  0.1790 -1.8668
  175DOPC   C3421407   5.356   5.888  10.245 -0.1488 -0.4807 -0.0381
  175DOPC   H4X21408   5.434   5.961  10.213  0.8514 -0.3014  2.5553
  175DOPC   H4Y21409   5.407   5.793  10.272  1.0224  0.1520  0.0636
  175DOPC   C3521410   5.291   5.931  10.376  0.5445  0.2844  0.0275
  175DOPC   H5X21411   5.208   5.867  10.413  1.4576 -0.4519  0.8547
  175DOPC   H5Y21412   5.241   6.023  10.339  0.8041 -0.2006 -1.6211
  175DOPC   C3621413   5.389   5.977  10.487 -0.4048  0.1527 -0.1461
  175DOPC   H6X21414   5.429   5.885  10.534  0.9661  0.6041 -0.4046
  175DOPC   H6Y21415   5.475   6.039  10.456 -0.5496  0.6947  0.5162
  175DOPC   C3721416   5.323   6.057  10.599  0.2064  0.3944 -0.7737
  175DOPC   H7X21417   5.299   6.154  10.551  1.2599 -0.8489 -4.0948
  175DOPC   H7Y21418   5.225   6.017  10.631  0.8720 -1.3617 -0.8346
  175DOPC   C3821419   5.423   6.075  10.713  0.1104  0.1014 -0.1354
  175DOPC   H8X21420   5.387   6.171  10.758  1.3880  1.1235 -1.1941
  175DOPC   H8Y21421   5.529   6.096  10.688  0.0770  0.1216 -0.2624
  175DOPC   C3921422   5.405   5.952  10.803  0.4175 -0.0967 -0.1777
  175DOPC   H9X21423   5.432   5.855  10.760 -2.3797 -2.5117  2.9994
  175DOPC  C31021424   5.375   5.965  10.935 -0.2100 -0.4630  0.2649
  175DOPC  H10X21425   5.374   5.875  10.998  0.3506  0.5383  1.7724
  175DOPC  C31121426   5.354   6.099  11.002  0.2490 -0.6313  0.3578
  175DOPC  H11X21427   5.274   6.155  10.948  0.2033 -0.2535  0.8098
  175DOPC  H11Y21428   5.447   6.157  10.985  1.0519 -2.2148 -0.9053
  175DOPC  C31221429   5.321   6.091  11.151 -0.2299 -0.4045  0.2897
  175DOPC  H12X21430   5.317   6.188  11.205  0.4311 -1.4772  2.3750
  175DOPC  H12Y21431   5.405   6.036  11.199  0.3967  1.1138  0.9857
  175DOPC  C31321432   5.186   6.029  11.172 -0.4530  0.0864 -0.2164
  175DOPC  H13X21433   5.117   6.090  11.110 -0.9696  0.3627  0.6057
  175DOPC  H13Y21434   5.176   5.924  11.137 -0.9062  0.3377 -0.8685
  175DOPC  C31421435   5.152   6.025  11.325 -0.0237 -0.2481 -0.4164
  175DOPC  H14X21436   5.147   6.129  11.364 -0.9139 -0.4040 -0.0739
  175DOPC  H14Y21437   5.050   5.982  11.339  0.1594 -0.8982 -1.0465
  175DOPC  C31521438   5.248   5.949  11.414 -0.4828 -0.1793  0.3778
  175DOPC  H15X21439   5.336   6.013  11.436 -0.8848 -0.0251  1.5859
  175DOPC  H15Y21440   5.283   5.852  11.371 -1.2028 -0.5351  0.5692
  175DOPC  C31621441   5.194   5.927  11.550 -0.3659  0.2815  0.1277
  175DOPC  H16X21442   5.145   6.026  11.561  1.5091  1.5205 -1.9161
  175DOPC  H16Y21443   5.117   5.847  11.543 -0.2538  0.2184 -0.4482
  175DOPC  C31721444   5.296   5.885  11.662 -0.2733 -0.4988  0.5419
  175DOPC  H17X21445   5.234   5.833  11.738 -1.2071  1.1327  0.9653
  175DOPC  H17Y21446   5.368   5.810  11.624 -0.1929  0.1638 -0.6930
  175DOPC  C31821447   5.372   5.996  11.735  0.4375 -0.1938 -0.3491
  175DOPC  H18X21448   5.410   6.075  11.667 -0.2971 -0.1383 -0.7028
  175DOPC  H18Y21449   5.308   6.042  11.814  0.2569 -1.8072  0.4926
  175DOPC  H18Z21450   5.462   5.950  11.780  0.8738 -0.8690 -1.8372
  176DOPC     N21451   0.732   2.848   8.326 -0.1289  0.3196  0.4182
  176DOPC   C1221452   0.614   2.834   8.427 -0.2651  0.3694 -0.5920
  176DOPC  H12A21453   0.524   2.847   8.369 -1.1345  1.2919  0.8954
  176DOPC  H12B21454   0.623   2.903   8.510  0.0718 -0.1233 -0.2085
  176DOPC   C1321455   0.863   2.842   8.388 -0.6793  0.0224 -1.0242
  176DOPC  H13A21456   0.949   2.818   8.328 -0.0638 -2.2183  0.6182
  176DOPC  H13B21457   0.886   2.925   8.453  3.4833 -2.2902  0.8164
  176DOPC  H13C21458   0.871   2.753   8.450 -0.1654  0.5639 -0.2917
  176DOPC   C1421459   0.715   2.982   8.247  0.6718  0.3361 -0.2710
  176DOPC  H14A21460   0.717   3.066   8.314 -0.4998  0.0631  0.1287
  176DOPC  H14B21461   0.797   2.994   8.177  1.1048  1.2332  0.3691
  176DOPC  H14C21462   0.624   2.980   8.189 -0.4943  0.7111  1.4700
  176DOPC   C1521463   0.725   2.743   8.227 -0.2885  0.2361  0.2956
  176DOPC  H15A21464   0.745   2.646   8.268  0.2446 -0.0719 -0.6600
  176DOPC  H15B21465   0.802   2.759   8.153  0.9776 -1.5650  1.1591
  176DOPC  H15C21466   0.628   2.745   8.179  0.5017  0.9253 -1.3744
  176DOPC   C1121467   0.588   2.699   8.513 -0.5960 -0.2822 -0.7834
  176DOPC  H11A21468   0.661   2.691   8.595  0.0613 -1.1135 -1.4352
  176DOPC  H11B21469   0.487   2.711   8.559 -0.5131  3.0272 -1.2076
  176DOPC     P21470   0.666   2.450   8.475 -0.8379 -0.1382 -0.0311
  176DOPC   O1321471   0.670   2.366   8.356 -0.7240  0.4681 -0.5040
  176DOPC   O1421472   0.595   2.387   8.587  1.1057 -0.0183  0.3685
  176DOPC   O1221473   0.590   2.581   8.435 -0.3214  0.3605 -0.0266
  176DOPC   O1121474   0.815   2.490   8.509  0.4641 -0.4313 -0.4703
  176DOPC    C121475   0.876   2.444   8.630 -0.3342 -0.9848  0.2549
  176DOPC    HA21476   0.983   2.473   8.619 -0.9052  0.5691 -1.5837
  176DOPC    HB21477   0.860   2.334   8.640 -1.3473 -0.8789 -0.1152
  176DOPC    C221478   0.826   2.507   8.767  0.0142 -0.1771  0.1402
  176DOPC    HS21479   0.717   2.487   8.779 -0.5248  2.2580 -0.3025
  176DOPC   O2121480   0.860   2.647   8.763 -0.6397 -0.0389 -0.3455
  176DOPC   C2121481   0.799   2.716   8.857 -0.0846 -0.5771 -1.1732
  176DOPC   O2221482   0.692   2.683   8.914  0.2730 -0.5925  0.5730
  176DOPC   C2221483   0.876   2.838   8.892  0.0091  0.2829 -0.0957
  176DOPC   H2R21484   0.876   2.906   8.804  2.7794 -0.2397 -0.5866
  176DOPC   H2S21485   0.982   2.809   8.909 -0.0683 -1.0087 -1.5814
  176DOPC    C321486   0.880   2.439   8.897 -0.1255 -0.1957 -0.0866
  176DOPC    HX21487   0.989   2.460   8.899 -0.1926  0.1066  0.9385
  176DOPC    HY21488   0.863   2.330   8.881  1.4581 -0.4247 -0.3123
  176DOPC   O3121489   0.828   2.479   9.026 -0.5311  0.2229 -0.1212
  176DOPC   C3121490   0.706   2.431   9.061 -0.5088 -0.0118 -0.2516
  176DOPC   O3221491   0.642   2.357   8.991 -0.0209  0.3478  0.3953
  176DOPC   C3221492   0.685   2.476   9.207  0.5851 -0.0422 -0.3472
  176DOPC   H2X21493   0.783   2.510   9.246  0.4137 -1.0937  1.0853
  176DOPC   H2Y21494   0.601   2.549   9.208 -1.5809 -2.4010 -0.0690
  176DOPC   C2321495   0.817   2.911   9.016  0.3109  0.3631 -0.4262
  176DOPC   H3R21496   0.707   2.927   9.016 -0.0587 -1.8795 -0.5705
  176DOPC   H3S21497   0.860   3.013   9.029  0.4761  0.1043  1.2576
  176DOPC   C2421498   0.848   2.838   9.154  0.1804 -0.0270 -0.2144
  176DOPC   H4R21499   0.946   2.884   9.179 -0.1836  0.5741  0.1578
  176DOPC   H4S21500   0.865   2.730   9.139  1.0351 -0.2720  2.1431
  176DOPC   C2521501   0.738   2.862   9.254  0.0251 -0.2356  0.2732
  176DOPC   H5R21502   0.653   2.802   9.217 -0.5912  1.8054 -1.8191
  176DOPC   H5S21503   0.703   2.967   9.243  1.8064  0.4328  0.6182
  176DOPC   C2621504   0.770   2.820   9.399  0.4847 -0.0371 -0.7908
  176DOPC   H6R21505   0.839   2.894   9.445  0.7119  0.9893 -2.6528
  176DOPC   H6S21506   0.829   2.728   9.415 -1.6401 -1.3493 -0.0337
  176DOPC   C2721507   0.633   2.810   9.479  0.5870 -0.1578  0.8254
  176DOPC   H7R21508   0.557   2.744   9.432 -0.2989 -0.6355  2.7997
  176DOPC   H7S21509   0.577   2.907   9.475  0.7490 -0.1240 -1.3969
  176DOPC   C2821510   0.642   2.762   9.622 -0.8689  0.3073 -0.0605
  176DOPC   H8R21511   0.696   2.665   9.615 -1.6124 -0.0255 -1.7586
  176DOPC   H8S21512   0.538   2.738   9.654 -0.6122 -1.0548 -0.1750
  176DOPC   C2921513   0.708   2.858   9.711 -0.3098  0.5842 -0.0815
  176DOPC   H9R21514   0.788   2.913   9.659 -0.1792 -0.8853 -1.5447
  176DOPC  C21021515   0.686   2.875   9.841 -0.5555 -0.1038 -0.1318
  176DOPC  H10R21516   0.756   2.943   9.892  0.1187  0.0004 -1.1616
  176DOPC  C21121517   0.577   2.806   9.917  0.3612  0.1781 -0.3950
  176DOPC  H11R21518   0.497   2.754   9.860 -0.7431  1.4257 -0.0490
  176DOPC  H11S21519   0.526   2.888   9.972  0.9727  0.0304  0.4054
  176DOPC  C21221520   0.636   2.703  10.023  0.9216 -0.0986  0.3079
  176DOPC  H12R21521   0.710   2.761  10.081 -0.3708  1.6066  0.3166
  176DOPC  H12S21522   0.700   2.628   9.970  0.4615  1.9419 -3.4506
  176DOPC  C21321523   0.531   2.645  10.112 -0.0795 -0.4186 -1.2266
  176DOPC  H13R21524   0.569   2.554  10.163 -2.0636 -1.5152 -1.5781
  176DOPC  H13S21525   0.442   2.603  10.060 -0.4681 -0.8884 -0.2089
  176DOPC  C21421526   0.481   2.733  10.221 -0.0333 -0.5783 -0.5523
  176DOPC  H14R21527   0.392   2.686  10.268  1.8701 -2.3166  1.5406
  176DOPC  H14S21528   0.450   2.833  10.184 -2.2371 -0.9118  0.2239
  176DOPC  C21521529   0.585   2.763  10.331 -0.6137  0.0933  0.1981
  176DOPC  H15R21530   0.641   2.852  10.293 -0.9169 -0.1421 -0.8430
  176DOPC  H15S21531   0.654   2.676  10.336  0.6788  1.0127 -0.6784
  176DOPC  C21621532   0.539   2.775  10.478  0.7477  0.2929  0.0761
  176DOPC  H16R21533   0.448   2.712  10.473 -0.9983  2.6781 -0.2668
  176DOPC  H16S21534   0.495   2.877  10.486 -0.6246 -0.3050  0.4644
  176DOPC  C21721535   0.623   2.715  10.586 -0.5244  1.0725 -0.4043
  176DOPC  H17R21536   0.724   2.760  10.597 -1.0225  1.8310  1.4774
  176DOPC  H17S21537   0.635   2.609  10.557  1.6920  0.8610  1.0362
  176DOPC  C21821538   0.569   2.709  10.730 -0.4083  0.0261  0.1282
  176DOPC  H18R21539   0.483   2.639  10.728  1.5168 -2.4620 -1.6692
  176DOPC  H18S21540   0.546   2.811  10.767  0.8015 -0.5595  2.6965
  176DOPC  H18T21541   0.650   2.668  10.794  0.0128  0.5972 -0.0344
  176DOPC   C3321542   0.636   2.376   9.321 -0.5410  0.2475  0.0035
  176DOPC   H3X21543   0.709   2.292   9.327 -0.5306  0.2499 -0.0842
  176DOPC   H3Y21544   0.533   2.345   9.296 -0.6993  1.4011 -0.8593
  176DOPC   C3421545   0.639   2.432   9.462 -0.2896 -0.1779 -0.1488
  176DOPC   H4X21546   0.573   2.520   9.461  0.2262  0.2465 -2.1822
  176DOPC   H4Y21547   0.742   2.450   9.501  0.5017 -1.0845 -1.7315
  176DOPC   C3521548   0.587   2.325   9.557 -0.2134 -0.1521  0.1067
  176DOPC   H5X21549   0.660   2.242   9.548 -1.3873 -1.1803 -0.1379
  176DOPC   H5Y21550   0.492   2.276   9.527 -1.1971  2.6609 -1.8075
  176DOPC   C3621551   0.572   2.380   9.699 -0.4123  0.5467 -0.3300
  176DOPC   H6X21552   0.672   2.424   9.717 -0.5135  1.0060 -0.8476
  176DOPC   H6Y21553   0.495   2.460   9.709 -0.9142  0.1932 -1.2041
  176DOPC   C3721554   0.542   2.278   9.808  0.0960  0.5421 -0.2443
  176DOPC   H7X21555   0.436   2.249   9.797  0.0037  1.3610 -1.7176
  176DOPC   H7Y21556   0.601   2.187   9.782 -0.8835 -0.0244 -0.5067
  176DOPC   C3821557   0.571   2.339   9.947 -0.0949  0.2845 -0.3929
  176DOPC   H8X21558   0.514   2.431   9.970 -1.5970 -0.5082 -0.8151
  176DOPC   H8Y21559   0.679   2.363   9.958 -0.1927 -0.1491  1.9674
  176DOPC   C3921560   0.549   2.229  10.048  0.0542 -0.7299 -0.2141
  176DOPC   H9X21561   0.609   2.138  10.039 -0.2527 -0.8041 -1.8651
  176DOPC  C31021562   0.463   2.225  10.155 -0.2750 -0.3635 -0.4282
  176DOPC  H10X21563   0.454   2.136  10.219  0.5619  0.2631  0.5851
  176DOPC  C31121564   0.362   2.326  10.189  0.6967  0.0470 -0.1763
  176DOPC  H11X21565   0.259   2.285  10.194  0.0301  1.7875  2.0353
  176DOPC  H11Y21566   0.363   2.412  10.118 -0.3207  0.0537 -0.1849
  176DOPC  C31221567   0.390   2.391  10.322  0.0642 -0.0280 -0.2002
  176DOPC  H12X21568   0.325   2.481  10.312  0.8012  0.4004 -1.4503
  176DOPC  H12Y21569   0.496   2.426  10.320  0.4140 -1.0140  0.3629
  176DOPC  C31321570   0.348   2.309  10.443 -0.1593  0.8956 -0.6280
  176DOPC  H13X21571   0.239   2.293  10.432 -0.3708  2.4839 -1.0303
  176DOPC  H13Y21572   0.402   2.212  10.438  1.2559  1.5060  1.4298
  176DOPC  C31421573   0.365   2.378  10.576 -0.2740  0.3312 -0.3374
  176DOPC  H14X21574   0.473   2.401  10.593 -0.5115  1.6673 -0.5561
  176DOPC  H14Y21575   0.315   2.477  10.571 -0.7526  0.0585 -1.1202
  176DOPC  C31521576   0.318   2.310  10.705 -0.0425 -0.5268 -0.6538
  176DOPC  H15X21577   0.378   2.217  10.713 -0.2534 -0.7813 -1.8405
  176DOPC  H15Y21578   0.213   2.277  10.686 -0.7366  2.1148 -1.8668
  176DOPC  C31621579   0.337   2.390  10.834 -0.1867 -0.1337 -0.3403
  176DOPC  H16X21580   0.343   2.307  10.908  1.9142  0.3338  0.0857
  176DOPC  H16Y21581   0.434   2.444  10.832 -1.3937  2.1319 -1.7794
  176DOPC  C31721582   0.234   2.491  10.877  0.1666  0.4543  0.7235
  176DOPC  H17X21583   0.214   2.558  10.791 -1.8521 -2.8617 -1.6345
  176DOPC  H17Y21584   0.139   2.433  10.882  0.2831  0.1542 -0.2586
  176DOPC  C31821585   0.269   2.573  10.997 -0.2538 -0.1222  0.4827
  176DOPC  H18X21586   0.219   2.672  10.999  1.1607  0.6194  1.7123
  176DOPC  H18Y21587   0.236   2.518  11.088 -1.3295 -1.5109 -0.6982
  176DOPC  H18Z21588   0.379   2.592  10.998 -0.2805  0.2024 -0.8470
  177DOPC     N21589   1.056   0.392   8.688 -0.4961 -1.2993 -0.4933
  177DOPC   C1221590   0.994   0.383   8.546 -0.3351  0.3379  0.0912
  177DOPC  H12A21591   0.886   0.377   8.553 -0.4085  1.2789 -0.1049
  177DOPC  H12B21592   1.033   0.289   8.508 -2.0391 -0.2118 -0.3832
  177DOPC   C1321593   0.977   0.493   8.769 -0.1215 -0.3363  0.0007
  177DOPC  H13A21594   0.979   0.583   8.710  1.1339 -0.7192 -0.5676
  177DOPC  H13B21595   0.876   0.465   8.797 -0.0800 -0.8962 -0.4025
  177DOPC  H13C21596   1.018   0.523   8.864 -0.4999  1.6863 -0.4133
  177DOPC   C1421597   1.193   0.448   8.684 -0.1366  0.0586 -0.2413
  177DOPC  H14A21598   1.263   0.384   8.633  0.3299  0.8743 -0.6514
  177DOPC  H14B21599   1.189   0.532   8.615 -2.2084 -0.9791 -1.4836
  177DOPC  H14C21600   1.222   0.473   8.785 -0.6593  2.4843 -0.6246
  177DOPC   C1521601   1.039   0.267   8.758  0.8762 -0.5175  0.5823
  177DOPC  H15A21602   1.102   0.267   8.845  2.2021  3.5243 -0.1438
  177DOPC  H15B21603   1.076   0.187   8.696  2.6493  0.7593 -0.0949
  177DOPC  H15C21604   0.937   0.246   8.788  0.0504  0.4524 -1.3302
  177DOPC   C1121605   1.023   0.500   8.444 -0.7634 -0.7394 -1.0872
  177DOPC  H11A21606   1.133   0.503   8.427 -0.4716 -2.2168  0.3602
  177DOPC  H11B21607   0.978   0.472   8.347 -0.9137 -1.8946 -0.6974
  177DOPC     P21608   0.827   0.659   8.462 -0.2077  0.2620 -0.1078
  177DOPC   O1321609   0.749   0.537   8.494 -0.1946  0.3984  0.3924
  177DOPC   O1421610   0.817   0.712   8.319  0.4318  0.0847  0.5103
  177DOPC   O1221611   0.981   0.626   8.498 -0.5915 -0.3490  0.2280
  177DOPC   O1121612   0.775   0.774   8.558  0.5879 -0.5776 -0.1290
  177DOPC    C121613   0.838   0.905   8.550  0.2411  0.2531 -0.5943
  177DOPC    HA21614   0.776   0.966   8.482  1.4838  1.6782 -0.5112
  177DOPC    HB21615   0.945   0.900   8.520  0.8944  0.6604  1.4943
  177DOPC    C221616   0.836   0.972   8.695  0.0893 -0.0443  0.3525
  177DOPC    HS21617   0.934   0.937   8.736  1.5107  1.8525 -1.2044
  177DOPC   O2121618   0.726   0.926   8.782 -0.1456 -0.8958  0.3805
  177DOPC   C2121619   0.756   0.827   8.859 -0.4753  0.5861 -0.2432
  177DOPC   O2221620   0.868   0.777   8.869 -0.1655  0.1577 -0.1630
  177DOPC   C2221621   0.634   0.788   8.944  0.3462  1.4427  0.0769
  177DOPC   H2R21622   0.537   0.771   8.894 -0.4047  0.2583  1.8353
  177DOPC   H2S21623   0.622   0.878   9.008  1.0399  1.6861 -0.1168
  177DOPC    C321624   0.841   1.131   8.688 -0.0920 -0.2021  0.0361
  177DOPC    HX21625   0.755   1.162   8.625 -0.3864 -0.3244  0.3731
  177DOPC    HY21626   0.937   1.166   8.644 -0.3051  1.5117  0.8614
  177DOPC   O3121627   0.829   1.195   8.820  0.0859  0.4276 -0.3303
  177DOPC   C3121628   0.923   1.142   8.906  0.4930 -0.5303 -0.0104
  177DOPC   O3221629   1.032   1.107   8.881 -0.0903 -0.0999 -0.2814
  177DOPC   C3221630   0.869   1.140   9.045  0.0418 -0.3065 -0.0617
  177DOPC   H2X21631   0.819   1.238   9.058  2.0947  0.7890  0.1057
  177DOPC   H2Y21632   0.795   1.058   9.055 -0.0647 -0.0271  1.5958
  177DOPC   C2321633   0.667   0.657   9.029  0.1493 -0.2511  0.5559
  177DOPC   H3R21634   0.743   0.595   8.977 -2.2730 -1.2522 -2.0163
  177DOPC   H3S21635   0.569   0.605   9.028 -2.0247  3.5048 -0.6278
  177DOPC   C2421636   0.698   0.707   9.175  0.3339 -0.3292  0.5198
  177DOPC   H4R21637   0.625   0.788   9.196  1.7043  0.8084  1.0602
  177DOPC   H4S21638   0.800   0.751   9.175  1.7507 -3.3818 -0.3700
  177DOPC   C2521639   0.683   0.606   9.291 -0.8355 -0.4961 -0.4986
  177DOPC   H5R21640   0.738   0.510   9.276  2.2424  0.9443  0.7005
  177DOPC   H5S21641   0.576   0.576   9.298 -0.5543 -1.9976 -2.0054
  177DOPC   C2621642   0.750   0.662   9.417  0.1949  0.4730  0.7626
  177DOPC   H6R21643   0.708   0.764   9.431 -0.0462  0.8767 -2.3118
  177DOPC   H6S21644   0.860   0.672   9.408 -0.0844  3.2952 -0.8084
  177DOPC   C2721645   0.723   0.577   9.541 -0.2852 -0.5105  0.3057
  177DOPC   H7R21646   0.798   0.496   9.554  1.6232  1.3129  1.3167
  177DOPC   H7S21647   0.623   0.529   9.535 -0.4956  0.0733 -1.0798
  177DOPC   C2821648   0.725   0.654   9.674 -0.0826  0.1465 -0.5896
  177DOPC   H8R21649   0.715   0.575   9.751  1.8889 -0.8621 -1.2949
  177DOPC   H8S21650   0.639   0.723   9.675 -2.0765 -2.1827  0.9442
  177DOPC   C2921651   0.857   0.716   9.689 -0.0661 -0.0972 -0.2832
  177DOPC   H9R21652   0.881   0.776   9.599 -0.5423 -1.6878 -1.5179
  177DOPC  C21021653   0.943   0.702   9.790  0.2543  0.1178  0.2192
  177DOPC  H10R21654   1.042   0.750   9.781  0.4816 -0.0716  1.5027
  177DOPC  C21121655   0.921   0.624   9.917  0.5670 -0.3785 -0.3131
  177DOPC  H11R21656   1.010   0.571   9.955 -0.6716 -2.7542 -0.5257
  177DOPC  H11S21657   0.841   0.547   9.914 -0.5611  0.7752 -2.0668
  177DOPC  C21221658   0.882   0.710  10.042 -0.2348  0.0189  0.3008
  177DOPC  H12R21659   0.789   0.765  10.019  0.6211  1.7480  0.7883
  177DOPC  H12S21660   0.958   0.784  10.076 -0.1059 -0.6444  1.4908
  177DOPC  C21321661   0.856   0.623  10.167  0.6456  0.5018  0.3268
  177DOPC  H13R21662   0.790   0.541  10.133  1.4211  0.9448 -2.4198
  177DOPC  H13S21663   0.805   0.688  10.242 -0.9315  1.1517 -1.2380
  177DOPC  C21421664   0.976   0.551  10.236  0.3486  0.6904 -0.5659
  177DOPC  H14R21665   1.034   0.484  10.168 -1.2341 -1.3249 -0.0315
  177DOPC  H14S21666   0.944   0.474  10.310  1.5918  1.6657  1.0543
  177DOPC  C21521667   1.076   0.634  10.313 -0.1374 -0.6110 -0.3086
  177DOPC  H15R21668   1.021   0.689  10.392 -1.1059 -0.1571 -1.2752
  177DOPC  H15S21669   1.127   0.716  10.259  2.3349 -3.0257 -1.9331
  177DOPC  C21621670   1.183   0.540  10.376 -0.2014  0.1437  0.3997
  177DOPC  H16R21671   1.272   0.603  10.397  1.0087 -0.8990 -1.3668
  177DOPC  H16S21672   1.219   0.458  10.311  1.2187  0.0372  1.2855
  177DOPC  C21721673   1.127   0.486  10.515 -0.0006 -0.0663  0.1928
  177DOPC  H17R21674   1.046   0.413  10.492 -0.7880  0.9387 -0.2971
  177DOPC  H17S21675   1.087   0.569  10.577 -1.6199 -0.0235 -0.8702
  177DOPC  C21821676   1.236   0.420  10.590 -0.1249 -0.4816  0.4587
  177DOPC  H18R21677   1.315   0.490  10.628 -0.0277 -0.8940  1.0283
  177DOPC  H18S21678   1.277   0.342  10.523  0.5333 -0.7767  1.1791
  177DOPC  H18T21679   1.208   0.354  10.675 -4.2649  0.7028  0.2069
  177DOPC   C3321680   0.975   1.121   9.156 -0.4116  0.0574 -0.7382
  177DOPC   H3X21681   1.045   1.207   9.166 -0.0854 -0.2807 -0.0291
  177DOPC   H3Y21682   1.036   1.031   9.134 -1.4400 -0.8977  0.1857
  177DOPC   C3421683   0.922   1.091   9.294  1.0056 -0.3990  0.1601
  177DOPC   H4X21684   0.845   1.011   9.284  2.0722 -1.1440 -3.1559
  177DOPC   H4Y21685   0.886   1.188   9.334  0.2900 -0.7450  0.3861
  177DOPC   C3521686   1.033   1.047   9.383  0.6854 -0.0414  0.1470
  177DOPC   H5X21687   1.112   1.125   9.373  0.4309  0.0929 -1.0175
  177DOPC   H5Y21688   1.070   0.953   9.336 -1.5686 -0.7960 -0.2511
  177DOPC   C3621689   0.992   1.034   9.532  0.0456  0.0056  0.0427
  177DOPC   H6X21690   0.951   1.131   9.569  2.0796  0.9751 -0.1393
  177DOPC   H6Y21691   0.912   0.957   9.524 -0.1362  0.1796  0.1820
  177DOPC   C3721692   1.107   1.004   9.634 -0.3715 -0.2546 -0.8158
  177DOPC   H7X21693   1.143   0.900   9.622  1.3823 -0.1688  2.5696
  177DOPC   H7Y21694   1.188   1.078   9.619 -2.4908  2.5305  0.6090
  177DOPC   C3821695   1.062   1.018   9.783  0.4070  0.2085 -0.6310
  177DOPC   H8X21696   1.126   0.955   9.850  0.9598  0.3311 -1.0368
  177DOPC   H8Y21697   0.961   0.973   9.790  0.5851  0.0254  1.8457
  177DOPC   C3921698   1.045   1.164   9.833 -0.8288 -0.3343 -0.0929
  177DOPC   H9X21699   1.080   1.241   9.763 -1.2676  1.3871  1.5074
  177DOPC  C31021700   0.989   1.205   9.950 -0.4884 -0.3980  0.1943
  177DOPC  H10X21701   0.996   1.313   9.970  1.0537 -0.4163 -0.1345
  177DOPC  C31121702   0.954   1.116  10.067 -0.2918  0.3181 -0.0050
  177DOPC  H11X21703   0.984   1.010  10.051  0.8120  0.5746  0.2330
  177DOPC  H11Y21704   0.844   1.120  10.058 -0.0993  0.9860 -3.8197
  177DOPC  C31221705   0.999   1.159  10.211  0.4629  0.2582  0.6495
  177DOPC  H12X21706   0.961   1.263  10.225  0.2708  0.1849  0.6753
  177DOPC  H12Y21707   1.109   1.161  10.221  0.4509  1.8808  0.6651
  177DOPC  C31321708   0.941   1.074  10.320  0.2267  0.3730 -0.3332
  177DOPC  H13X21709   0.837   1.107  10.341  0.4360  1.0725 -0.3870
  177DOPC  H13Y21710   0.938   0.965  10.298 -3.3714  0.3674 -0.3962
  177DOPC  C31421711   1.008   1.096  10.461  0.0312 -0.2681 -0.1395
  177DOPC  H14X21712   1.116   1.120  10.451 -0.1955  1.1335  0.5042
  177DOPC  H14Y21713   0.957   1.166  10.531  0.3003 -1.2113  1.0266
  177DOPC  C31521714   1.007   0.965  10.549 -0.0271 -0.7898  0.1451
  177DOPC  H15X21715   1.057   0.888  10.486  2.1964  0.5412  0.1553
  177DOPC  H15Y21716   0.903   0.939  10.575  0.3169 -1.2264  1.1199
  177DOPC  C31621717   1.087   0.980  10.680  0.2404 -0.4652  0.5320
  177DOPC  H16X21718   1.074   0.883  10.733  0.4036 -0.3091  0.8621
  177DOPC  H16Y21719   1.189   1.008  10.645 -0.4797 -0.7239 -2.0238
  177DOPC  C31721720   1.039   1.092  10.773  0.4108  0.0852  0.2991
  177DOPC  H17X21721   1.055   1.191  10.725  0.0028 -0.6239 -1.3637
  177DOPC  H17Y21722   0.929   1.082  10.782  0.7033 -4.5215  0.8227
  177DOPC  C31821723   1.088   1.089  10.915  0.4198  0.3137  0.2330
  177DOPC  H18X21724   1.199   1.078  10.917  0.6232  1.2322 -2.3378
  177DOPC  H18Y21725   1.069   1.180  10.975  2.3459 -0.3419  1.9963
  177DOPC  H18Z21726   1.034   1.006  10.965 -0.7457  1.0968  0.3038
  178DOPC     N21727   4.855   2.778   8.683 -0.1386  0.1472 -0.8936
  178DOPC   C1221728   4.887   2.644   8.609  0.4104 -0.0581 -0.1369
  178DOPC  H12A21729   4.888   2.564   8.682  0.3659  0.8866  0.9182
  178DOPC  H12B21730   4.988   2.662   8.575  1.7048 -0.7061  3.0114
  178DOPC   C1321731   4.730   2.768   8.765 -1.1229 -0.1725 -0.0272
  178DOPC  H13A21732   4.752   2.678   8.821  2.1676  0.3192 -0.3618
  178DOPC  H13B21733   4.725   2.848   8.838  2.6674  0.0619  0.1445
  178DOPC  H13C21734   4.638   2.760   8.708 -0.8808  1.7149 -0.7523
  178DOPC   C1421735   4.860   2.892   8.590  0.2857 -0.3021  0.2586
  178DOPC  H14A21736   4.845   2.983   8.646  0.7644  0.4635 -0.8131
  178DOPC  H14B21737   4.957   2.899   8.543 -0.0848 -1.0911 -0.6517
  178DOPC  H14C21738   4.785   2.889   8.512 -0.7760 -1.5704  1.2847
  178DOPC   C1521739   4.975   2.793   8.782 -0.4222 -0.4038 -0.3254
  178DOPC  H15A21740   4.986   2.895   8.817 -0.5317 -0.2040 -0.8609
  178DOPC  H15B21741   5.069   2.767   8.736  0.0178 -1.0121  0.8635
  178DOPC  H15C21742   4.957   2.725   8.864 -1.9022 -0.7879 -0.9224
  178DOPC   C1121743   4.785   2.603   8.500  0.2980  0.4097 -0.2478
  178DOPC  H11A21744   4.790   2.680   8.421 -0.2822  1.5648  0.8008
  178DOPC  H11B21745   4.831   2.512   8.456  0.0707 -0.7442  1.7425
  178DOPC     P21746   4.618   2.462   8.641 -0.5588  0.1638 -0.2703
  178DOPC   O1321747   4.622   2.336   8.570 -0.5883 -0.0515 -0.1327
  178DOPC   O1421748   4.491   2.480   8.712 -0.4958 -0.4371 -0.1899
  178DOPC   O1221749   4.646   2.584   8.546  0.5036 -0.2688  0.2385
  178DOPC   O1121750   4.742   2.468   8.753  0.2782  0.6027 -0.0218
  178DOPC    C121751   4.818   2.348   8.771  0.3286 -0.5806 -0.1201
  178DOPC    HA21752   4.901   2.378   8.838  0.0220  0.7045 -0.2973
  178DOPC    HB21753   4.855   2.302   8.677 -0.5513  0.7446 -1.1485
  178DOPC    C221754   4.755   2.234   8.864 -0.2877 -0.8281 -0.0096
  178DOPC    HS21755   4.647   2.243   8.838  0.0987  0.7877 -1.2136
  178DOPC   O2121756   4.785   2.260   9.007 -0.7296  0.1143  0.0785
  178DOPC   C2121757   4.714   2.191   9.092  0.3051  0.1012 -0.3986
  178DOPC   O2221758   4.617   2.129   9.065 -0.4796  0.1281  0.2142
  178DOPC   C2221759   4.790   2.185   9.220 -0.2402  0.4680 -0.8516
  178DOPC   H2R21760   4.879   2.249   9.205 -1.0130  2.9837  3.3623
  178DOPC   H2S21761   4.813   2.079   9.241 -0.6905  0.6643  0.7985
  178DOPC    C321762   4.796   2.088   8.819  0.4123  0.1917  0.4873
  178DOPC    HX21763   4.757   2.094   8.715  1.1472 -1.5626  0.0744
  178DOPC    HY21764   4.741   2.012   8.877 -0.7113  0.2561 -0.4520
  178DOPC   O3121765   4.938   2.080   8.820 -0.2160  0.1608 -0.2878
  178DOPC   C3121766   4.991   2.015   8.923  0.5793 -0.1519 -0.3366
  178DOPC   O3221767   4.933   1.922   8.982  0.0456 -0.1298  0.0026
  178DOPC   C3221768   5.138   2.047   8.941  0.4505 -0.1221  0.3840
  178DOPC   H2X21769   5.192   1.952   8.925 -0.6701 -0.8944  1.0795
  178DOPC   H2Y21770   5.169   2.112   8.856 -0.5841 -1.0967 -0.7890
  178DOPC   C2321771   4.705   2.241   9.340  0.4796  0.4025 -0.3830
  178DOPC   H3R21772   4.610   2.186   9.356  0.6530  0.2501  0.1296
  178DOPC   H3S21773   4.675   2.346   9.325 -1.4419  0.1802  1.4488
  178DOPC   C2421774   4.765   2.206   9.475 -0.0102 -0.3534 -0.1640
  178DOPC   H4R21775   4.876   2.204   9.477  0.0111  0.2676 -0.4595
  178DOPC   H4S21776   4.733   2.106   9.510 -0.6780 -0.4155 -0.9351
  178DOPC   C2521777   4.718   2.297   9.590 -0.0863 -0.2516  0.3650
  178DOPC   H5R21778   4.609   2.316   9.578  0.0204  0.8815  1.1026
  178DOPC   H5S21779   4.765   2.395   9.566 -0.2483 -1.1236 -4.7123
  178DOPC   C2621780   4.756   2.234   9.725  0.6598 -0.3432  0.2663
  178DOPC   H6R21781   4.840   2.162   9.734  1.2891  0.4987  1.5231
  178DOPC   H6S21782   4.664   2.175   9.742 -0.2968  0.8511 -0.6186
  178DOPC   C2721783   4.769   2.343   9.841  0.6096 -0.0171 -0.4877
  178DOPC   H7R21784   4.678   2.406   9.841 -0.8346 -1.9769  1.0739
  178DOPC   H7S21785   4.858   2.408   9.829 -1.2212  2.3280 -2.2325
  178DOPC   C2821786   4.767   2.275   9.985 -0.4287  0.4995 -0.1024
  178DOPC   H8R21787   4.688   2.198   9.985  0.2363 -0.3117  3.0416
  178DOPC   H8S21788   4.732   2.352  10.057  1.7221 -0.7646  2.5069
  178DOPC   C2921789   4.910   2.218  10.016 -0.1379  0.2172 -0.4157
  178DOPC   H9R21790   4.964   2.163   9.938 -0.1258 -0.7025  0.2386
  178DOPC  C21021791   4.965   2.231  10.137 -0.0117 -0.1977 -0.0958
  178DOPC  H10R21792   5.069   2.201  10.154 -0.2090 -0.7742  0.1356
  178DOPC  C21121793   4.891   2.272  10.266  0.2333 -0.2469  0.4133
  178DOPC  H11R21794   4.787   2.305  10.246  0.4018  0.2697  0.3653
  178DOPC  H11S21795   4.944   2.363  10.302 -1.8434  0.9883  0.4924
  178DOPC  C21221796   4.904   2.162  10.382 -0.0056 -0.0400 -0.2735
  178DOPC  H12R21797   5.011   2.134  10.393  0.1604 -0.1564 -1.9233
  178DOPC  H12S21798   4.845   2.071  10.358  0.0496 -0.7124  1.8741
  178DOPC  C21321799   4.846   2.223  10.513  0.3880  0.5545 -0.1716
  178DOPC  H13R21800   4.736   2.233  10.501  0.6979  1.7276 -2.6043
  178DOPC  H13S21801   4.894   2.320  10.537 -0.3441  0.4540  1.8841
  178DOPC  C21421802   4.882   2.136  10.635 -0.2134 -0.3956 -0.1688
  178DOPC  H14R21803   4.990   2.136  10.658 -0.5606  0.5111  1.6518
  178DOPC  H14S21804   4.859   2.031  10.608 -0.7358 -0.6554  1.1680
  178DOPC  C21521805   4.804   2.166  10.765 -0.0110 -0.0008  0.0712
  178DOPC  H15R21806   4.827   2.270  10.797  0.5829 -0.1960  0.2851
  178DOPC  H15S21807   4.840   2.099  10.846  0.9640  0.6933  0.2137
  178DOPC  C21621808   4.661   2.139  10.744  0.4166 -0.0523 -0.6722
  178DOPC  H16R21809   4.633   2.033  10.731 -2.7540  0.6276 -0.2104
  178DOPC  H16S21810   4.618   2.194  10.657 -0.0710  1.3211  0.3875
  178DOPC  C21721811   4.580   2.182  10.867 -0.2072  0.3115 -0.3347
  178DOPC  H17R21812   4.576   2.293  10.873 -0.3466  0.3332 -0.8338
  178DOPC  H17S21813   4.630   2.152  10.962  0.6024  1.0544 -0.5122
  178DOPC  C21821814   4.440   2.128  10.877 -0.9039 -0.0473  0.1927
  178DOPC  H18R21815   4.386   2.153  10.783 -0.9035 -1.4099 -0.1856
  178DOPC  H18S21816   4.399   2.169  10.971  0.4826 -0.5842  1.0667
  178DOPC  H18T21817   4.438   2.017  10.878 -1.1395 -0.0393  0.7064
  178DOPC   C3321818   5.184   2.108   9.074 -0.4675  0.3921  0.0872
  178DOPC   H3X21819   5.148   2.213   9.068  0.1512  0.6116  0.0791
  178DOPC   H3Y21820   5.294   2.121   9.066 -0.5057  1.1510  0.6336
  178DOPC   C3421821   5.172   2.034   9.206  0.0248  0.5539  0.2878
  178DOPC   H4X21822   5.203   1.932   9.174 -1.9091  0.0629 -0.1468
  178DOPC   H4Y21823   5.069   2.031   9.246 -0.2388  1.2881 -0.3132
  178DOPC   C3521824   5.253   2.101   9.316  0.4963 -0.3041  0.2556
  178DOPC   H5X21825   5.360   2.109   9.287  0.1711  3.8759 -0.4267
  178DOPC   H5Y21826   5.256   2.050   9.415  1.2590  1.6385  1.2825
  178DOPC   C3621827   5.209   2.241   9.353 -0.1726  0.2793  0.9447
  178DOPC   H6X21828   5.174   2.289   9.259 -0.6366  0.6087  1.2869
  178DOPC   H6Y21829   5.117   2.232   9.413 -0.4685 -0.8060  0.3620
  178DOPC   C3721830   5.314   2.323   9.423  0.3419 -0.3058 -0.1927
  178DOPC   H7X21831   5.414   2.307   9.375  0.1529  0.4447 -0.8677
  178DOPC   H7Y21832   5.298   2.433   9.417 -2.6411 -0.6959 -0.4669
  178DOPC   C3821833   5.326   2.300   9.576  0.9369  0.2114 -0.3498
  178DOPC   H8X21834   5.411   2.365   9.606 -0.1560  2.0282 -1.0257
  178DOPC   H8Y21835   5.360   2.195   9.588 -1.7882 -0.6762  0.4799
  178DOPC   C3921836   5.202   2.332   9.660  0.3175  0.0753 -0.2805
  178DOPC   H9X21837   5.106   2.293   9.624 -0.5913 -0.1086  2.1850
  178DOPC  C31021838   5.195   2.396   9.776  0.6514 -0.2053 -0.3643
  178DOPC  H10X21839   5.095   2.422   9.813  0.6135 -0.4482 -0.2960
  178DOPC  C31121840   5.313   2.457   9.848  0.2286  0.1317  0.7792
  178DOPC  H11X21841   5.280   2.541   9.913 -1.7419  0.5249 -0.6341
  178DOPC  H11Y21842   5.380   2.500   9.770 -2.5917  0.4759 -1.6195
  178DOPC  C31221843   5.388   2.367   9.935  0.3977  0.5906 -0.2928
  178DOPC  H12X21844   5.492   2.403   9.950  0.0711  1.8391 -0.9315
  178DOPC  H12Y21845   5.402   2.266   9.890  1.7662  0.2935  0.7014
  178DOPC  C31321846   5.341   2.355  10.080  0.1377 -0.1259 -0.0376
  178DOPC  H13X21847   5.341   2.454  10.130 -1.4351  0.4921 -1.1843
  178DOPC  H13Y21848   5.236   2.324  10.098 -0.1173  1.4367  1.4422
  178DOPC  C31421849   5.433   2.257  10.159  0.2627  0.2364  0.0766
  178DOPC  H14X21850   5.436   2.162  10.102  0.5552  0.4095 -0.1965
  178DOPC  H14Y21851   5.538   2.291  10.172 -0.5384  2.3821  1.4336
  178DOPC  C31521852   5.375   2.231  10.302 -0.1817 -1.0653 -0.8183
  178DOPC  H15X21853   5.444   2.164  10.357 -1.0580 -2.7012 -1.6157
  178DOPC  H15Y21854   5.274   2.186  10.295 -0.3582 -1.1285  1.5267
  178DOPC  C31621855   5.391   2.360  10.387 -0.2287 -0.0940 -0.2791
  178DOPC  H16X21856   5.494   2.398  10.374 -0.1053 -0.0999  0.6123
  178DOPC  H16Y21857   5.319   2.433  10.344 -0.6503 -2.4214 -3.9153
  178DOPC  C31721858   5.377   2.328  10.537 -0.4396  0.3432 -0.1576
  178DOPC  H17X21859   5.453   2.251  10.560 -1.1196 -0.7838 -1.5194
  178DOPC  H17Y21860   5.383   2.417  10.604 -0.8965  0.0229  0.3248
  178DOPC  C31821861   5.245   2.262  10.569 -0.0826  0.2920 -0.0448
  178DOPC  H18X21862   5.209   2.190  10.492  0.8820 -0.7267  0.4189
  178DOPC  H18Y21863   5.246   2.203  10.663  1.3164 -0.9192 -0.7560
  178DOPC  H18Z21864   5.168   2.341  10.572  0.5909  1.0076 -0.9718
  179DOPC     N21865   3.310   0.613   8.193  0.5496 -0.2901  0.0741
  179DOPC   C1221866   3.336   0.681   8.324 -0.2750 -0.2919 -0.4814
  179DOPC  H12A21867   3.269   0.764   8.336  0.0235  0.3946 -2.9454
  179DOPC  H12B21868   3.440   0.711   8.321 -0.2548 -0.2059  0.5949
  179DOPC   C1321869   3.170   0.559   8.190 -0.1616  0.0488  0.7276
  179DOPC  H13A21870   3.153   0.505   8.282 -0.6397  0.5058  0.9180
  179DOPC  H13B21871   3.091   0.633   8.183  0.1432  0.2308 -2.2310
  179DOPC  H13C21872   3.161   0.480   8.118  1.5353  1.2097 -0.8554
  179DOPC   C1421873   3.406   0.498   8.178  0.9171 -1.0262  0.5638
  179DOPC  H14A21874   3.397   0.420   8.252  1.5388  0.2094  2.0071
  179DOPC  H14B21875   3.387   0.457   8.080 -0.5236  0.4173  0.1907
  179DOPC  H14C21876   3.505   0.537   8.163  0.8254 -0.3140  1.7178
  179DOPC   C1521877   3.333   0.704   8.080 -0.2090  0.1557 -0.1636
  179DOPC  H15A21878   3.270   0.791   8.078 -1.9752 -1.0427  0.4995
  179DOPC  H15B21879   3.304   0.656   7.987  0.9671  1.7225 -1.3896
  179DOPC  H15C21880   3.439   0.725   8.071 -0.4789  1.0599 -1.5854
  179DOPC   C1121881   3.315   0.594   8.453  0.7797  0.1236 -0.1459
  179DOPC  H11A21882   3.355   0.494   8.428 -0.2732 -0.0125 -1.3527
  179DOPC  H11B21883   3.368   0.640   8.540  0.9526  0.6014 -0.4989
  179DOPC     P21884   3.067   0.684   8.494 -0.0983 -0.0953 -0.2457
  179DOPC   O1321885   2.937   0.628   8.452 -0.3898 -0.0794 -0.1089
  179DOPC   O1421886   3.108   0.809   8.437  0.0426  0.3244 -0.8295
  179DOPC   O1221887   3.182   0.575   8.483  0.4135  0.3147 -0.1526
  179DOPC   O1121888   3.067   0.726   8.646 -0.0181  0.2392  0.2492
  179DOPC    C121889   3.015   0.649   8.757  0.3328 -0.9800 -0.0229
  179DOPC    HA21890   2.940   0.577   8.720 -0.6669 -0.4556  0.9190
  179DOPC    HB21891   2.971   0.726   8.824  0.1562 -0.2654 -0.9385
  179DOPC    C221892   3.130   0.580   8.826  0.5069 -1.0048  0.1089
  179DOPC    HS21893   3.179   0.531   8.740 -0.8202 -0.7101 -0.8375
  179DOPC   O2121894   3.086   0.478   8.919  0.4705 -0.0111  0.6547
  179DOPC   C2121895   3.025   0.369   8.877 -0.4701  0.6135 -0.2024
  179DOPC   O2221896   3.029   0.329   8.758 -0.0828 -0.4336  0.2962
  179DOPC   C2221897   2.977   0.288   8.999  1.1417 -0.0118  0.3541
  179DOPC   H2R21898   3.041   0.199   9.014  2.5460  0.7358 -0.9218
  179DOPC   H2S21899   2.876   0.256   8.967  0.2255  2.8197  0.1340
  179DOPC    C321900   3.222   0.687   8.882  0.1128  0.1148 -0.9989
  179DOPC    HX21901   3.260   0.764   8.811  3.4209  0.8750  1.3179
  179DOPC    HY21902   3.317   0.639   8.915 -1.0112  0.3096  3.1730
  179DOPC   O3121903   3.166   0.748   8.999 -0.1869 -0.0404  0.4705
  179DOPC   C3121904   3.191   0.684   9.113  0.6187  0.2022 -0.3327
  179DOPC   O3221905   3.268   0.595   9.141  0.0907 -0.0382  0.2121
  179DOPC   C3221906   3.108   0.752   9.210 -0.4958  0.2712 -0.5120
  179DOPC   H2X21907   3.152   0.852   9.227 -0.4661 -0.0451  1.4980
  179DOPC   H2Y21908   3.007   0.760   9.164 -0.8763 -0.2057  0.2253
  179DOPC   C2321909   2.966   0.367   9.132  0.1924  0.6134 -0.4309
  179DOPC   H3R21910   2.906   0.458   9.110  0.1194  0.5531 -0.4834
  179DOPC   H3S21911   3.067   0.396   9.168  0.2263  0.3080 -0.2756
  179DOPC   C2421912   2.889   0.293   9.244  0.2161  0.3685  0.5664
  179DOPC   H4R21913   2.939   0.194   9.254  1.7853  1.2163  1.3036
  179DOPC   H4S21914   2.788   0.278   9.198 -0.7094 -0.9113  2.8371
  179DOPC   C2521915   2.885   0.379   9.362  0.1216  0.5837 -0.4342
  179DOPC   H5R21916   2.835   0.472   9.327 -1.5145  0.2100  0.8353
  179DOPC   H5S21917   2.982   0.403   9.411 -0.5996  2.3120  0.2109
  179DOPC   C2621918   2.794   0.317   9.467 -0.2980  0.1601  0.4683
  179DOPC   H6R21919   2.846   0.222   9.492  1.0005  0.9357  0.7988
  179DOPC   H6S21920   2.692   0.297   9.429  0.0421  0.6338 -0.7613
  179DOPC   C2721921   2.793   0.399   9.596  0.3383  0.7081  0.2022
  179DOPC   H7R21922   2.750   0.498   9.569 -1.1830  0.2936  0.9709
  179DOPC   H7S21923   2.902   0.408   9.618  0.6439 -1.0250 -0.4424
  179DOPC   C2821924   2.709   0.332   9.700  0.2892 -0.4165 -0.5957
  179DOPC   H8R21925   2.753   0.240   9.743 -2.6430 -1.7200 -0.1263
  179DOPC   H8S21926   2.614   0.294   9.656  0.3994 -0.1379 -1.0824
  179DOPC   C2921927   2.674   0.425   9.817  0.7822  0.4739  0.4257
  179DOPC   H9R21928   2.583   0.487   9.807  1.5938  1.9967  2.0940
  179DOPC  C21021929   2.751   0.475   9.909 -0.6951 -0.0446 -0.2587
  179DOPC  H10R21930   2.699   0.547   9.973 -1.7985  0.3898 -1.5860
  179DOPC  C21121931   2.892   0.435   9.946 -0.5329  0.2752 -0.4880
  179DOPC  H11R21932   2.962   0.522   9.944 -0.0492 -0.1101 -0.6135
  179DOPC  H11S21933   2.933   0.367   9.868  1.0475  0.6089  0.0115
  179DOPC  C21221934   2.903   0.372  10.082 -0.2920 -0.5708 -0.5559
  179DOPC  H12R21935   2.988   0.300  10.083  0.0735 -0.1709  0.9807
  179DOPC  H12S21936   2.812   0.309  10.091 -1.3686  0.8104 -1.2650
  179DOPC  C21321937   2.917   0.480  10.188 -0.6848  0.2418  0.5457
  179DOPC  H13R21938   2.836   0.551  10.162  0.9414  1.3713 -1.7345
  179DOPC  H13S21939   3.020   0.518  10.175 -0.6712 -0.4293 -1.6511
  179DOPC  C21421940   2.903   0.415  10.328  0.1317 -0.0886  0.3450
  179DOPC  H14R21941   2.940   0.311  10.310 -0.1163  0.0456 -0.9934
  179DOPC  H14S21942   2.795   0.414  10.352 -0.6371 -2.8802 -2.4925
  179DOPC  C21521943   2.994   0.484  10.432  0.2411  0.1081 -0.2802
  179DOPC  H15R21944   2.973   0.593  10.435 -0.0025  0.0394  0.5353
  179DOPC  H15S21945   3.099   0.485  10.394  1.3190 -0.0738  2.4451
  179DOPC  C21621946   2.984   0.431  10.577 -0.3203  0.2235  0.5541
  179DOPC  H16R21947   3.073   0.368  10.597  0.6729  0.4768 -2.5442
  179DOPC  H16S21948   2.892   0.370  10.588 -1.2157  1.3526 -0.4369
  179DOPC  C21721949   2.979   0.540  10.679  0.1285 -0.1972  0.0719
  179DOPC  H17R21950   2.881   0.593  10.672 -1.3076 -2.9140 -2.4347
  179DOPC  H17S21951   3.052   0.622  10.667 -0.7058  0.5420 -0.1090
  179DOPC  C21821952   2.998   0.498  10.828 -0.4792 -0.4757 -0.4394
  179DOPC  H18R21953   2.935   0.408  10.839 -1.4052  0.2312  0.1877
  179DOPC  H18S21954   2.969   0.588  10.888 -0.5766 -1.0443  0.3872
  179DOPC  H18T21955   3.103   0.464  10.844  0.2992  1.3864 -1.2484
  179DOPC   C3321956   3.088   0.680   9.352  0.5283 -0.4377  0.2410
  179DOPC   H3X21957   3.050   0.577   9.336 -1.5016  0.0321  1.6593
  179DOPC   H3Y21958   3.004   0.737   9.398  1.2797 -0.1388  1.2904
  179DOPC   C3421959   3.205   0.702   9.447  0.2639  0.8588 -0.0036
  179DOPC   H4X21960   3.215   0.808   9.481  0.8074  0.9838 -0.5418
  179DOPC   H4Y21961   3.297   0.679   9.391  0.9330 -0.8771  1.7022
  179DOPC   C3521962   3.183   0.628   9.584 -0.1098 -0.0006  0.3352
  179DOPC   H5X21963   3.213   0.523   9.562 -0.5604  0.0980 -0.8533
  179DOPC   H5Y21964   3.076   0.634   9.615 -0.7221 -0.1105 -1.5908
  179DOPC   C3621965   3.278   0.677   9.692  0.3329  0.1723  0.2613
  179DOPC   H6X21966   3.383   0.683   9.656 -0.1979 -0.2543 -1.4451
  179DOPC   H6Y21967   3.239   0.779   9.712 -1.7491 -0.1604 -1.6534
  179DOPC   C3721968   3.281   0.592   9.824 -0.3951 -0.1577  0.6299
  179DOPC   H7X21969   3.175   0.564   9.842 -0.7521 -0.0193 -1.1072
  179DOPC   H7Y21970   3.335   0.496   9.808  1.1604  0.6961  0.6706
  179DOPC   C3821971   3.351   0.673   9.942  1.1097  0.7057  0.3427
  179DOPC   H8X21972   3.288   0.765   9.952 -1.5242 -0.7951 -1.3122
  179DOPC   H8Y21973   3.455   0.701   9.914  0.8411 -1.0505 -2.7215
  179DOPC   C3921974   3.353   0.586  10.061  0.0355  0.4608 -0.3327
  179DOPC   H9X21975   3.365   0.480  10.036  0.4194  0.3723  0.2269
  179DOPC  C31021976   3.329   0.619  10.192  0.1081  0.6589 -0.0390
  179DOPC  H10X21977   3.318   0.538  10.265  4.5626  1.4029  1.7750
  179DOPC  C31121978   3.304   0.746  10.257 -0.6297 -0.0218 -0.1807
  179DOPC  H11X21979   3.197   0.755  10.285 -1.4183 -2.2579 -2.0944
  179DOPC  H11Y21980   3.337   0.824  10.186  2.2632 -0.9364  0.0102
  179DOPC  C31221981   3.394   0.767  10.389  0.7548  0.7329 -0.6530
  179DOPC  H12X21982   3.399   0.872  10.423  0.4592  0.7756 -0.7352
  179DOPC  H12Y21983   3.501   0.756  10.360  0.8525  1.7983 -0.7120
  179DOPC  C31321984   3.357   0.679  10.509  0.2592  0.5304  0.2663
  179DOPC  H13X21985   3.248   0.693  10.527  0.2425 -0.8170  1.3592
  179DOPC  H13Y21986   3.375   0.571  10.487  0.9032  0.5326  0.7359
  179DOPC  C31421987   3.432   0.702  10.642 -0.2483 -0.0799  0.1670
  179DOPC  H14X21988   3.423   0.612  10.705  1.0695 -0.7992 -0.6275
  179DOPC  H14Y21989   3.542   0.704  10.628 -0.2819 -0.8407 -0.2602
  179DOPC  C31521990   3.366   0.821  10.729  0.1722 -0.0279 -0.2457
  179DOPC  H15X21991   3.256   0.826  10.736  0.2562  0.7359  0.8658
  179DOPC  H15Y21992   3.401   0.915  10.680  0.2328 -0.4895 -1.0985
  179DOPC  C31621993   3.415   0.827  10.876  0.9609  0.4813 -0.7099
  179DOPC  H16X21994   3.366   0.918  10.917 -0.3257 -0.4806 -0.0681
  179DOPC  H16Y21995   3.380   0.733  10.922  2.0122  0.3678 -0.1077
  179DOPC  C31721996   3.572   0.833  10.893  1.5084  0.0041  0.2054
  179DOPC  H17X21997   3.622   0.765  10.821  2.9221 -0.1891  1.3083
  179DOPC  H17Y21998   3.615   0.935  10.884  0.9371  0.2205 -0.1237
  179DOPC  C31821999   3.615   0.785  11.031 -0.0668 -0.0631  0.3611
  179DOPC  H18X22000   3.588   0.680  11.054 -1.2260  0.4558  1.5089
  179DOPC  H18Y22001   3.726   0.791  11.042 -0.1782 -0.0398  1.5425
  179DOPC  H18Z22002   3.564   0.850  11.105 -1.2365 -1.5163  0.8724
  180DOPC     N22003   1.456   4.761   9.099 -1.0709  0.3360  0.3707
  180DOPC   C1222004   1.383   4.888   9.084  0.2371 -0.2462  0.4279
  180DOPC  H12A22005   1.290   4.882   9.030  0.1398  2.8522  0.0965
  180DOPC  H12B22006   1.454   4.959   9.046 -0.0053 -0.3236 -0.1850
  180DOPC   C1322007   1.382   4.651   9.160  0.1593 -1.0507 -0.5436
  180DOPC  H13A22008   1.304   4.691   9.225  0.5283 -0.5152 -0.4203
  180DOPC  H13B22009   1.329   4.596   9.084  0.1868  0.2588 -1.5391
  180DOPC  H13C22010   1.442   4.593   9.228 -2.0972 -2.8222  0.0674
  180DOPC   C1422011   1.583   4.790   9.183 -0.0716 -0.1563  0.5087
  180DOPC  H14A22012   1.654   4.854   9.133 -0.5749  1.0579  1.3006
  180DOPC  H14B22013   1.566   4.849   9.272  2.3810  1.2020  0.1717
  180DOPC  H14C22014   1.632   4.698   9.210 -0.6984  0.0389  2.4227
  180DOPC   C1522015   1.513   4.717   8.966  0.3467  0.2190  0.1862
  180DOPC  H15A22016   1.541   4.800   8.903  0.4707  1.1217  1.4060
  180DOPC  H15B22017   1.439   4.665   8.906  0.9579  2.3893 -2.6016
  180DOPC  H15C22018   1.605   4.661   8.970  1.4540  1.8278 -1.3341
  180DOPC   C1122019   1.338   4.960   9.216  0.3114 -0.0652 -0.2801
  180DOPC  H11A22020   1.240   5.012   9.205 -0.9324 -1.5846  2.4877
  180DOPC  H11B22021   1.307   4.880   9.286  0.1497  0.4487  0.2519
  180DOPC     P22022   1.443   5.084   9.411 -0.0762 -0.0948  0.4089
  180DOPC   O1322023   1.524   4.984   9.486  0.0724 -0.2578 -0.2502
  180DOPC   O1422024   1.303   5.109   9.456 -0.4480  0.3791 -0.3548
  180DOPC   O1222025   1.441   5.050   9.258  0.0796  0.1986  0.1443
  180DOPC   O1122026   1.523   5.221   9.409 -0.5003 -0.4415  0.1820
  180DOPC    C122027   1.673   5.225   9.412  0.2435 -0.1016 -0.0453
  180DOPC    HA22028   1.709   5.302   9.341  2.8870 -2.6424 -1.6931
  180DOPC    HB22029   1.722   5.132   9.377 -0.2279 -0.8801  1.2784
  180DOPC    C222030   1.719   5.268   9.558 -0.1072 -0.8953 -0.0707
  180DOPC    HS22031   1.830   5.278   9.554 -0.2069  0.1705 -2.9873
  180DOPC   O2122032   1.695   5.156   9.646  0.2078 -0.0766  0.2677
  180DOPC   C2122033   1.775   5.141   9.748  0.3709 -0.2846 -0.6378
  180DOPC   O2222034   1.867   5.208   9.793 -0.0115  0.5319  0.2937
  180DOPC   C2222035   1.740   5.008   9.819 -1.0196  0.7447 -0.4256
  180DOPC   H2R22036   1.645   4.964   9.783 -1.3067 -1.2516  2.4289
  180DOPC   H2S22037   1.723   5.036   9.925  1.4834 -1.1760  0.5802
  180DOPC    C322038   1.657   5.404   9.603 -0.0609 -0.1610 -0.1028
  180DOPC    HX22039   1.551   5.401   9.572 -0.1555  1.2765  0.0390
  180DOPC    HY22040   1.703   5.487   9.546 -0.3368  0.1854  0.1798
  180DOPC   O3122041   1.655   5.420   9.751 -0.5843 -0.4326 -0.3625
  180DOPC   C3122042   1.763   5.487   9.798 -0.0085 -0.3203  0.1319
  180DOPC   O3222043   1.848   5.543   9.731  0.0451 -0.4471 -0.2933
  180DOPC   C3222044   1.739   5.515   9.948  0.2251  0.3418 -0.3335
  180DOPC   H2X22045   1.677   5.606   9.960 -0.9175 -0.5085  0.4581
  180DOPC   H2Y22046   1.701   5.423   9.997 -0.3208  1.4956  1.5103
  180DOPC   C2322047   1.858   4.905   9.818  0.6808 -0.2119  0.1620
  180DOPC   H3R22048   1.953   4.959   9.835  1.6418 -0.9432 -2.4481
  180DOPC   H3S22049   1.860   4.873   9.712 -1.0467  0.8262 -0.2318
  180DOPC   C2422050   1.837   4.782   9.907 -0.5197 -1.2618  1.0342
  180DOPC   H4R22051   1.777   4.712   9.846 -0.9719  0.0679 -0.0811
  180DOPC   H4S22052   1.776   4.816   9.993 -0.2403  1.2309  0.3337
  180DOPC   C2522053   1.965   4.710   9.959 -0.2159 -0.2974 -0.4141
  180DOPC   H5R22054   2.011   4.784  10.027  1.2856 -0.8969 -0.7357
  180DOPC   H5S22055   2.037   4.692   9.877 -0.4490  0.6039 -0.8325
  180DOPC   C2622056   1.924   4.578  10.034 -0.2005 -0.3759 -0.2783
  180DOPC   H6R22057   1.885   4.510   9.955  0.1264  0.4273 -1.1583
  180DOPC   H6S22058   1.832   4.601  10.092  0.1256  0.6604 -0.1444
  180DOPC   C2722059   2.041   4.525  10.112 -0.0771  0.8531  0.3281
  180DOPC   H7R22060   2.064   4.592  10.198  1.0156 -0.2742  0.9410
  180DOPC   H7S22061   2.120   4.515  10.035 -1.4348  0.2693 -1.0413
  180DOPC   C2822062   2.019   4.378  10.153 -0.1021 -0.0070  0.7213
  180DOPC   H8R22063   2.116   4.337  10.191  0.4477  1.3763  0.8654
  180DOPC   H8S22064   1.998   4.310  10.068 -0.3890 -1.5333  1.9460
  180DOPC   C2922065   1.903   4.385  10.254 -0.5928  0.0035  0.2267
  180DOPC   H9R22066   1.806   4.406  10.208  0.6173  0.1571 -2.4889
  180DOPC  C21022067   1.916   4.385  10.389 -0.2677  0.3861  0.3429
  180DOPC  H10R22068   1.827   4.370  10.451 -0.2789  0.4318  0.3383
  180DOPC  C21122069   2.042   4.350  10.455 -0.1559  0.1918 -0.2427
  180DOPC  H11R22070   2.042   4.405  10.552  1.9120  1.2946 -0.8009
  180DOPC  H11S22071   2.130   4.378  10.393 -0.7168  0.5998 -0.8676
  180DOPC  C21222072   2.073   4.200  10.489 -0.0411  0.6029 -0.8364
  180DOPC  H12R22073   2.156   4.197  10.563 -0.2753  1.6855 -0.5110
  180DOPC  H12S22074   2.089   4.150  10.391  0.2947  1.4876 -1.2488
  180DOPC  C21322075   1.958   4.124  10.571  0.7501 -0.6812 -0.0460
  180DOPC  H13R22076   1.992   4.019  10.579  2.8243 -0.0786 -0.3663
  180DOPC  H13S22077   1.870   4.119  10.504  0.3098 -0.8524  0.5335
  180DOPC  C21422078   1.920   4.180  10.709 -0.5067  0.2452  0.3048
  180DOPC  H14R22079   1.828   4.131  10.746 -0.2109 -1.0520 -0.6170
  180DOPC  H14S22080   1.910   4.291  10.713 -1.1605  0.1643  2.0560
  180DOPC  C21522081   2.014   4.144  10.829  0.1235  0.0758 -0.8648
  180DOPC  H15R22082   2.106   4.202  10.806  0.4228 -0.3863 -0.8541
  180DOPC  H15S22083   2.030   4.035  10.812  0.5519  0.0222 -0.1472
  180DOPC  C21622084   1.956   4.175  10.972 -0.3946 -0.1216  0.2931
  180DOPC  H16R22085   1.887   4.094  11.004 -0.1525  0.7150  3.2117
  180DOPC  H16S22086   1.907   4.274  10.962  1.3844  0.7821  0.0989
  180DOPC  C21722087   2.077   4.186  11.069  0.3977 -0.8083  0.0423
  180DOPC  H17R22088   2.124   4.286  11.060 -1.0851 -0.1271 -0.5969
  180DOPC  H17S22089   2.149   4.106  11.043 -1.2543 -2.4390  0.2586
  180DOPC  C21822090   2.037   4.167  11.218  0.1593  0.0243  0.8591
  180DOPC  H18R22091   1.972   4.250  11.253  1.2993  1.8145 -0.9921
  180DOPC  H18S22092   2.130   4.158  11.278  0.7569 -2.0341 -0.2813
  180DOPC  H18T22093   1.969   4.080  11.231  0.4768 -0.1849  1.1501
  180DOPC   C3322094   1.871   5.552  10.021  0.5738 -0.1951  0.0177
  180DOPC   H3X22095   1.920   5.634   9.963  0.2700 -0.4706 -0.6419
  180DOPC   H3Y22096   1.948   5.475  10.001  2.0960  1.8358 -2.5740
  180DOPC   C3422097   1.849   5.576  10.170 -0.5882 -0.2408  0.2968
  180DOPC   H4X22098   1.774   5.500  10.201  1.4471 -2.1230  0.8696
  180DOPC   H4Y22099   1.804   5.678  10.172  2.5747  1.2899 -0.6864
  180DOPC   C3522100   1.981   5.574  10.245  0.5289 -0.0695  0.1453
  180DOPC   H5X22101   2.061   5.642  10.207  0.8508 -0.3466  0.3168
  180DOPC   H5Y22102   2.012   5.467  10.245  2.6541  0.5080  0.2307
  180DOPC   C3622103   1.952   5.609  10.389  0.4438  0.1015  0.7852
  180DOPC   H6X22104   1.915   5.714  10.392  0.7917  0.2683 -0.3636
  180DOPC   H6Y22105   1.869   5.541  10.417  0.5877 -0.1661  0.5658
  180DOPC   C3722106   2.068   5.582  10.476 -0.5366 -0.1950  0.2168
  180DOPC   H7X22107   2.107   5.478  10.470 -1.6544 -0.6997  1.2370
  180DOPC   H7Y22108   2.153   5.647  10.446 -1.0136 -0.5980 -2.1958
  180DOPC   C3822109   2.030   5.619  10.625 -0.0713  0.4917 -0.5017
  180DOPC   H8X22110   1.992   5.722  10.639 -0.9061  0.0876  0.2620
  180DOPC   H8Y22111   2.127   5.623  10.679 -1.2449 -0.4865  1.7808
  180DOPC   C3922112   1.939   5.513  10.684 -0.2513 -0.9772 -0.0426
  180DOPC   H9X22113   1.840   5.555  10.706  0.4316  0.5553  0.2077
  180DOPC  C31022114   1.977   5.398  10.745  0.7509  0.2998 -0.8945
  180DOPC  H10X22115   1.901   5.327  10.779  1.1452  0.5193  0.5427
  180DOPC  C31122116   2.120   5.351  10.755 -0.6625 -0.4667 -0.0935
  180DOPC  H11X22117   2.181   5.400  10.676 -0.5166 -1.2356 -0.4606
  180DOPC  H11Y22118   2.118   5.242  10.735  1.2926 -0.0999 -2.8403
  180DOPC  C31222119   2.189   5.377  10.887  0.4428  0.3565  0.6356
  180DOPC  H12X22120   2.290   5.332  10.896  0.1177 -0.9446 -1.5584
  180DOPC  H12Y22121   2.122   5.338  10.968  0.7241  0.9968  1.1822
  180DOPC  C31322122   2.209   5.525  10.909 -0.0679  0.5130 -0.7033
  180DOPC  H13X22123   2.275   5.572  10.834  0.8923 -0.9418 -0.8319
  180DOPC  H13Y22124   2.108   5.570  10.911 -0.5318 -0.4099  2.1915
  180DOPC  C31422125   2.270   5.561  11.052  0.4466 -0.0066  0.2787
  180DOPC  H14X22126   2.217   5.524  11.142  1.3186 -0.5460  0.5902
  180DOPC  H14Y22127   2.371   5.514  11.064 -0.1391 -1.4585 -0.2444
  180DOPC  C31522128   2.272   5.709  11.082 -0.1037  0.2333 -0.0734
  180DOPC  H15X22129   2.166   5.737  11.102 -0.6395 -1.0138 -0.9894
  180DOPC  H15Y22130   2.318   5.756  10.993 -0.1641 -0.6586 -0.5798
  180DOPC  C31622131   2.345   5.742  11.207 -0.0564  0.7951 -0.9096
  180DOPC  H16X22132   2.416   5.659  11.227 -0.0510  1.0507  0.1583
  180DOPC  H16Y22133   2.404   5.836  11.213  1.3683 -0.1752  2.2507
  180DOPC  C31722134   2.253   5.743  11.331  0.0594  0.0283  0.4961
  180DOPC  H17X22135   2.301   5.803  11.411 -0.2057  2.3048 -0.9750
  180DOPC  H17Y22136   2.163   5.800  11.303  0.8201  0.8941 -0.2354
  180DOPC  C31822137   2.199   5.608  11.385 -0.2129 -0.4468  1.0242
  180DOPC  H18X22138   2.153   5.625  11.485  0.9165 -2.9402  2.0461
  180DOPC  H18Y22139   2.117   5.572  11.320 -2.1412  4.1625  0.5283
  180DOPC  H18Z22140   2.286   5.539  11.395  0.8490  0.4221 -1.4055
  181DOPC     N22141   2.859   4.212   9.320 -0.2550  0.4408  0.7862
  181DOPC   C1222142   2.970   4.287   9.383  0.6967  0.0860  0.0012
  181DOPC  H12A22143   2.954   4.297   9.489  2.3098  0.2388  0.2558
  181DOPC  H12B22144   2.964   4.388   9.345 -3.3161 -1.0020 -2.9950
  181DOPC   C1322145   2.873   4.209   9.171  0.5545  0.2697  0.1553
  181DOPC  H13A22146   2.869   4.309   9.131 -4.8458  0.0025 -0.6976
  181DOPC  H13B22147   2.965   4.159   9.145 -0.8816 -1.7805 -1.2766
  181DOPC  H13C22148   2.789   4.160   9.125  0.3640 -0.0012  0.7806
  181DOPC   C1422149   2.733   4.276   9.361 -0.7114 -0.7064  0.3131
  181DOPC  H14A22150   2.711   4.255   9.465  0.4449 -0.3286  0.6503
  181DOPC  H14B22151   2.729   4.383   9.349  0.3332 -0.7143 -0.2118
  181DOPC  H14C22152   2.654   4.229   9.303  0.4996 -2.2282 -0.1601
  181DOPC   C1522153   2.855   4.069   9.376  0.1257  0.3482  0.9232
  181DOPC  H15A22154   2.768   4.014   9.340  0.2937 -0.0748  1.1526
  181DOPC  H15B22155   2.845   4.064   9.483 -0.3950  0.5588  0.8900
  181DOPC  H15C22156   2.948   4.017   9.357  1.1876  2.0948  1.1347
  181DOPC   C1122157   3.117   4.242   9.366  0.0118  0.0895 -0.6531
  181DOPC  H11A22158   3.153   4.244   9.261 -0.7224  1.4867 -0.9051
  181DOPC  H11B22159   3.188   4.307   9.421  0.1859  0.8162 -1.6959
  181DOPC     P22160   3.142   4.078   9.570 -0.3890  0.0852  0.4475
  181DOPC   O1322161   3.289   4.083   9.608  0.3215  0.3022  0.3761
  181DOPC   O1422162   3.074   3.946   9.591 -0.8651 -0.2388  0.7134
  181DOPC   O1222163   3.136   4.107   9.418 -0.1042 -0.5378 -0.0648
  181DOPC   O1122164   3.058   4.192   9.644 -0.4887  0.0649 -0.0322
  181DOPC    C122165   3.100   4.274   9.751 -0.8227 -0.1796  0.5661
  181DOPC    HA22166   3.019   4.348   9.770 -2.7460 -1.3465 -2.3061
  181DOPC    HB22167   3.189   4.336   9.729 -1.6990  1.8723  2.4145
  181DOPC    C222168   3.139   4.209   9.885 -0.1284 -0.6539 -0.0390
  181DOPC    HS22169   3.234   4.155   9.863  1.6624  1.5780  1.7364
  181DOPC   O2122170   3.032   4.116   9.917  0.4060 -0.0294  0.4927
  181DOPC   C2122171   3.075   3.999   9.954  0.3894 -0.1091  0.6045
  181DOPC   O2222172   3.188   3.973   9.989 -0.7588  0.0801 -0.3119
  181DOPC   C2222173   2.961   3.906   9.946 -0.0364  0.3111 -0.0993
  181DOPC   H2R22174   2.941   3.881   9.840 -0.2220 -0.6264  0.1535
  181DOPC   H2S22175   2.872   3.941  10.003 -1.0215  0.2089 -1.5228
  181DOPC    C322176   3.164   4.321   9.991  0.0368 -0.0836  0.0681
  181DOPC    HX22177   3.079   4.392   9.995  1.9572  2.4146 -1.1138
  181DOPC    HY22178   3.248   4.378   9.946 -0.4085  0.4907 -0.0450
  181DOPC   O3122179   3.191   4.263  10.119  0.0706 -0.7015 -0.0832
  181DOPC   C3122180   3.312   4.221  10.148  0.8367  0.1135  0.1749
  181DOPC   O3222181   3.404   4.232  10.069  0.2718  0.7014  0.2859
  181DOPC   C3222182   3.309   4.153  10.288  0.2820  0.0778  0.2108
  181DOPC   H2X22183   3.256   4.220  10.359 -0.2788 -2.1358  1.9803
  181DOPC   H2Y22184   3.255   4.056  10.290 -0.6466  0.5842  0.6374
  181DOPC   C2322185   2.999   3.765  10.007 -0.1590  0.0514  0.1446
  181DOPC   H3R22186   3.023   3.781  10.114 -1.4329 -1.1339  0.6358
  181DOPC   H3S22187   3.091   3.721   9.961  0.3225  1.3791 -0.2142
  181DOPC   C2422188   2.888   3.665   9.988  0.0212 -0.1265  0.4436
  181DOPC   H4R22189   2.854   3.668   9.882 -1.9025  2.1815  1.0480
  181DOPC   H4S22190   2.797   3.700  10.041  1.5130  2.9021  1.1670
  181DOPC   C2522191   2.926   3.518  10.018  0.4227  0.4808 -0.1416
  181DOPC   H5R22192   3.035   3.500  10.007  0.6376  1.4075  0.3417
  181DOPC   H5S22193   2.872   3.452   9.946  0.0293 -2.8074  2.9072
  181DOPC   C2622194   2.887   3.482  10.164  0.1420 -0.4292 -0.0815
  181DOPC   H6R22195   2.782   3.517  10.173  0.6535  2.2560 -2.6474
  181DOPC   H6S22196   2.943   3.544  10.238 -0.3982  0.8172 -0.6804
  181DOPC   C2722197   2.921   3.334  10.198 -0.2997 -0.0139 -1.0633
  181DOPC   H7R22198   3.030   3.334  10.219 -0.3174  2.3104 -0.7435
  181DOPC   H7S22199   2.914   3.265  10.112  1.0171  0.6363 -1.7240
  181DOPC   C2822200   2.845   3.283  10.318 -0.2303 -0.9029 -0.5135
  181DOPC   H8R22201   2.874   3.176  10.323 -0.5488 -0.9400  0.7425
  181DOPC   H8S22202   2.738   3.274  10.291 -0.0906 -1.4274 -0.8918
  181DOPC   C2922203   2.862   3.341  10.451 -0.8384 -0.3838 -0.3764
  181DOPC   H9R22204   2.874   3.450  10.461 -0.1866 -0.5933  1.7128
  181DOPC  C21022205   2.849   3.275  10.568 -0.0115 -1.2033  0.3790
  181DOPC  H10R22206   2.859   3.333  10.661 -1.3397 -0.9282  0.3607
  181DOPC  C21122207   2.825   3.126  10.601  0.2643  0.3538  0.4894
  181DOPC  H11R22208   2.886   3.082  10.682 -1.4214 -3.2371  0.0056
  181DOPC  H11S22209   2.850   3.072  10.507 -1.3258  1.6593 -0.7330
  181DOPC  C21222210   2.678   3.093  10.618  0.1947  0.4766  0.3422
  181DOPC  H12R22211   2.634   3.139  10.709 -2.4279 -0.6983 -0.2227
  181DOPC  H12S22212   2.676   2.984  10.642  2.5836  0.3847  0.3461
  181DOPC  C21322213   2.584   3.094  10.493  0.2279  0.0832 -0.1601
  181DOPC  H13R22214   2.575   3.197  10.453 -0.0042 -0.7682 -2.3975
  181DOPC  H13S22215   2.481   3.063  10.520  1.0301 -4.2970 -1.4114
  181DOPC  C21422216   2.624   2.993  10.391  0.1179  0.1959  0.1346
  181DOPC  H14R22217   2.644   2.895  10.439  1.5597  1.0605  1.4183
  181DOPC  H14S22218   2.720   3.024  10.346  1.1876 -0.8120  1.6075
  181DOPC  C21522219   2.512   2.960  10.296 -0.0999  0.9951 -0.6169
  181DOPC  H15R22220   2.431   2.912  10.355  1.0829  1.6005  1.6249
  181DOPC  H15S22221   2.559   2.879  10.237  0.7411 -0.1323  1.4772
  181DOPC  C21622222   2.477   3.063  10.201 -0.4528  0.3096 -0.7014
  181DOPC  H16R22223   2.447   3.155  10.257  2.5260  0.6366  0.5297
  181DOPC  H16S22224   2.384   3.035  10.148  0.0905 -0.0608 -1.4571
  181DOPC  C21722225   2.583   3.087  10.092  0.1382 -0.3312  0.0021
  181DOPC  H17R22226   2.592   3.002  10.021  0.1091 -0.7193  0.4516
  181DOPC  H17S22227   2.687   3.089  10.132  0.7079 -2.1564 -1.2295
  181DOPC  C21822228   2.570   3.219  10.015  0.5306 -0.1426  0.7194
  181DOPC  H18R22229   2.649   3.242   9.941  0.5370  0.9529  1.0480
  181DOPC  H18S22230   2.555   3.303  10.086  2.0178 -0.3829  1.3634
  181DOPC  H18T22231   2.475   3.204   9.959  0.3335 -1.3118  1.3215
  181DOPC   C3322232   3.450   4.123  10.336  0.3016 -0.1032 -0.2216
  181DOPC   H3X22233   3.502   4.213  10.376 -0.6738  0.0568  0.7310
  181DOPC   H3Y22234   3.502   4.086  10.245  0.1352 -0.4694 -0.1683
  181DOPC   C3422235   3.463   4.009  10.437  0.8427  0.1262 -0.2755
  181DOPC   H4X22236   3.569   3.980  10.447  0.2541 -1.6155  1.7946
  181DOPC   H4Y22237   3.413   3.922  10.390 -0.0153  1.1628 -1.3424
  181DOPC   C3522238   3.409   4.050  10.577 -0.2748 -0.1977 -0.1935
  181DOPC   H5X22239   3.326   4.123  10.565  1.1962  2.1239  2.6401
  181DOPC   H5Y22240   3.484   4.109  10.634 -0.9953 -0.0263  0.5958
  181DOPC   C3622241   3.366   3.928  10.662 -0.5471 -0.2884  0.4737
  181DOPC   H6X22242   3.314   3.956  10.757 -0.0729  0.1034  0.6214
  181DOPC   H6Y22243   3.284   3.886  10.600  0.1822 -0.8211 -0.1454
  181DOPC   C3722244   3.466   3.821  10.690  0.4193  0.7915 -0.0940
  181DOPC   H7X22245   3.417   3.752  10.762  3.4901 -2.4301 -0.8512
  181DOPC   H7Y22246   3.482   3.756  10.602  0.3877 -2.8014  2.3629
  181DOPC   C3822247   3.600   3.879  10.748  0.2013 -0.3411  0.0055
  181DOPC   H8X22248   3.569   3.947  10.830 -3.4257 -0.8725 -0.7540
  181DOPC   H8Y22249   3.642   3.938  10.664 -1.0943 -1.3032 -1.3758
  181DOPC   C3922250   3.708   3.779  10.781 -0.6301 -0.0519 -0.9154
  181DOPC   H9X22251   3.739   3.716  10.696 -0.6794 -0.9849 -0.2463
  181DOPC  C31022252   3.760   3.757  10.904 -0.4716  0.6492 -0.2293
  181DOPC  H10X22253   3.822   3.669  10.929 -1.1144 -0.0621 -1.0653
  181DOPC  C31122254   3.716   3.820  11.028  0.0089  0.2864 -0.1531
  181DOPC  H11X22255   3.637   3.898  11.016 -0.6764 -0.4204 -0.2911
  181DOPC  H11Y22256   3.796   3.875  11.082 -1.0951  2.2306 -0.3987
  181DOPC  C31222257   3.646   3.722  11.126  0.0441 -0.5688 -0.6124
  181DOPC  H12X22258   3.649   3.780  11.221 -1.3390 -1.2909 -0.1050
  181DOPC  H12Y22259   3.710   3.634  11.149 -0.4172 -0.5215  0.9997
  181DOPC  C31322260   3.501   3.688  11.095  0.9916  0.5101  0.0614
  181DOPC  H13X22261   3.445   3.783  11.082 -0.5569 -0.3191  0.4208
  181DOPC  H13Y22262   3.507   3.621  11.007  0.8245  0.6134 -0.0283
  181DOPC  C31422263   3.435   3.599  11.205  0.3823  0.2319  0.3452
  181DOPC  H14X22264   3.494   3.506  11.217  1.0417  0.6395  0.3480
  181DOPC  H14Y22265   3.442   3.652  11.302 -1.5892 -1.5304  1.5267
  181DOPC  C31522266   3.288   3.573  11.168 -0.0181 -0.5284  0.5416
  181DOPC  H15X22267   3.248   3.496  11.237 -2.5039  0.8911  0.8125
  181DOPC  H15Y22268   3.278   3.522  11.070  0.3514 -0.2383  0.3489
  181DOPC  C31622269   3.211   3.701  11.165  0.2361  0.2963 -0.3275
  181DOPC  H16X22270   3.250   3.772  11.089  0.7114  2.1911  1.6211
  181DOPC  H16Y22271   3.105   3.676  11.142  0.4034 -0.1018 -0.6777
  181DOPC  C31722272   3.203   3.774  11.308  0.0916  0.0970  0.1552
  181DOPC  H17X22273   3.177   3.699  11.385 -0.4087  1.6576  1.5845
  181DOPC  H17Y22274   3.303   3.814  11.334  0.4949 -0.1544 -0.9654
  181DOPC  C31822275   3.094   3.878  11.303 -0.5637 -0.2104  0.0347
  181DOPC  H18X22276   3.088   3.941  11.395  0.7102  0.7113 -0.4824
  181DOPC  H18Y22277   3.102   3.945  11.214  1.1849 -0.8178 -0.2939
  181DOPC  H18Z22278   3.002   3.818  11.287 -1.6028  1.7582 -2.0622
  182DOPC     N22279   5.501   3.686   8.978  0.3977  0.1306 -0.1637
  182DOPC   C1222280   5.581   3.562   9.009  0.6579 -0.4442  0.2709
  182DOPC  H12A22281   5.659   3.558   8.934 -2.5425 -0.9633 -3.3561
  182DOPC  H12B22282   5.527   3.471   8.988 -0.0157  0.0830 -0.3319
  182DOPC   C1322283   5.575   3.809   9.018 -0.2346  0.6907 -0.3024
  182DOPC  H13A22284   5.663   3.813   8.956  0.9499 -0.0243  1.2801
  182DOPC  H13B22285   5.519   3.898   8.996  2.6364  2.5525 -0.5039
  182DOPC  H13C22286   5.604   3.813   9.122  2.3000 -0.9521 -0.8457
  182DOPC   C1422287   5.381   3.690   9.058  0.3938  0.2393  0.8299
  182DOPC  H14A22288   5.329   3.782   9.036 -1.3406 -0.8178  0.3254
  182DOPC  H14B22289   5.325   3.600   9.036  1.2438  0.2257 -1.6251
  182DOPC  H14C22290   5.406   3.680   9.163  1.5692 -1.1707  0.4476
  182DOPC   C1522291   5.468   3.697   8.831 -0.1097 -0.3860 -0.2919
  182DOPC  H15A22292   5.554   3.697   8.766  0.7207  0.8355  0.7487
  182DOPC  H15B22293   5.411   3.788   8.817  0.5003 -0.2639 -2.2326
  182DOPC  H15C22294   5.408   3.613   8.800 -0.4887  0.2436 -1.2721
  182DOPC   C1122295   5.647   3.547   9.147 -0.1342 -0.3854  0.5556
  182DOPC  H11A22296   5.717   3.460   9.148  0.6874  0.2761  0.9564
  182DOPC  H11B22297   5.719   3.630   9.165  1.2234 -1.5203  0.5638
  182DOPC     P22298   5.471   3.415   9.294 -0.1823  0.3570  0.3605
  182DOPC   O1322299   5.528   3.292   9.237 -0.3862 -1.0503 -0.3144
  182DOPC   O1422300   5.332   3.452   9.254  0.2511 -0.1594 -0.1199
  182DOPC   O1222301   5.555   3.548   9.259  0.3007  0.1311  0.0295
  182DOPC   O1122302   5.477   3.397   9.448 -0.3802 -0.1561  0.4072
  182DOPC    C122303   5.447   3.490   9.549 -0.7738  0.2424  0.2486
  182DOPC    HA22304   5.383   3.575   9.516  0.1856  0.1460 -2.0735
  182DOPC    HB22305   5.547   3.524   9.583  0.0152 -2.6736  1.1203
  182DOPC    C222306   5.368   3.422   9.664  0.0306  0.4959  0.3227
  182DOPC    HS22307   5.322   3.506   9.720  0.6227  2.0075 -1.3452
  182DOPC   O2122308   5.476   3.348   9.735  0.5157 -0.8152 -0.3812
  182DOPC   C2122309   5.473   3.350   9.862  0.1287  0.3669  0.0782
  182DOPC   O2222310   5.401   3.414   9.933  0.2777  0.1864  0.1522
  182DOPC   C2222311   5.582   3.262   9.912  0.7933  0.2379 -1.0912
  182DOPC   H2R22312   5.674   3.324   9.910  1.1880 -0.2462  0.4743
  182DOPC   H2S22313   5.589   3.178   9.840  1.1328 -0.8308  0.1316
  182DOPC    C322314   5.267   3.329   9.601 -0.2210  0.5146 -0.3148
  182DOPC    HX22315   5.329   3.250   9.553 -0.4010  0.7883 -1.0191
  182DOPC    HY22316   5.203   3.385   9.529 -2.4781  0.4566  1.5493
  182DOPC   O3122317   5.185   3.268   9.700 -0.0142  0.9850 -0.3391
  182DOPC   C3122318   5.086   3.344   9.762 -0.0814 -0.1726  0.3303
  182DOPC   O3222319   5.062   3.459   9.733  0.1200  0.3845 -0.2937
  182DOPC   C3222320   5.019   3.263   9.870  0.8058 -0.4661 -0.6987
  182DOPC   H2X22321   4.933   3.324   9.905  0.0623 -1.6781 -0.3576
  182DOPC   H2Y22322   4.984   3.164   9.834  1.9605 -2.3190  2.7995
  182DOPC   C2322323   5.549   3.200  10.059 -0.5112  0.1100 -0.1442
  182DOPC   H3R22324   5.610   3.107  10.069 -0.4422  0.1501 -0.1925
  182DOPC   H3S22325   5.444   3.166  10.068 -0.6183  0.8650  2.0264
  182DOPC   C2422326   5.587   3.284  10.183  0.4020 -0.1651  0.3614
  182DOPC   H4R22327   5.513   3.367  10.188 -0.7651 -1.1952  0.6093
  182DOPC   H4S22328   5.693   3.315  10.177  1.0597 -2.1027  1.2828
  182DOPC   C2522329   5.572   3.202  10.313  0.6105 -0.9888  0.1077
  182DOPC   H5R22330   5.649   3.126  10.288  0.4627 -0.3218 -2.7631
  182DOPC   H5S22331   5.470   3.160  10.317 -0.3629  1.2353  0.0224
  182DOPC   C2622332   5.612   3.284  10.437  0.4845 -0.1635  0.4211
  182DOPC   H6R22333   5.537   3.362  10.460 -0.2026  0.0853 -2.3045
  182DOPC   H6S22334   5.704   3.345  10.421  1.5394 -2.1739 -1.8503
  182DOPC   C2722335   5.652   3.201  10.552 -0.0159 -0.4392 -0.5590
  182DOPC   H7R22336   5.749   3.151  10.529  0.5080  1.6144 -3.2944
  182DOPC   H7S22337   5.575   3.128  10.585  0.9145 -0.9056  0.6787
  182DOPC   C2822338   5.673   3.284  10.681 -0.1810  0.0788  0.5311
  182DOPC   H8R22339   5.578   3.312  10.730 -0.5504 -0.7408  0.2894
  182DOPC   H8S22340   5.731   3.370  10.639 -0.3621 -0.3082 -0.5445
  182DOPC   C2922341   5.746   3.198  10.779  0.2806  0.7656  0.2012
  182DOPC   H9R22342   5.827   3.137  10.736 -0.5263 -0.5164  0.4594
  182DOPC  C21022343   5.712   3.175  10.907 -0.4169  0.1140 -0.0223
  182DOPC  H10R22344   5.770   3.099  10.961  0.4388  0.7811  0.0246
  182DOPC  C21122345   5.591   3.229  10.982  0.0453  0.2933  0.1130
  182DOPC  H11R22346   5.541   3.318  10.938  0.3926  0.3221 -0.2313
  182DOPC  H11S22347   5.622   3.253  11.086 -2.1796  1.5075  0.5473
  182DOPC  C21222348   5.496   3.112  10.991  0.6404 -0.4848  0.0839
  182DOPC  H12R22349   5.481   3.065  10.891 -1.4977  1.9129 -0.8327
  182DOPC  H12S22350   5.397   3.160  11.009 -0.6896 -2.6037 -1.1577
  182DOPC  C21322351   5.539   3.007  11.095  0.6131 -0.1403  0.0208
  182DOPC  H13R22352   5.578   3.068  11.179 -0.9306  2.8925 -1.2704
  182DOPC  H13S22353   5.613   2.938  11.049  2.1787  0.8578  0.9761
  182DOPC  C21422354   5.424   2.915  11.142 -0.7200  0.2206 -0.6689
  182DOPC  H14R22355   5.434   2.808  11.113 -1.8603  0.2262 -1.1360
  182DOPC  H14S22356   5.325   2.940  11.098 -0.9003  0.1128 -0.3286
  182DOPC  C21522357   5.405   2.913  11.295 -0.4849  0.2219 -0.0338
  182DOPC  H15R22358   5.313   2.860  11.326 -0.1711 -0.2888  0.0381
  182DOPC  H15S22359   5.410   3.018  11.331 -0.6150  0.5734 -1.0130
  182DOPC  C21622360   5.515   2.827  11.375 -0.1334 -0.1238  0.4968
  182DOPC  H16R22361   5.616   2.871  11.360  0.6771 -1.9168  0.5116
  182DOPC  H16S22362   5.522   2.722  11.340  0.1971  0.6131 -1.8112
  182DOPC  C21722363   5.490   2.824  11.526  0.5108 -0.4327  0.3748
  182DOPC  H17R22364   5.390   2.779  11.547  0.3362  0.2687  1.0371
  182DOPC  H17S22365   5.505   2.923  11.572  2.0732  0.4462 -1.8440
  182DOPC  C21822366   5.580   2.728  11.604  0.1102 -0.7916 -0.0781
  182DOPC  H18R22367   5.555   2.624  11.574 -3.4797  0.1012 -0.5421
  182DOPC  H18S22368   5.578   2.737  11.715  1.1085 -2.2844  0.0976
  182DOPC  H18T22369   5.681   2.760  11.568 -0.0589 -1.0805 -0.8144
  182DOPC   C3322370   5.117   3.227   9.981 -0.0649 -0.2663 -0.1514
  182DOPC   H3X22371   5.167   3.320  10.016 -2.9354  0.4703  2.4355
  182DOPC   H3Y22372   5.199   3.169   9.934  1.8213  0.9477  1.4841
  182DOPC   C3422373   5.058   3.155  10.095  0.8219 -0.5209  0.1780
  182DOPC   H4X22374   5.004   3.062  10.064 -1.0802  0.9573 -1.2180
  182DOPC   H4Y22375   4.990   3.228  10.144  0.5692  0.4798 -1.6040
  182DOPC   C3522376   5.173   3.104  10.188 -0.0449  0.2754  0.4770
  182DOPC   H5X22377   5.255   3.176  10.207  0.1235 -0.1361  1.3603
  182DOPC   H5Y22378   5.230   3.022  10.140 -1.8482 -1.0252  0.4207
  182DOPC   C3622379   5.103   3.038  10.306  0.5997  0.3161 -0.5263
  182DOPC   H6X22380   5.052   2.944  10.275  0.9917  0.3006 -1.1344
  182DOPC   H6Y22381   5.180   2.999  10.376  0.3455 -1.5779 -1.2515
  182DOPC   C3722382   5.017   3.134  10.388 -0.3880 -0.3006 -0.3215
  182DOPC   H7X22383   4.923   3.155  10.333 -0.5943 -1.7225 -0.5571
  182DOPC   H7Y22384   4.989   3.074  10.477  3.1770 -0.5744  0.7725
  182DOPC   C3822385   5.095   3.261  10.434 -0.7717  0.4292 -0.5949
  182DOPC   H8X22386   5.026   3.328  10.490 -2.1555  0.3706 -2.1772
  182DOPC   H8Y22387   5.127   3.312  10.340  0.1404 -0.3655 -0.7292
  182DOPC   C3922388   5.228   3.228  10.505  0.0823  0.2268  0.2851
  182DOPC   H9X22389   5.303   3.197  10.430 -0.7436  1.2855 -1.0260
  182DOPC  C31022390   5.252   3.238  10.636 -0.4826 -0.4614  0.5952
  182DOPC  H10X22391   5.344   3.198  10.681 -0.4391 -0.2741  0.6742
  182DOPC  C31122392   5.141   3.274  10.729 -0.4504  1.1028  0.2262
  182DOPC  H11X22393   5.044   3.226  10.703  0.1067  0.2037 -0.2447
  182DOPC  H11Y22394   5.128   3.384  10.733  0.9068  1.3641 -1.4105
  182DOPC  C31222395   5.182   3.250  10.873 -0.3243  0.6301 -0.4304
  182DOPC  H12X22396   5.272   3.310  10.898  0.4768 -0.5094 -0.4722
  182DOPC  H12Y22397   5.212   3.144  10.891 -0.0149  0.5364 -1.4308
  182DOPC  C31322398   5.065   3.288  10.963 -0.0793 -0.4324 -0.4748
  182DOPC  H13X22399   4.990   3.355  10.917 -1.2352 -0.3734  1.3893
  182DOPC  H13Y22400   5.012   3.192  10.977  1.1153 -1.3320 -1.9172
  182DOPC  C31422401   5.098   3.359  11.097 -0.2331 -0.0565 -0.0915
  182DOPC  H14X22402   5.122   3.465  11.077 -1.2569  0.7253  2.3843
  182DOPC  H14Y22403   5.005   3.359  11.158  0.0148  3.0754  0.4698
  182DOPC  C31522404   5.208   3.297  11.180 -0.3195 -0.5545  0.0967
  182DOPC  H15X22405   5.300   3.319  11.123 -3.0135  1.3953 -4.0620
  182DOPC  H15Y22406   5.189   3.189  11.196  0.7596 -0.6476  0.8458
  182DOPC  C31622407   5.220   3.362  11.319  0.0011 -0.1884 -0.9044
  182DOPC  H16X22408   5.312   3.317  11.361  0.1075  0.3823 -0.5201
  182DOPC  H16Y22409   5.242   3.470  11.305  2.1813 -0.7175 -2.0819
  182DOPC  C31722410   5.100   3.336  11.415  0.2236 -0.3030  0.1989
  182DOPC  H17X22411   5.023   3.406  11.375  0.4325 -0.6571 -0.8551
  182DOPC  H17Y22412   5.075   3.228  11.405  0.1711 -0.3103  0.3937
  182DOPC  C31822413   5.138   3.368  11.559 -0.3861 -0.3534  0.7091
  182DOPC  H18X22414   5.050   3.366  11.627 -1.5361  0.3391 -0.7111
  182DOPC  H18Y22415   5.215   3.295  11.591 -1.5049 -1.9427 -0.0931
  182DOPC  H18Z22416   5.189   3.467  11.564  0.2717 -0.5491 -1.3103
  183DOPC     N22417   4.365   6.532   9.010  0.1113 -0.4496 -0.4280
  183DOPC   C1222418   4.227   6.465   9.006  0.3938  0.2236 -0.1718
  183DOPC  H12A22419   4.225   6.378   8.943  2.2524 -0.3198  0.4691
  183DOPC  H12B22420   4.160   6.537   8.960  0.1953  2.0061  2.6516
  183DOPC   C1322421   4.447   6.464   9.116 -0.3832  0.0922  0.4041
  183DOPC  H13A22422   4.461   6.363   9.080 -1.1196 -1.3287  3.7575
  183DOPC  H13B22423   4.543   6.507   9.143  0.5103 -1.6851  0.1893
  183DOPC  H13C22424   4.390   6.454   9.207  0.9343  0.2559  1.2726
  183DOPC   C1422425   4.346   6.675   9.050  0.4520 -0.2573 -0.0313
  183DOPC  H14A22426   4.263   6.682   9.119 -2.9430 -1.7004 -3.6269
  183DOPC  H14B22427   4.437   6.711   9.097 -0.0894 -0.3323  1.1075
  183DOPC  H14C22428   4.321   6.747   8.973  0.0477  0.1429  0.4676
  183DOPC   C1522429   4.426   6.536   8.873  0.0443  0.5725  0.7329
  183DOPC  H15A22430   4.529   6.564   8.892  0.5905 -1.9530  1.8194
  183DOPC  H15B22431   4.371   6.597   8.803 -0.0116 -0.4854 -0.1541
  183DOPC  H15C22432   4.421   6.436   8.835  2.3607  1.0573 -1.0933
  183DOPC   C1122433   4.169   6.418   9.139  0.0397  0.3692 -0.0576
  183DOPC  H11A22434   4.071   6.371   9.116 -0.3488  2.0222 -2.1276
  183DOPC  H11B22435   4.238   6.341   9.179 -0.7966 -0.2071  0.3108
  183DOPC     P22436   4.050   6.636   9.226 -0.0884  0.1172  0.0081
  183DOPC   O1322437   3.965   6.605   9.109  0.1701 -0.1798 -1.0881
  183DOPC   O1422438   4.110   6.770   9.217 -0.7532 -0.2966  0.5241
  183DOPC   O1222439   4.165   6.525   9.236 -0.1576  0.6835  0.3528
  183DOPC   O1122440   3.968   6.622   9.357  0.1773  0.6134 -0.2630
  183DOPC    C122441   3.942   6.490   9.402  0.3442  0.2662 -0.0389
  183DOPC    HA22442   4.035   6.435   9.429 -0.6348 -2.0451 -1.1203
  183DOPC    HB22443   3.897   6.427   9.322 -2.6974  1.7653  0.3483
  183DOPC    C222444   3.854   6.490   9.526  0.4224 -0.5877 -0.5715
  183DOPC    HS22445   3.843   6.392   9.577  0.6107 -0.2481  0.1410
  183DOPC   O2122446   3.727   6.540   9.484  0.9347 -0.0250  0.1588
  183DOPC   C2122447   3.654   6.447   9.425 -0.5322  0.6361 -0.2402
  183DOPC   O2222448   3.693   6.334   9.392  0.3527  0.2661 -0.1499
  183DOPC   C2222449   3.508   6.501   9.417  0.5908  0.0648  0.4805
  183DOPC   H2R22450   3.485   6.499   9.309  2.5219  0.2491  0.0252
  183DOPC   H2S22451   3.497   6.611   9.434  0.4395  0.1541 -0.1913
  183DOPC    C322452   3.917   6.582   9.634 -0.4434  0.4651  0.0697
  183DOPC    HX22453   3.913   6.689   9.604 -1.5735  0.1625 -0.9288
  183DOPC    HY22454   4.027   6.567   9.642 -0.6191 -0.0596  1.7792
  183DOPC   O3122455   3.863   6.559   9.764  0.3659  0.2772  0.5520
  183DOPC   C3122456   3.949   6.548   9.868  0.2205 -0.0382  0.3528
  183DOPC   O3222457   4.069   6.565   9.866 -0.0214 -0.6383  0.1718
  183DOPC   C3222458   3.869   6.512   9.993 -0.7552 -0.4307 -0.7871
  183DOPC   H2X22459   3.803   6.599  10.014  0.6093  0.1637  1.3956
  183DOPC   H2Y22460   3.803   6.425   9.976 -2.6976  1.1566 -1.8174
  183DOPC   C2322461   3.412   6.411   9.498 -0.0528 -0.7234 -0.1955
  183DOPC   H3R22462   3.425   6.304   9.472 -0.0246 -0.2644 -2.2511
  183DOPC   H3S22463   3.307   6.429   9.467 -0.8798 -1.2395  2.0966
  183DOPC   C2422464   3.426   6.416   9.653  0.0504  0.4644 -0.0066
  183DOPC   H4R22465   3.333   6.383   9.705 -0.4541 -0.3668 -1.4016
  183DOPC   H4S22466   3.457   6.517   9.688 -0.8568  0.7104  0.1250
  183DOPC   C2522467   3.531   6.309   9.703  0.3404 -0.0133 -0.1670
  183DOPC   H5R22468   3.625   6.317   9.646 -0.0664  0.0822 -0.8319
  183DOPC   H5S22469   3.490   6.208   9.683  0.3125  0.1897 -1.1508
  183DOPC   C2622470   3.577   6.320   9.856  0.1608 -1.1139 -0.7246
  183DOPC   H6R22471   3.632   6.416   9.848  0.4866 -1.3048 -0.7905
  183DOPC   H6S22472   3.658   6.245   9.868 -0.0983 -1.2531  0.2120
  183DOPC   C2722473   3.468   6.317   9.961 -0.3733 -0.1813  0.3165
  183DOPC   H7R22474   3.440   6.210   9.976 -1.2558 -0.0565 -0.3308
  183DOPC   H7S22475   3.379   6.368   9.917  1.6686  2.8474 -0.5361
  183DOPC   C2822476   3.517   6.400  10.085  0.9135  0.4414  0.0423
  183DOPC   H8R22477   3.532   6.509  10.071 -0.8139  0.8913  1.3703
  183DOPC   H8S22478   3.615   6.354  10.107  0.1047 -1.5510 -0.2554
  183DOPC   C2922479   3.410   6.364  10.191  0.3427  0.7392  0.3597
  183DOPC   H9R22480   3.388   6.257  10.196 -0.4633  0.7539 -1.9214
  183DOPC  C21022481   3.398   6.425  10.310 -0.4932  0.0987  0.6754
  183DOPC  H10R22482   3.315   6.406  10.380 -1.2443  2.0319  0.3932
  183DOPC  C21122483   3.468   6.552  10.347  0.3740 -0.6019  0.1507
  183DOPC  H11R22484   3.398   6.639  10.342  1.0408 -0.0620  0.0559
  183DOPC  H11S22485   3.553   6.571  10.279  1.9672 -1.3031  1.8823
  183DOPC  C21222486   3.528   6.560  10.487  0.2303 -0.0303  0.1289
  183DOPC  H12R22487   3.585   6.654  10.504 -1.1851  0.6645  1.1551
  183DOPC  H12S22488   3.592   6.470  10.501 -0.1001 -0.0204  1.8439
  183DOPC  C21322489   3.427   6.558  10.603 -0.8314  0.4795 -0.6713
  183DOPC  H13R22490   3.373   6.461  10.607  1.2864 -0.7631  2.2399
  183DOPC  H13S22491   3.347   6.634  10.592 -1.6339 -0.0886  0.8957
  183DOPC  C21422492   3.493   6.573  10.740 -0.4768  0.3323 -0.3859
  183DOPC  H14R22493   3.522   6.677  10.764  0.6942 -0.5047  2.2105
  183DOPC  H14S22494   3.589   6.518  10.748  0.7367  2.2923 -0.9498
  183DOPC  C21522495   3.403   6.534  10.875  0.3170 -0.6204 -0.0714
  183DOPC  H15R22496   3.404   6.423  10.869  0.0718 -0.6215 -0.0921
  183DOPC  H15S22497   3.301   6.569  10.851 -0.1679 -1.8498  0.1129
  183DOPC  C21622498   3.458   6.582  11.008  0.7634 -0.7211  0.6237
  183DOPC  H16R22499   3.396   6.546  11.093  1.5957 -1.1031  1.0936
  183DOPC  H16S22500   3.466   6.692  10.999  0.2476 -0.6255  1.2782
  183DOPC  C21722501   3.599   6.535  11.033 -0.5798 -0.5754 -0.5975
  183DOPC  H17R22502   3.664   6.577  10.953  1.0636 -2.9444 -0.6173
  183DOPC  H17S22503   3.606   6.424  11.031  2.6323 -0.6335  2.6279
  183DOPC  C21822504   3.650   6.586  11.172  0.7728 -0.0089  0.4241
  183DOPC  H18R22505   3.758   6.571  11.190  0.6239 -1.3314  0.2730
  183DOPC  H18S22506   3.583   6.547  11.251 -0.1280 -0.6325 -0.6061
  183DOPC  H18T22507   3.635   6.696  11.168  2.0359  0.2048  1.0488
  183DOPC   C3322508   3.958   6.490  10.113  0.0052 -0.0183 -0.2234
  183DOPC   H3X22509   4.026   6.577  10.115 -2.3069  1.8898  0.4554
  183DOPC   H3Y22510   4.012   6.393  10.118 -0.6831 -0.5329 -2.1214
  183DOPC   C3422511   3.890   6.496  10.250 -0.3831 -0.6912  0.2231
  183DOPC   H4X22512   3.808   6.421  10.250  0.4851 -1.6799  0.9513
  183DOPC   H4Y22513   3.839   6.593  10.263  0.9561 -0.0106  0.5557
  183DOPC   C3522514   3.981   6.490  10.369 -0.2811  0.1004  0.0648
  183DOPC   H5X22515   4.071   6.554  10.355  0.2034 -0.6584 -0.3059
  183DOPC   H5Y22516   4.016   6.386  10.387 -0.8332 -0.1272 -0.1679
  183DOPC   C3622517   3.913   6.536  10.501 -0.1968  0.7232 -0.2248
  183DOPC   H6X22518   3.866   6.635  10.479 -1.1559  0.1120 -1.0225
  183DOPC   H6Y22519   3.840   6.456  10.526  1.8450 -1.3744 -0.5775
  183DOPC   C3722520   4.010   6.557  10.628  0.4957  0.4042  0.3385
  183DOPC   H7X22521   4.046   6.453  10.639  0.3922 -0.0718 -2.8127
  183DOPC   H7Y22522   4.098   6.622  10.605  0.3848  0.6332  0.5521
  183DOPC   C3822523   3.931   6.621  10.740  0.2881 -0.0572  0.0314
  183DOPC   H8X22524   3.827   6.584  10.752 -0.1277  1.5684  2.0600
  183DOPC   H8Y22525   3.919   6.728  10.714 -0.7867 -0.1842 -0.0304
  183DOPC   C3922526   4.018   6.592  10.861 -0.0095 -0.3263 -0.1802
  183DOPC   H9X22527   4.007   6.497  10.915 -0.2757  0.4836  1.2313
  183DOPC  C31022528   4.105   6.679  10.922  0.0890  0.2096  0.1855
  183DOPC  H10X22529   4.151   6.653  11.019 -1.5159  0.0203  0.9189
  183DOPC  C31122530   4.139   6.813  10.870  0.6118 -0.0154 -0.6360
  183DOPC  H11X22531   4.085   6.898  10.917  1.5865  1.2846 -1.7670
  183DOPC  H11Y22532   4.120   6.821  10.761 -0.5086  0.3886 -0.4164
  183DOPC  C31222533   4.288   6.830  10.903  0.3066 -0.1791  0.3054
  183DOPC  H12X22534   4.348   6.752  10.851 -0.0915 -0.9289  0.9552
  183DOPC  H12Y22535   4.309   6.823  11.012  0.6089  0.3004  0.2825
  183DOPC  C31322536   4.351   6.955  10.839 -0.1410 -0.1334  0.0781
  183DOPC  H13X22537   4.461   6.961  10.852 -0.3770  3.7993  1.7930
  183DOPC  H13Y22538   4.335   6.936  10.731  0.2985  0.0242 -0.0197
  183DOPC  C31422539   4.298   7.092  10.873 -0.3579 -0.7030  0.3497
  183DOPC  H14X22540   4.357   7.171  10.821 -5.4819  2.4365 -1.4673
  183DOPC  H14Y22541   4.192   7.098  10.842 -0.5342  1.2515  1.2222
  183DOPC  C31522542   4.319   7.112  11.021  0.5552  0.1607  0.4011
  183DOPC  H15X22543   4.423   7.089  11.052  0.8176  1.7156  0.7395
  183DOPC  H15Y22544   4.253   7.040  11.074 -0.0787  1.3126  1.2110
  183DOPC  C31622545   4.282   7.257  11.052  0.5948  0.3405  0.1341
  183DOPC  H16X22546   4.363   7.320  11.012  2.0909 -1.1847  0.6339
  183DOPC  H16Y22547   4.185   7.289  11.009  0.1869  2.9326  2.6827
  183DOPC  C31722548   4.272   7.279  11.201 -0.3873 -0.0563  0.1656
  183DOPC  H17X22549   4.216   7.373  11.224 -0.8876  0.6368 -3.3137
  183DOPC  H17Y22550   4.213   7.200  11.253 -1.2237 -0.1283 -0.8472
  183DOPC  C31822551   4.412   7.297  11.265 -0.1717  0.1319  0.1325
  183DOPC  H18X22552   4.471   7.203  11.262 -0.1574  0.1658 -2.3011
  183DOPC  H18Y22553   4.467   7.375  11.209  0.9809 -0.3844  0.5148
  183DOPC  H18Z22554   4.392   7.334  11.368  1.8768  1.3428  0.1442
  184DOPC     N22555   6.693   1.375   8.088  0.3457 -0.4454  0.3766
  184DOPC   C1222556   6.751   1.383   8.229  0.3870 -0.0200 -0.0914
  184DOPC  H12A22557   6.717   1.295   8.282  0.3476 -0.4402 -0.8081
  184DOPC  H12B22558   6.707   1.470   8.275 -2.0480 -0.0276 -2.1855
  184DOPC   C1322559   6.724   1.503   8.017  0.2562  0.0343 -0.2259
  184DOPC  H13A22560   6.698   1.501   7.912  3.2859  0.1757 -1.0553
  184DOPC  H13B22561   6.678   1.589   8.064  1.5647  0.3093  0.5872
  184DOPC  H13C22562   6.831   1.517   8.020  0.0417  1.9747 -0.2752
  184DOPC   C1422563   6.546   1.365   8.101  0.2373  0.8187  0.5421
  184DOPC  H14A22564   6.511   1.448   8.161  2.3017  2.8599 -0.8722
  184DOPC  H14B22565   6.489   1.369   8.009 -1.5872  0.4793  1.6159
  184DOPC  H14C22566   6.509   1.276   8.150  0.5455 -0.4525 -1.4138
  184DOPC   C1522567   6.742   1.256   8.014 -0.1487  0.2473  0.0445
  184DOPC  H15A22568   6.712   1.161   8.056  0.0499  0.0023 -0.3677
  184DOPC  H15B22569   6.848   1.253   7.993 -0.4456  3.0844 -2.6361
  184DOPC  H15C22570   6.691   1.269   7.920  1.3783 -0.7475 -0.9850
  184DOPC   C1122571   6.901   1.401   8.238 -0.1459 -0.6138  0.4516
  184DOPC  H11A22572   6.954   1.367   8.330  1.6444 -0.7652 -0.5686
  184DOPC  H11B22573   6.942   1.338   8.155  3.1642  2.1755 -0.2860
  184DOPC     P22574   6.897   1.643   8.328  0.0446 -0.2356  0.1015
  184DOPC   O1322575   6.747   1.667   8.327  0.1834 -0.6954  0.0273
  184DOPC   O1422576   6.982   1.761   8.307  0.0492  0.6682 -0.1201
  184DOPC   O1222577   6.941   1.541   8.211 -0.2730  0.8857  0.0320
  184DOPC   O1122578   6.923   1.569   8.462 -0.0276  0.4388  0.0091
  184DOPC    C122579   7.023   1.613   8.550 -0.5061 -0.2128 -0.3272
  184DOPC    HA22580   7.022   1.724   8.565  0.8181 -0.0285 -1.4288
  184DOPC    HB22581   7.126   1.589   8.515 -0.3939 -0.8667  0.4177
  184DOPC    C222582   7.002   1.547   8.690 -0.9059  0.4436  0.9081
  184DOPC    HS22583   7.047   1.613   8.767 -0.6483  0.0087  1.1394
  184DOPC   O2122584   7.064   1.409   8.688 -0.0128 -0.5095 -0.4653
  184DOPC   C2122585   7.192   1.416   8.718  0.0803  0.0787  0.4857
  184DOPC   O2222586   7.253   1.514   8.751  0.1488  0.8212  0.4426
  184DOPC   C2222587   7.252   1.282   8.713  0.5143 -0.2267 -0.1167
  184DOPC   H2R22588   7.363   1.281   8.708  0.4652 -1.3810 -2.5647
  184DOPC   H2S22589   7.221   1.228   8.621 -0.3163 -1.8018  1.0495
  184DOPC    C322590   6.860   1.535   8.741 -0.3493  0.3125 -0.3765
  184DOPC    HX22591   6.807   1.476   8.663 -2.6128  2.1556 -0.3518
  184DOPC    HY22592   6.825   1.640   8.740  1.7970  1.1326  1.6568
  184DOPC   O3122593   6.858   1.481   8.877  0.1933  0.0367  0.0132
  184DOPC   C3122594   6.874   1.562   8.980  0.0924 -0.1547  0.7348
  184DOPC   O3222595   6.863   1.684   8.973  0.0510 -0.0585  0.1866
  184DOPC   C3222596   6.898   1.472   9.100 -0.1513 -0.0630  0.1507
  184DOPC   H2X22597   6.814   1.400   9.086  0.6632 -1.1056  0.5254
  184DOPC   H2Y22598   6.999   1.427   9.102  0.3919  1.1261  0.4566
  184DOPC   C2322599   7.214   1.192   8.827 -0.2660  0.1572 -0.0784
  184DOPC   H3R22600   7.271   1.097   8.825 -1.2272 -0.4521  0.3515
  184DOPC   H3S22601   7.106   1.166   8.825 -0.4371  0.8661 -0.3029
  184DOPC   C2422602   7.242   1.242   8.964 -0.3021  0.6725 -0.3980
  184DOPC   H4R22603   7.176   1.330   8.982  0.1625  0.7653  1.0080
  184DOPC   H4S22604   7.347   1.274   8.983 -1.1861  3.2645  0.5318
  184DOPC   C2522605   7.214   1.135   9.076 -0.2970 -0.4043 -0.1982
  184DOPC   H5R22606   7.282   1.049   9.059 -0.3390 -0.3580 -0.5977
  184DOPC   H5S22607   7.109   1.100   9.064  0.0358 -1.3391 -0.5092
  184DOPC   C2622608   7.245   1.174   9.225  0.9117  0.0657 -0.1733
  184DOPC   H6R22609   7.184   1.263   9.247  1.1092  0.3244 -0.6517
  184DOPC   H6S22610   7.356   1.180   9.235  1.2675 -2.6009 -1.5020
  184DOPC   C2722611   7.197   1.059   9.320  0.0217  0.0416 -0.6814
  184DOPC   H7R22612   7.231   0.957   9.290  1.5564 -0.0211  1.0650
  184DOPC   H7S22613   7.087   1.045   9.313  0.3792 -3.2884 -1.4899
  184DOPC   C2822614   7.230   1.095   9.465  1.1342 -0.0187  0.5901
  184DOPC   H8R22615   7.196   1.195   9.499  0.1736 -0.5645  1.2666
  184DOPC   H8S22616   7.341   1.083   9.465  0.9445 -2.3386 -0.3714
  184DOPC   C2922617   7.166   1.003   9.566  1.0141 -0.0881  0.0983
  184DOPC   H9R22618   7.064   0.984   9.530  0.9238  0.9270 -0.2206
  184DOPC  C21022619   7.223   0.968   9.679  0.1109 -0.2908  0.5960
  184DOPC  H10R22620   7.172   0.898   9.747 -0.4738 -0.0533  0.4158
  184DOPC  C21122621   7.355   1.019   9.718 -0.0730 -0.2910 -0.4291
  184DOPC  H11R22622   7.375   1.116   9.667 -2.7432  0.4646 -0.2155
  184DOPC  H11S22623   7.437   0.947   9.698  1.7846  0.8488  2.3546
  184DOPC  C21222624   7.380   1.046   9.868  0.1857  0.6242  0.0358
  184DOPC  H12R22625   7.332   1.138   9.908 -1.1444 -1.1060  2.7158
  184DOPC  H12S22626   7.490   1.050   9.883  0.1387  1.5646  0.1907
  184DOPC  C21322627   7.327   0.931   9.962 -0.2831  0.9472 -0.7038
  184DOPC  H13R22628   7.377   0.833   9.946  0.8766  0.7231  3.2372
  184DOPC  H13S22629   7.220   0.915   9.934 -0.5461  3.4228 -1.3207
  184DOPC  C21422630   7.345   0.951  10.113 -0.1978 -1.0462 -1.0769
  184DOPC  H14R22631   7.447   0.995  10.112 -1.0159  0.9662 -2.3342
  184DOPC  H14S22632   7.346   0.853  10.166 -0.3835 -2.3636 -3.3981
  184DOPC  C21522633   7.266   1.063  10.178  0.6728  0.5319 -0.3701
  184DOPC  H15R22634   7.160   1.033  10.163 -0.0265  1.7602  1.8136
  184DOPC  H15S22635   7.297   1.163  10.140  0.1652  0.6437 -0.4997
  184DOPC  C21622636   7.271   1.065  10.331 -0.0724 -0.3310  0.2186
  184DOPC  H16R22637   7.375   1.044  10.361 -0.1409 -0.0756  0.6416
  184DOPC  H16S22638   7.202   0.983  10.362 -0.1610 -0.9193 -1.4490
  184DOPC  C21722639   7.226   1.200  10.384 -0.2085  0.6907  0.2147
  184DOPC  H17R22640   7.129   1.228  10.338  0.2377  2.9172  0.5332
  184DOPC  H17S22641   7.304   1.273  10.353  1.4453 -1.1338 -0.1250
  184DOPC  C21822642   7.201   1.197  10.534 -0.4888  0.0990 -0.4145
  184DOPC  H18R22643   7.160   1.099  10.567 -0.0985  0.2679  0.6039
  184DOPC  H18S22644   7.117   1.261  10.567  0.6857 -0.3269  4.0198
  184DOPC  H18T22645   7.293   1.229  10.587  0.8608 -0.7871 -2.1041
  184DOPC   C3322646   6.878   1.540   9.241 -0.3584 -1.0678  0.0722
  184DOPC   H3X22647   6.782   1.597   9.244 -1.1954 -2.4622  2.0360
  184DOPC   H3Y22648   6.955   1.620   9.243 -0.8661 -0.3125 -3.6088
  184DOPC   C3422649   6.881   1.447   9.362  1.0296 -0.1439  0.0391
  184DOPC   H4X22650   6.920   1.346   9.339  2.1234  0.8148 -2.8331
  184DOPC   H4Y22651   6.774   1.443   9.391  0.4174  2.0451 -1.6162
  184DOPC   C3522652   6.958   1.492   9.487  0.4578  0.0916 -0.1104
  184DOPC   H5X22653   7.063   1.500   9.451  0.2179 -1.0542 -1.1412
  184DOPC   H5Y22654   6.948   1.417   9.568 -0.0812 -2.1619 -2.1635
  184DOPC   C3622655   6.901   1.626   9.556  0.6798  0.0660 -0.9739
  184DOPC   H6X22656   6.891   1.699   9.473 -4.5136  0.9809  0.0991
  184DOPC   H6Y22657   6.800   1.602   9.597  1.1179 -2.3603 -1.1935
  184DOPC   C3722658   6.994   1.686   9.664 -0.2247 -0.2782 -0.3752
  184DOPC   H7X22659   6.993   1.626   9.757  2.8482 -0.3280 -0.2759
  184DOPC   H7Y22660   7.103   1.681   9.643  0.2146 -0.2069  1.6790
  184DOPC   C3822661   6.959   1.836   9.695 -0.2177  0.3047 -0.3773
  184DOPC   H8X22662   6.880   1.841   9.773 -2.0748 -0.3661 -2.1175
  184DOPC   H8Y22663   6.911   1.867   9.599 -0.9121 -1.2190 -0.5625
  184DOPC   C3922664   7.073   1.927   9.738  0.2967  0.4269 -0.6974
  184DOPC   H9X22665   7.102   2.007   9.669  0.0743  0.2628 -0.9839
  184DOPC  C31022666   7.144   1.916   9.857  0.5561 -0.7556  0.3490
  184DOPC  H10X22667   7.225   1.987   9.876  2.4814 -3.0628  1.3252
  184DOPC  C31122668   7.091   1.830   9.973 -0.3895  0.2874  0.6549
  184DOPC  H11X22669   7.148   1.735   9.974  0.4224  0.7600  0.6153
  184DOPC  H11Y22670   6.982   1.812   9.960  0.0145 -0.9105 -1.5248
  184DOPC  C31222671   7.100   1.900  10.106  0.1605  0.0859 -0.0427
  184DOPC  H12X22672   7.060   2.004  10.099  0.1712  0.1868  1.1496
  184DOPC  H12Y22673   7.204   1.915  10.142 -0.0568 -0.0364  0.6596
  184DOPC  C31322674   7.026   1.828  10.217  0.0356  0.6527  0.0886
  184DOPC  H13X22675   6.921   1.820  10.183 -0.1371  3.3865 -0.3023
  184DOPC  H13Y22676   7.061   1.725  10.239  0.4794  0.6728 -0.5163
  184DOPC  C31422677   7.037   1.920  10.342 -0.5090 -0.1761 -0.5894
  184DOPC  H14X22678   7.140   1.949  10.373 -0.5352 -0.9607  0.2754
  184DOPC  H14Y22679   7.003   2.018  10.302 -3.3267 -1.2581 -1.0514
  184DOPC  C31522680   6.943   1.882  10.458 -0.7086  0.1561  0.0225
  184DOPC  H15X22681   6.845   1.855  10.413 -0.0294  0.5401 -1.7647
  184DOPC  H15Y22682   6.918   1.974  10.515  1.2510  2.5748 -2.6965
  184DOPC  C31622683   6.997   1.784  10.562  0.0677 -0.2695  0.5702
  184DOPC  H16X22684   7.094   1.821  10.602  0.6477 -0.1404 -0.9026
  184DOPC  H16Y22685   6.916   1.767  10.637  0.0090 -0.6370  0.4254
  184DOPC  C31722686   7.035   1.654  10.486 -0.1148  0.0053 -0.1715
  184DOPC  H17X22687   6.956   1.622  10.414 -0.1154 -0.8200  0.1770
  184DOPC  H17Y22688   7.126   1.664  10.424  0.2147 -2.1869 -0.1139
  184DOPC  C31822689   7.073   1.548  10.590 -0.0847  0.4786  0.2117
  184DOPC  H18X22690   6.996   1.535  10.669 -0.9047 -0.3192 -0.6881
  184DOPC  H18Y22691   7.096   1.452  10.538  0.0332  0.4413  0.3327
  184DOPC  H18Z22692   7.167   1.583  10.638 -0.1185  0.9311 -0.0441
  185DOPC     N22693   2.486   6.037   8.540 -0.4963  0.3488 -0.1190
  185DOPC   C1222694   2.443   6.100   8.671  0.1864 -0.0369  0.9306
  185DOPC  H12A22695   2.454   6.025   8.748  0.5878  0.0343  0.9480
  185DOPC  H12B22696   2.344   6.140   8.653  0.3896 -0.5845 -1.7791
  185DOPC   C1322697   2.456   6.126   8.423 -0.1456  0.0595 -0.8236
  185DOPC  H13A22698   2.495   6.226   8.441 -0.0848 -0.2535  0.9608
  185DOPC  H13B22699   2.491   6.079   8.332  1.0492 -1.7455  0.5120
  185DOPC  H13C22700   2.349   6.129   8.413 -0.3345 -1.1366  0.6264
  185DOPC   C1422701   2.410   5.906   8.508 -0.1510  0.5127  0.2231
  185DOPC  H14A22702   2.419   5.838   8.592  0.1474  0.6991  0.3435
  185DOPC  H14B22703   2.308   5.940   8.499  0.0468  1.3285  0.8874
  185DOPC  H14C22704   2.448   5.861   8.418  0.5780  0.4722  0.5401
  185DOPC   C1522705   2.628   6.004   8.541 -0.9030 -0.6242 -0.4452
  185DOPC  H15A22706   2.648   5.927   8.614  1.7004 -1.8364 -2.2538
  185DOPC  H15B22707   2.683   6.092   8.569 -0.5971 -0.6688 -0.9027
  185DOPC  H15C22708   2.658   5.971   8.442  2.2491 -1.6919  0.7435
  185DOPC   C1122709   2.537   6.216   8.725 -0.0472  0.0614  0.2614
  185DOPC  H11A22710   2.498   6.260   8.819  0.9837 -0.7441  1.0935
  185DOPC  H11B22711   2.634   6.166   8.747 -1.7463 -1.9356  3.8560
  185DOPC     P22712   2.651   6.429   8.635 -0.6596 -0.1525  0.3175
  185DOPC   O1322713   2.628   6.528   8.523 -0.3952 -0.0715  0.1685
  185DOPC   O1422714   2.791   6.371   8.647 -0.1737 -0.3278 -0.2696
  185DOPC   O1222715   2.546   6.320   8.624  0.2896  0.0668  0.2457
  185DOPC   O1122716   2.622   6.495   8.774  0.3075  0.3693 -0.1403
  185DOPC    C122717   2.669   6.630   8.802 -0.3977  0.0458  0.0261
  185DOPC    HA22718   2.619   6.701   8.734 -2.0228 -0.8050  0.2665
  185DOPC    HB22719   2.777   6.639   8.779 -1.0368  3.3847 -2.2196
  185DOPC    C222720   2.638   6.683   8.942  0.0680  0.6418 -0.6694
  185DOPC    HS22721   2.671   6.789   8.950  2.7730 -0.2513  1.5186
  185DOPC   O2122722   2.695   6.609   9.049 -0.4815 -0.3401 -0.4757
  185DOPC   C2122723   2.829   6.596   9.048  0.0337  0.7035 -0.1021
  185DOPC   O2222724   2.905   6.670   8.992 -0.2804 -0.5390  0.1408
  185DOPC   C2222725   2.882   6.500   9.153  0.1612 -0.8153  0.1673
  185DOPC   H2R22726   2.989   6.478   9.133 -0.2868 -1.7626 -1.3382
  185DOPC   H2S22727   2.820   6.408   9.161  1.5506 -1.7136  1.2119
  185DOPC    C322728   2.481   6.686   8.960 -0.4887 -0.2262  0.0246
  185DOPC    HX22729   2.444   6.582   8.946  0.3371 -0.4326 -0.7327
  185DOPC    HY22730   2.441   6.758   8.886 -1.0941  0.6156  1.1492
  185DOPC   O3122731   2.426   6.725   9.094 -0.4525 -0.8152  0.1190
  185DOPC   C3122732   2.442   6.858   9.121 -0.1336 -0.3256  0.2355
  185DOPC   O3222733   2.484   6.934   9.032  0.4373 -0.3317  0.2378
  185DOPC   C3222734   2.389   6.895   9.252  0.3934  0.3660 -0.0759
  185DOPC   H2X22735   2.282   6.865   9.248  0.7978 -1.5428  1.6344
  185DOPC   H2Y22736   2.444   6.837   9.329  0.6233  1.3442  0.5140
  185DOPC   C2322737   2.874   6.571   9.297  0.1769  0.6814  0.0582
  185DOPC   H3R22738   2.929   6.668   9.290  1.4754 -0.0126  0.3618
  185DOPC   H3S22739   2.930   6.514   9.373 -1.9911  0.5347  1.6483
  185DOPC   C2422740   2.730   6.597   9.350  0.1759  0.2098 -0.3034
  185DOPC   H4R22741   2.677   6.499   9.356  1.6996 -1.1141 -4.3506
  185DOPC   H4S22742   2.694   6.661   9.267  1.7559  0.2984 -0.9623
  185DOPC   C2522743   2.720   6.672   9.483 -0.0264  0.1481 -0.8348
  185DOPC   H5R22744   2.617   6.710   9.501  0.7524  1.0613  2.4042
  185DOPC   H5S22745   2.785   6.762   9.481 -0.2614  0.3277 -0.5812
  185DOPC   C2622746   2.768   6.585   9.602 -0.1783 -0.1297  0.0229
  185DOPC   H6R22747   2.871   6.551   9.582  0.1252  1.1689 -0.7234
  185DOPC   H6S22748   2.695   6.502   9.615  0.2132 -0.5562 -0.4621
  185DOPC   C2722749   2.749   6.669   9.729  0.1976  0.4071  0.1220
  185DOPC   H7R22750   2.639   6.684   9.732  0.0169 -0.1571 -2.1792
  185DOPC   H7S22751   2.799   6.767   9.719  1.1244 -0.0096  0.4940
  185DOPC   C2822752   2.809   6.605   9.859  0.4096 -0.1476  0.1459
  185DOPC   H8R22753   2.895   6.543   9.824 -0.3554 -1.0582 -0.1549
  185DOPC   H8S22754   2.737   6.532   9.900  0.2458 -0.7394 -1.1448
  185DOPC   C2922755   2.860   6.710   9.954 -0.6601 -0.6461 -0.2826
  185DOPC   H9R22756   2.908   6.798   9.909  1.7431 -0.0667  3.0215
  185DOPC  C21022757   2.886   6.705  10.087 -0.1507  0.8247  0.9804
  185DOPC  H10R22758   2.941   6.793  10.121  0.5679  1.5846 -1.9067
  185DOPC  C21122759   2.872   6.589  10.185  0.2802 -0.5187  0.3442
  185DOPC  H11R22760   2.837   6.500  10.129  2.3515 -0.7750 -0.6473
  185DOPC  H11S22761   2.794   6.610  10.262 -0.2078 -0.8945 -0.0434
  185DOPC  C21222762   3.013   6.559  10.239 -0.0302  0.4683 -0.6062
  185DOPC  H12R22763   3.065   6.650  10.275 -2.3060  3.3192 -3.8909
  185DOPC  H12S22764   3.070   6.520  10.152  1.3080  1.7483 -0.3394
  185DOPC  C21322765   3.008   6.456  10.355  0.0723  0.0176  0.3076
  185DOPC  H13R22766   3.111   6.417  10.372  0.0052 -1.3233 -1.9358
  185DOPC  H13S22767   2.948   6.373  10.313 -0.4649  1.0570 -1.0500
  185DOPC  C21422768   2.944   6.498  10.492 -0.5747  0.6529  0.8117
  185DOPC  H14R22769   2.956   6.406  10.553  2.5360  1.1480  1.1216
  185DOPC  H14S22770   2.835   6.505  10.471 -1.0944 -0.3718  2.8456
  185DOPC  C21522771   2.990   6.618  10.572 -0.5648 -0.2531  0.7822
  185DOPC  H15R22772   2.998   6.710  10.510  4.0967  0.2042  1.6604
  185DOPC  H15S22773   3.089   6.584  10.609 -0.0183 -1.3888 -1.5123
  185DOPC  C21622774   2.904   6.651  10.690  0.2663  0.6296 -0.6437
  185DOPC  H16R22775   2.922   6.567  10.760 -0.3301  0.9399 -0.1148
  185DOPC  H16S22776   2.794   6.662  10.680  0.1940  0.3435 -0.2102
  185DOPC  C21722777   2.952   6.772  10.779 -0.2230  0.8112 -0.2892
  185DOPC  H17R22778   2.929   6.872  10.738  1.0893  1.9461  1.6136
  185DOPC  H17S22779   3.062   6.768  10.794 -0.1112  0.5022 -1.1280
  185DOPC  C21822780   2.875   6.765  10.911  0.0348 -0.6742  0.2337
  185DOPC  H18R22781   2.855   6.862  10.962 -0.6933 -0.5592 -0.2564
  185DOPC  H18S22782   2.934   6.700  10.979 -0.6787 -1.2645  0.3116
  185DOPC  H18T22783   2.771   6.730  10.889  0.1284  0.4785 -2.4990
  185DOPC   C3322784   2.410   7.049   9.294  0.3789 -0.4195  0.0937
  185DOPC   H3X22785   2.364   7.121   9.223 -0.1933 -0.9637 -0.0984
  185DOPC   H3Y22786   2.516   7.078   9.278  1.0418 -2.4209  0.5709
  185DOPC   C3422787   2.358   7.087   9.439 -0.0962  0.0984  0.1277
  185DOPC   H4X22788   2.402   7.018   9.514  2.1188  0.6730 -0.5737
  185DOPC   H4Y22789   2.250   7.066   9.428 -0.1898  1.4987 -2.4858
  185DOPC   C3522790   2.387   7.234   9.491 -0.0787  0.2731  0.3845
  185DOPC   H5X22791   2.334   7.304   9.423 -0.5597 -0.2194  0.2440
  185DOPC   H5Y22792   2.498   7.243   9.482 -0.2461  0.8666 -1.6127
  185DOPC   C3622793   2.344   7.257   9.631  0.3927  0.2296 -0.4172
  185DOPC   H6X22794   2.234   7.263   9.640  0.4613  1.8224 -0.4737
  185DOPC   H6Y22795   2.375   7.177   9.703 -0.1533  0.8135  0.4851
  185DOPC   C3722796   2.398   7.394   9.679 -0.1587 -0.2781 -0.0364
  185DOPC   H7X22797   2.507   7.382   9.696 -0.4087 -2.0820  0.5489
  185DOPC   H7Y22798   2.382   7.475   9.606  1.2044  0.8411  0.8577
  185DOPC   C3822799   2.334   7.438   9.813 -0.3114  0.4184  0.7919
  185DOPC   H8X22800   2.334   7.356   9.887 -2.8087 -0.6501 -0.2705
  185DOPC   H8Y22801   2.229   7.469   9.792 -0.8794 -1.7836  0.1484
  185DOPC   C3922802   2.412   7.560   9.862 -0.4334  0.4393  0.4458
  185DOPC   H9X22803   2.421   7.644   9.791  1.8445  0.3359  0.5253
  185DOPC  C31022804   2.455   7.584   9.987  0.0217 -0.0314 -0.3803
  185DOPC  H10X22805   2.513   7.676  10.005 -0.4465  0.5729 -1.7819
  185DOPC  C31122806   2.455   7.488  10.105  0.4388 -1.2216  0.3051
  185DOPC  H11X22807   2.515   7.397  10.085 -0.5311 -1.9713  0.6865
  185DOPC  H11Y22808   2.350   7.452  10.112  0.0854 -0.2626  0.1647
  185DOPC  C31222809   2.497   7.544  10.247 -0.1167 -0.3449  1.0065
  185DOPC  H12X22810   2.423   7.615  10.290  0.4628  0.1920  1.1434
  185DOPC  H12Y22811   2.586   7.610  10.239 -0.1113 -0.3308  1.1819
  185DOPC  C31322812   2.527   7.427  10.341 -0.0631 -0.2956  0.0101
  185DOPC  H13X22813   2.429   7.382  10.368 -0.4476  0.9541  0.7873
  185DOPC  H13Y22814   2.587   7.349  10.291 -1.9979 -1.5055 -0.5521
  185DOPC  C31422815   2.602   7.472  10.465 -0.1565 -0.3913  0.3502
  185DOPC  H14X22816   2.647   7.376  10.499  0.7136  0.5155  1.8877
  185DOPC  H14Y22817   2.686   7.540  10.439 -0.6220 -0.5571 -1.7907
  185DOPC  C31522818   2.515   7.534  10.574 -0.4620 -0.3092 -0.1645
  185DOPC  H15X22819   2.422   7.475  10.585  0.1171 -1.1678  0.2160
  185DOPC  H15Y22820   2.480   7.633  10.537 -1.4237 -0.4639  0.2908
  185DOPC  C31622821   2.597   7.563  10.700  0.6026  0.2442 -0.2331
  185DOPC  H16X22822   2.644   7.468  10.734 -0.5456 -0.5354 -0.7565
  185DOPC  H16Y22823   2.676   7.638  10.678  1.1808  0.0491  1.0928
  185DOPC  C31722824   2.523   7.627  10.818 -0.1801 -0.0332 -0.7851
  185DOPC  H17X22825   2.477   7.726  10.797 -0.0799  0.0356 -0.6825
  185DOPC  H17Y22826   2.454   7.552  10.863  0.1845  1.0216  1.6876
  185DOPC  C31822827   2.620   7.662  10.931 -1.1678 -0.6178  0.3539
  185DOPC  H18X22828   2.695   7.735  10.893 -3.2288  0.8786 -1.0068
  185DOPC  H18Y22829   2.559   7.718  11.006 -0.6820  0.8884 -0.3315
  185DOPC  H18Z22830   2.674   7.577  10.979  0.6823  1.2335  1.7648
  186DOPC     N22831   2.388   4.491   9.487  0.1147 -0.1858  0.4242
  186DOPC   C1222832   2.466   4.395   9.568 -0.0824 -0.0365 -0.0663
  186DOPC  H12A22833   2.456   4.431   9.669 -3.2145 -0.6612 -0.0312
  186DOPC  H12B22834   2.571   4.404   9.545  0.2852 -1.5841  0.9007
  186DOPC   C1322835   2.387   4.445   9.346  0.4287  0.5190  0.4640
  186DOPC  H13A22836   2.354   4.342   9.340 -1.2476  1.0822 -0.8932
  186DOPC  H13B22837   2.325   4.499   9.275 -0.3369 -0.5867  0.2645
  186DOPC  H13C22838   2.483   4.458   9.299 -0.3096  1.2251 -0.9149
  186DOPC   C1422839   2.441   4.638   9.488 -0.0354  0.7420 -0.2222
  186DOPC  H14A22840   2.410   4.693   9.576  1.7919 -0.4831  1.2968
  186DOPC  H14B22841   2.548   4.651   9.477 -0.0967  2.0376  0.4178
  186DOPC  H14C22842   2.407   4.700   9.407  2.1758  0.5671 -1.3669
  186DOPC   C1522843   2.253   4.513   9.543  0.3756  0.1987  0.3180
  186DOPC  H15A22844   2.190   4.556   9.466  1.2559 -1.1912 -1.2591
  186DOPC  H15B22845   2.267   4.562   9.638  0.3763 -0.2097  0.5320
  186DOPC  H15C22846   2.196   4.423   9.557 -0.7761  1.0660  1.4662
  186DOPC   C1122847   2.427   4.244   9.563  0.3598  1.0043  0.3470
  186DOPC  H11A22848   2.490   4.181   9.630 -1.3928 -0.7185  0.4654
  186DOPC  H11B22849   2.322   4.242   9.599 -0.4957 -1.0157 -1.9722
  186DOPC     P22850   2.423   4.039   9.401  0.2837 -0.1414  0.1731
  186DOPC   O1322851   2.554   3.968   9.416  0.6304 -0.4816  0.3075
  186DOPC   O1422852   2.368   4.023   9.265 -0.5930  0.1327  0.0989
  186DOPC   O1222853   2.443   4.191   9.431 -0.2313 -0.6599  0.2073
  186DOPC   O1122854   2.319   3.999   9.511 -0.2310 -0.4230  0.0970
  186DOPC    C122855   2.238   3.882   9.507 -0.1920  0.4323 -0.0938
  186DOPC    HA22856   2.297   3.790   9.487 -1.9555 -0.7295 -0.1152
  186DOPC    HB22857   2.157   3.888   9.432 -1.0131 -0.3809  0.7006
  186DOPC    C222858   2.184   3.844   9.651 -0.6090  0.2528  0.3784
  186DOPC    HS22859   2.189   3.938   9.710 -0.6973  0.0232  0.7505
  186DOPC   O2122860   2.271   3.750   9.718 -0.2759  0.5519 -0.1769
  186DOPC   C2122861   2.389   3.795   9.758 -0.0357  0.6626  0.0618
  186DOPC   O2222862   2.416   3.914   9.765 -0.3758  0.4979 -0.7362
  186DOPC   C2222863   2.484   3.686   9.794 -0.2239 -0.4131 -0.2875
  186DOPC   H2R22864   2.538   3.670   9.699 -1.9082 -0.6385 -1.2551
  186DOPC   H2S22865   2.419   3.600   9.823  0.0696 -0.7446 -0.6133
  186DOPC    C322866   2.035   3.799   9.646  0.1774  0.3362  0.4613
  186DOPC    HX22867   2.034   3.727   9.562  2.3222  1.5158 -0.6761
  186DOPC    HY22868   1.965   3.880   9.615  3.0696  2.3752 -1.2716
  186DOPC   O3122869   1.990   3.738   9.770  0.0855 -0.1876  0.2357
  186DOPC   C3122870   1.957   3.804   9.872 -0.2745  0.4596 -0.2573
  186DOPC   O3222871   1.952   3.925   9.882 -0.1058 -0.3887  0.0911
  186DOPC   C3222872   1.935   3.710   9.990 -0.3876  0.1643  0.4785
  186DOPC   H2X22873   1.827   3.685   9.987 -1.5907  4.5465 -0.4237
  186DOPC   H2Y22874   2.009   3.628   9.977 -0.5337 -0.0009  0.6856
  186DOPC   C2322875   2.578   3.711   9.919  0.9357 -0.0774  0.6071
  186DOPC   H3R22876   2.645   3.796   9.896 -0.0009  0.3102 -0.8050
  186DOPC   H3S22877   2.633   3.615   9.930  0.1024 -0.4971  1.2747
  186DOPC   C2422878   2.507   3.719  10.060 -0.3262 -0.3147 -0.5421
  186DOPC   H4R22879   2.470   3.824  10.058 -0.5749 -0.3061  1.9870
  186DOPC   H4S22880   2.572   3.709  10.149 -1.1500 -0.2716  0.0700
  186DOPC   C2522881   2.392   3.627  10.089  0.9414  0.1880  0.2848
  186DOPC   H5R22882   2.410   3.528  10.041  0.5523  1.4412 -2.6747
  186DOPC   H5S22883   2.303   3.681  10.052  0.7280  1.3679  2.3658
  186DOPC   C2622884   2.355   3.607  10.239  0.0828 -0.3320 -0.5494
  186DOPC   H6R22885   2.253   3.564  10.242 -1.1893  2.4787 -0.9223
  186DOPC   H6S22886   2.342   3.707  10.284  1.9966  0.4248 -1.5700
  186DOPC   C2722887   2.451   3.520  10.328 -0.3380  0.0951  0.5557
  186DOPC   H7R22888   2.559   3.546  10.320  0.0515 -1.8021 -1.1117
  186DOPC   H7S22889   2.450   3.415  10.291 -3.2964 -0.5863  2.2177
  186DOPC   C2822890   2.408   3.508  10.480  0.1851  0.4225 -0.5371
  186DOPC   H8R22891   2.313   3.451  10.486  0.1898  0.3556 -1.0336
  186DOPC   H8S22892   2.377   3.608  10.514 -1.5605  0.1823 -1.3256
  186DOPC   C2922893   2.512   3.457  10.575 -0.6223 -0.6494 -0.5229
  186DOPC   H9R22894   2.612   3.444  10.533 -0.1051 -0.4640  0.6095
  186DOPC  C21022895   2.502   3.450  10.708 -0.5886  0.3550  0.1095
  186DOPC  H10R22896   2.588   3.410  10.763 -0.4135 -0.1108 -0.4861
  186DOPC  C21122897   2.379   3.487  10.796  0.2372  0.4324 -0.2469
  186DOPC  H11R22898   2.308   3.548  10.736 -0.2794 -0.6057 -0.7197
  186DOPC  H11S22899   2.416   3.551  10.879  0.2401  2.2185 -1.5748
  186DOPC  C21222900   2.298   3.373  10.864  0.6046 -0.3350  0.2965
  186DOPC  H12R22901   2.247   3.315  10.784 -0.5343  2.1939 -0.9264
  186DOPC  H12S22902   2.211   3.427  10.907 -0.9606 -0.2525 -2.6656
  186DOPC  C21322903   2.365   3.291  10.964 -0.1591 -0.4571 -0.3610
  186DOPC  H13R22904   2.384   3.327  11.067 -0.1446 -2.6488  0.4660
  186DOPC  H13S22905   2.465   3.270  10.920  0.1681  0.2634  0.0328
  186DOPC  C21422906   2.310   3.152  10.996  0.1486  0.6651  0.9510
  186DOPC  H14R22907   2.200   3.158  11.005  0.0200 -0.4415  0.3267
  186DOPC  H14S22908   2.337   3.109  11.095  1.7983  3.0765  1.6169
  186DOPC  C21522909   2.340   3.045  10.885  0.1683 -0.5316  0.0009
  186DOPC  H15R22910   2.448   3.022  10.883  0.8065  1.8515  1.8079
  186DOPC  H15S22911   2.309   3.091  10.789  1.1599  0.1959  0.0078
  186DOPC  C21622912   2.252   2.921  10.901  0.3218  0.3465  0.6062
  186DOPC  H16R22913   2.152   2.962  10.926  0.3186 -0.0112  1.1925
  186DOPC  H16S22914   2.282   2.867  10.993  0.8621  0.6268  0.6003
  186DOPC  C21722915   2.253   2.836  10.776 -0.2045  0.1547  0.0096
  186DOPC  H17R22916   2.208   2.896  10.694  0.7488 -0.1768 -0.7763
  186DOPC  H17S22917   2.184   2.749  10.784 -0.6392  0.3523 -1.3962
  186DOPC  C21822918   2.389   2.785  10.731 -0.2116 -0.2794  0.0586
  186DOPC  H18R22919   2.449   2.757  10.820  1.3988  0.8246 -0.6355
  186DOPC  H18S22920   2.445   2.861  10.672 -1.2071  0.9201  0.6277
  186DOPC  H18T22921   2.371   2.692  10.672 -0.0860 -1.9751  2.5391
  186DOPC   C3322922   1.962   3.779  10.126  0.4813 -0.5222 -0.0451
  186DOPC   H3X22923   1.886   3.858  10.142  0.1912 -1.2638  2.7861
  186DOPC   H3Y22924   2.056   3.838  10.137  0.8022 -1.0211 -0.0604
  186DOPC   C3422925   1.963   3.683  10.245 -0.2740 -0.6742  0.6307
  186DOPC   H4X22926   2.061   3.633  10.233 -0.0304 -0.3704  1.2993
  186DOPC   H4Y22927   1.882   3.609  10.226 -0.7590  0.2916 -1.3622
  186DOPC   C3522928   1.939   3.741  10.383  0.0989  0.1975 -0.1433
  186DOPC   H5X22929   1.833   3.769  10.401  0.9295  1.5650  3.7693
  186DOPC   H5Y22930   2.006   3.824  10.415  1.2921 -1.1443  0.9513
  186DOPC   C3622931   1.955   3.629  10.490 -0.5302  0.1885  0.5081
  186DOPC   H6X22932   1.892   3.541  10.464 -2.6772  0.6653  3.5001
  186DOPC   H6Y22933   2.065   3.614  10.493 -0.6482 -1.8856 -2.1581
  186DOPC   C3722934   1.918   3.680  10.635  0.1765  0.4793 -0.3517
  186DOPC   H7X22935   1.909   3.790  10.627 -0.2876  0.4656 -0.0639
  186DOPC   H7Y22936   1.815   3.645  10.656  0.9064 -0.7858  1.2838
  186DOPC   C3822937   2.021   3.646  10.742  0.7086  0.2556 -0.0607
  186DOPC   H8X22938   2.120   3.665  10.694  0.7035  1.8868  0.5246
  186DOPC   H8Y22939   2.013   3.535  10.750 -1.7650  0.3581 -0.3111
  186DOPC   C3922940   2.014   3.720  10.869 -0.5663 -0.2212 -0.4133
  186DOPC   H9X22941   2.021   3.829  10.864  0.4000 -0.3278 -2.0720
  186DOPC  C31022942   1.988   3.654  10.988 -0.4666  0.1995 -0.1624
  186DOPC  H10X22943   1.990   3.711  11.081 -2.0009 -0.5950  0.3823
  186DOPC  C31122944   1.940   3.511  11.009  0.0012 -0.5044 -0.3362
  186DOPC  H11X22945   2.017   3.442  11.051  0.4718 -0.2589 -0.7757
  186DOPC  H11Y22946   1.914   3.471  10.909  4.0729 -1.2231 -1.2904
  186DOPC  C31222947   1.822   3.518  11.109  0.3086 -0.3973 -0.1405
  186DOPC  H12X22948   1.748   3.595  11.080  1.3373  1.2342  1.3798
  186DOPC  H12Y22949   1.845   3.552  11.212 -1.1417  1.7220 -0.4583
  186DOPC  C31322950   1.754   3.386  11.128 -0.0080 -0.1427 -0.5006
  186DOPC  H13X22951   1.697   3.352  11.038  1.7117 -0.2094 -1.6013
  186DOPC  H13Y22952   1.824   3.307  11.163  0.3921  0.5794  0.3502
  186DOPC  C31422953   1.652   3.394  11.243  0.4226  0.3090 -0.1300
  186DOPC  H14X22954   1.723   3.414  11.326  0.5699  0.4783 -0.2963
  186DOPC  H14Y22955   1.591   3.485  11.228  1.2851  1.1752  1.3642
  186DOPC  C31522956   1.580   3.262  11.266 -0.1350  0.0846  0.2333
  186DOPC  H15X22957   1.652   3.179  11.280 -1.9287 -1.6014 -0.0144
  186DOPC  H15Y22958   1.517   3.254  11.174  2.5088  2.6239 -1.9844
  186DOPC  C31622959   1.467   3.251  11.379  0.5906  0.1662  0.5729
  186DOPC  H16X22960   1.511   3.246  11.480 -0.5021  0.5972  1.0810
  186DOPC  H16Y22961   1.415   3.349  11.369  1.6314  0.7040  0.2617
  186DOPC  C31722962   1.372   3.140  11.352  0.2781  0.6914  0.1206
  186DOPC  H17X22963   1.293   3.153  11.429 -0.0520  0.0449 -0.0993
  186DOPC  H17Y22964   1.325   3.150  11.252  1.0077 -0.1073 -0.3201
  186DOPC  C31822965   1.417   2.995  11.370  0.1098 -0.8480  1.0407
  186DOPC  H18X22966   1.455   2.978  11.473  1.0225  0.0980  0.8794
  186DOPC  H18Y22967   1.336   2.922  11.349 -0.7915 -0.3405  2.5551
  186DOPC  H18Z22968   1.490   2.971  11.289  0.1151  0.3363  0.6813
  187DOPC     N22969   2.366   2.040   8.199  0.2341 -0.0619  0.1374
  187DOPC   C1222970   2.247   2.032   8.299  0.2750  0.4761  0.5912
  187DOPC  H12A22971   2.181   1.953   8.267 -0.2918  0.5847  1.4710
  187DOPC  H12B22972   2.207   2.132   8.301 -0.8168  0.0352  2.0879
  187DOPC   C1322973   2.327   2.090   8.065  0.3146  0.1806  0.7810
  187DOPC  H13A22974   2.417   2.110   8.008 -0.5760 -0.3145 -0.8664
  187DOPC  H13B22975   2.282   2.008   8.010  0.8884  1.2607 -1.4454
  187DOPC  H13C22976   2.270   2.182   8.056 -0.1151 -0.0917  0.6943
  187DOPC   C1422977   2.446   1.917   8.194  0.2347  0.3412 -0.0564
  187DOPC  H14A22978   2.524   1.918   8.119  0.6842  0.6681  0.4131
  187DOPC  H14B22979   2.491   1.905   8.291  1.3073 -0.1870 -0.6004
  187DOPC  H14C22980   2.387   1.831   8.166 -1.6636  1.6865 -0.3811
  187DOPC   C1522981   2.459   2.153   8.249 -0.2028  0.4093  0.6755
  187DOPC  H15A22982   2.511   2.120   8.337  1.2539 -0.7342 -0.5558
  187DOPC  H15B22983   2.410   2.249   8.260  0.8807  1.1928 -0.8986
  187DOPC  H15C22984   2.540   2.162   8.177  0.4550 -2.7201  0.8916
  187DOPC   C1122985   2.278   1.991   8.443  0.2357  0.6664 -0.4765
  187DOPC  H11A22986   2.188   1.956   8.496  0.6456  0.2511 -0.0420
  187DOPC  H11B22987   2.336   1.897   8.428 -0.8779  0.2847 -2.7571
  187DOPC     P22988   2.289   2.197   8.601  0.2765  0.0305 -0.7223
  187DOPC   O1322989   2.197   2.280   8.522  0.2909 -0.0346  0.0359
  187DOPC   O1422990   2.393   2.272   8.675  0.1606  0.7569  0.2173
  187DOPC   O1222991   2.352   2.082   8.520 -0.1364  1.1373 -0.1923
  187DOPC   O1122992   2.205   2.116   8.706  0.1265 -0.6442 -0.2443
  187DOPC    C122993   2.265   2.018   8.790 -0.4851 -0.1748  0.2873
  187DOPC    HA22994   2.360   1.971   8.757 -0.5998 -0.4779  0.3825
  187DOPC    HB22995   2.210   1.922   8.785  2.2266 -1.7915 -0.4094
  187DOPC    C222996   2.266   2.040   8.945 -0.6628 -0.2735 -0.3009
  187DOPC    HS22997   2.298   1.940   8.979  1.0739 -0.2552 -1.7507
  187DOPC   O2122998   2.133   2.077   8.987  0.1960  0.4320  0.2462
  187DOPC   C2122999   2.096   2.043   9.114  0.3724 -0.3761 -0.5795
  187DOPC   O2223000   2.168   1.996   9.198 -0.0974 -0.4389  0.0562
  187DOPC   C2223001   1.949   2.051   9.138 -0.1692  0.5150  0.5155
  187DOPC   H2R23002   1.894   2.030   9.043  1.4562 -1.6768 -0.0327
  187DOPC   H2S23003   1.913   2.150   9.175 -1.2869  0.1136  0.5599
  187DOPC    C323004   2.371   2.147   8.991 -0.5990 -0.1692 -0.4677
  187DOPC    HX23005   2.322   2.245   8.975  0.6177  0.3926 -0.8091
  187DOPC    HY23006   2.463   2.131   8.932 -0.6632  1.1675 -0.9597
  187DOPC   O3123007   2.407   2.130   9.134  0.2083  0.2004  0.8304
  187DOPC   C3123008   2.428   2.242   9.193  0.3288 -0.3378 -0.1394
  187DOPC   O3223009   2.432   2.356   9.140 -0.6909  0.3177 -0.3565
  187DOPC   C3223010   2.450   2.220   9.342  0.2933 -0.2729 -0.2914
  187DOPC   H2X23011   2.354   2.242   9.393 -0.3741 -0.2063 -1.5474
  187DOPC   H2Y23012   2.480   2.113   9.344 -1.5336 -0.8512 -1.5149
  187DOPC   C2323013   1.900   1.936   9.236 -0.5536 -0.6937  1.0584
  187DOPC   H3R23014   1.933   1.962   9.339  1.9696  1.4868 -0.1719
  187DOPC   H3S23015   1.957   1.854   9.186  1.1092  1.3130 -0.5447
  187DOPC   C2423016   1.749   1.925   9.228  0.8960 -0.1887  0.2040
  187DOPC   H4R23017   1.714   1.930   9.123 -0.6385  3.0248  0.7332
  187DOPC   H4S23018   1.712   2.020   9.273 -0.5882 -0.4409 -0.4248
  187DOPC   C2523019   1.697   1.799   9.298 -0.2322 -0.2343  1.1369
  187DOPC   H5R23020   1.751   1.715   9.249  0.4442  0.5054  0.6057
  187DOPC   H5S23021   1.591   1.804   9.266  0.6759  3.2470 -2.0310
  187DOPC   C2623022   1.713   1.788   9.446  0.0468  0.2015 -0.9655
  187DOPC   H6R23023   1.682   1.885   9.492 -2.0267 -0.0304 -1.7656
  187DOPC   H6S23024   1.820   1.768   9.470 -0.9773 -3.0254  1.6492
  187DOPC   C2723025   1.639   1.670   9.510  0.0714  0.2599 -0.2897
  187DOPC   H7R23026   1.693   1.576   9.486  0.7935 -0.0194  2.1238
  187DOPC   H7S23027   1.538   1.662   9.465 -0.2859  0.8032  0.4052
  187DOPC   C2823028   1.620   1.677   9.665  0.1115  0.6379  0.6974
  187DOPC   H8R23029   1.539   1.606   9.692  0.2569 -0.2382 -0.9681
  187DOPC   H8S23030   1.580   1.774   9.701 -0.6799 -0.3548  2.6296
  187DOPC   C2923031   1.750   1.664   9.737  0.0898 -0.1186  0.3574
  187DOPC   H9R23032   1.828   1.737   9.713 -0.0119  0.1968  0.9768
  187DOPC  C21023033   1.764   1.608   9.856 -0.7278  0.6110  0.2047
  187DOPC  H10R23034   1.866   1.588   9.891 -0.3808 -1.4870 -1.7593
  187DOPC  C21123035   1.671   1.522   9.933 -0.0212 -0.1768 -0.4576
  187DOPC  H11R23036   1.712   1.419   9.942  2.0269  0.7016  0.9486
  187DOPC  H11S23037   1.572   1.517   9.883 -0.4362 -0.5119  0.3708
  187DOPC  C21223038   1.655   1.566  10.079 -0.4185 -0.8131 -0.2938
  187DOPC  H12R23039   1.600   1.490  10.139 -0.2705 -0.4086  0.3528
  187DOPC  H12S23040   1.596   1.659  10.087 -0.0110 -0.3697 -1.9294
  187DOPC  C21323041   1.791   1.583  10.143  0.2052 -0.1435 -0.2095
  187DOPC  H13R23042   1.852   1.673  10.120  0.7777 -0.1107  1.3085
  187DOPC  H13S23043   1.854   1.496  10.116 -0.3803 -0.9531  0.9318
  187DOPC  C21423044   1.783   1.583  10.298  0.2611 -0.0464  0.2010
  187DOPC  H14R23045   1.879   1.608  10.348  0.0029  0.1695  0.5988
  187DOPC  H14S23046   1.761   1.481  10.338  2.1479 -0.0178  1.4357
  187DOPC  C21523047   1.688   1.694  10.345  0.8408 -0.1750 -0.6793
  187DOPC  H15R23048   1.584   1.664  10.321 -0.6259  1.7557  2.5573
  187DOPC  H15S23049   1.719   1.784  10.286  1.5125  1.0377  1.4251
  187DOPC  C21623050   1.697   1.730  10.493 -0.1246 -0.1009  0.2683
  187DOPC  H16R23051   1.643   1.824  10.516  0.1456  0.3743 -0.9638
  187DOPC  H16S23052   1.804   1.755  10.510  0.0990 -0.8816  0.0564
  187DOPC  C21723053   1.642   1.625  10.590  0.4977 -0.0440  0.0456
  187DOPC  H17R23054   1.701   1.530  10.585 -0.8145 -1.0305  2.2074
  187DOPC  H17S23055   1.533   1.609  10.575  0.5731 -0.4965 -0.0385
  187DOPC  C21823056   1.659   1.664  10.739  0.3268 -0.0058  0.1031
  187DOPC  H18R23057   1.630   1.771  10.748 -1.7503 -0.7212  4.0574
  187DOPC  H18S23058   1.764   1.653  10.774  0.7516 -0.0625 -1.1643
  187DOPC  H18T23059   1.588   1.614  10.809 -1.5387  0.6953 -1.2114
  187DOPC   C3323060   2.560   2.313   9.400 -0.3269  0.1861 -0.7128
  187DOPC   H3X23061   2.522   2.416   9.415 -0.0505 -0.0880  2.7360
  187DOPC   H3Y23062   2.646   2.316   9.329  1.9684  0.3086  1.8833
  187DOPC   C3423063   2.631   2.247   9.519 -0.1481 -0.2794 -0.6309
  187DOPC   H4X23064   2.710   2.318   9.552 -2.9733  2.4350  0.7646
  187DOPC   H4Y23065   2.675   2.149   9.492 -1.5686 -0.8726 -0.8487
  187DOPC   C3523066   2.533   2.223   9.636  0.0647  0.2098  0.4022
  187DOPC   H5X23067   2.597   2.184   9.719  0.5475 -0.2563 -0.1782
  187DOPC   H5Y23068   2.447   2.156   9.613 -0.5571  1.5451 -1.3175
  187DOPC   C3623069   2.472   2.353   9.700 -0.1697  0.5013 -1.0478
  187DOPC   H6X23070   2.556   2.421   9.728  1.1575 -1.5255  0.0907
  187DOPC   H6Y23071   2.412   2.404   9.621 -2.3996  0.1189  0.3028
  187DOPC   C3723072   2.383   2.328   9.819  0.3060 -0.1426  0.2413
  187DOPC   H7X23073   2.334   2.421   9.855 -0.2222 -0.6174  0.7805
  187DOPC   H7Y23074   2.302   2.254   9.801 -0.0610  0.3052  0.0352
  187DOPC   C3823075   2.464   2.271   9.942 -0.0531 -0.1070  0.0180
  187DOPC   H8X23076   2.400   2.303  10.027 -0.2174 -1.6416  0.4981
  187DOPC   H8Y23077   2.551   2.341   9.945 -3.6443  4.9767 -1.1291
  187DOPC   C3923078   2.493   2.120   9.958  0.8029  0.4898 -0.1152
  187DOPC   H9X23079   2.559   2.071   9.885 -1.6636 -0.9692 -1.5329
  187DOPC  C31023080   2.456   2.028  10.058  0.4250 -0.2998  1.3674
  187DOPC  H10X23081   2.475   1.920  10.046  3.4567  0.1278  1.6478
  187DOPC  C31123082   2.372   2.070  10.175  0.1457 -0.3439 -0.8494
  187DOPC  H11X23083   2.266   2.035  10.177 -0.6116  1.8052 -0.7050
  187DOPC  H11Y23084   2.380   2.179  10.194  3.0382 -1.1468  3.9283
  187DOPC  C31223085   2.436   2.000  10.293 -0.3275  0.3750  0.2990
  187DOPC  H12X23086   2.543   2.028  10.306 -0.4308  1.2821 -0.6860
  187DOPC  H12Y23087   2.426   1.890  10.282 -1.2939  0.3693  1.1283
  187DOPC  C31323088   2.375   2.053  10.421  0.3345 -0.5789  0.1540
  187DOPC  H13X23089   2.407   2.159  10.433  0.6920 -0.7449  0.6879
  187DOPC  H13Y23090   2.264   2.053  10.417  0.3450  0.4192 -0.3975
  187DOPC  C31423091   2.420   1.968  10.545 -0.0807 -0.3045  0.7540
  187DOPC  H14X23092   2.373   1.873  10.514 -1.0013  0.2404  0.4367
  187DOPC  H14Y23093   2.529   1.948  10.549 -0.3730 -1.8322  1.9995
  187DOPC  C31523094   2.354   2.027  10.666 -0.3811  0.2483 -0.0262
  187DOPC  H15X23095   2.244   2.033  10.651 -0.6031 -0.6650  1.0772
  187DOPC  H15Y23096   2.396   2.130  10.675  0.9477 -0.2544 -0.2685
  187DOPC  C31623097   2.382   1.955  10.798  0.2484 -0.4863  0.1182
  187DOPC  H16X23098   2.352   1.849  10.811  0.5769 -0.4339  1.5466
  187DOPC  H16Y23099   2.493   1.959  10.802  0.2320 -0.3985  2.9510
  187DOPC  C31723100   2.315   2.040  10.915  0.3050  0.5672 -0.3493
  187DOPC  H17X23101   2.371   2.135  10.905  0.2896  0.5955 -0.1695
  187DOPC  H17Y23102   2.205   2.043  10.902  0.3356  1.3053 -0.4599
  187DOPC  C31823103   2.338   1.984  11.052  0.3014  0.3005  0.1552
  187DOPC  H18X23104   2.441   1.948  11.071  0.1637  0.1657  0.6687
  187DOPC  H18Y23105   2.319   2.059  11.132  0.9776  1.4055 -0.6972
  187DOPC  H18Z23106   2.261   1.907  11.076 -0.4533  1.1412  0.4607
  188DOPC     N23107   4.711   3.881   9.239  0.0020  0.5512 -0.2840
  188DOPC   C1223108   4.712   3.797   9.368 -0.0014 -0.4832  0.4750
  188DOPC  H12A23109   4.813   3.784   9.403  0.0017  1.8273  1.5488
  188DOPC  H12B23110   4.678   3.699   9.340  1.7293 -1.0712  0.3359
  188DOPC   C1323111   4.576   3.890   9.169  0.4956  0.2274  0.3693
  188DOPC  H13A23112   4.545   3.804   9.111 -1.3977  0.2678  1.2601
  188DOPC  H13B23113   4.508   3.890   9.253 -0.4808 -0.2399 -0.3994
  188DOPC  H13C23114   4.563   3.982   9.114 -1.4989  1.5958  2.9027
  188DOPC   C1423115   4.802   3.818   9.137 -0.1329  0.6243 -0.1188
  188DOPC  H14A23116   4.767   3.724   9.098 -0.5689  1.1128 -0.9389
  188DOPC  H14B23117   4.795   3.875   9.045 -1.9207  1.1852  0.3320
  188DOPC  H14C23118   4.900   3.805   9.180  0.3296 -0.0225 -1.3376
  188DOPC   C1523119   4.775   4.015   9.281 -0.4341 -0.3524  0.3554
  188DOPC  H15A23120   4.720   4.077   9.350  0.2616 -0.3484  0.9174
  188DOPC  H15B23121   4.793   4.072   9.191  0.2704 -1.1864 -0.0383
  188DOPC  H15C23122   4.867   3.995   9.334 -0.8025 -0.6185  0.8960
  188DOPC   C1123123   4.614   3.834   9.483  0.2217 -0.2890  0.1566
  188DOPC  H11A23124   4.637   3.783   9.579 -0.7999  0.2714  0.7108
  188DOPC  H11B23125   4.625   3.943   9.500 -1.3604 -0.2431  1.0925
  188DOPC     P23126   4.427   3.659   9.436 -0.1683  0.1990 -0.2727
  188DOPC   O1323127   4.517   3.570   9.364 -0.1487  0.1418 -0.1824
  188DOPC   O1423128   4.293   3.667   9.388  0.1262  0.8076 -0.4256
  188DOPC   O1223129   4.480   3.805   9.452 -0.3293 -0.1919 -0.2790
  188DOPC   O1123130   4.430   3.603   9.584  0.0191  0.0023 -0.1593
  188DOPC    C123131   4.372   3.679   9.697  0.5224  0.9465 -0.6858
  188DOPC    HA23132   4.282   3.626   9.735 -0.1670  2.1475 -0.5877
  188DOPC    HB23133   4.344   3.782   9.666 -2.3405  0.5676  0.3207
  188DOPC    C223134   4.481   3.704   9.806 -0.5430 -0.3565 -0.1163
  188DOPC    HS23135   4.560   3.765   9.759  0.0897 -1.7850 -0.9447
  188DOPC   O2123136   4.529   3.574   9.852 -0.1424  0.0546 -0.1508
  188DOPC   C2123137   4.646   3.586   9.912 -0.2978  0.4290 -0.2532
  188DOPC   O2223138   4.712   3.685   9.921 -0.1994  0.1661 -0.2257
  188DOPC   C2223139   4.677   3.453   9.985 -0.4800  0.5426 -0.0927
  188DOPC   H2R23140   4.727   3.384   9.914 -0.0282  0.1826  0.5592
  188DOPC   H2S23141   4.592   3.386  10.010  1.4328 -2.2693 -0.5896
  188DOPC    C323142   4.394   3.780   9.922  0.1583 -0.1639  0.2951
  188DOPC    HX23143   4.313   3.705   9.933  0.9866 -1.1035  0.1689
  188DOPC    HY23144   4.340   3.866   9.878 -0.7724 -0.5091  0.7391
  188DOPC   O3123145   4.461   3.803  10.049  0.7368 -0.1472 -0.0120
  188DOPC   C3123146   4.542   3.901  10.058 -0.3028 -0.1449  0.4647
  188DOPC   O3223147   4.557   3.983   9.971 -0.5334 -0.3818 -0.2184
  188DOPC   C3223148   4.636   3.892  10.178  0.3998 -0.9720 -0.6641
  188DOPC   H2X23149   4.582   3.948  10.258  0.7909  0.7006 -1.5214
  188DOPC   H2Y23150   4.641   3.785  10.209  2.3545 -0.7162  0.0366
  188DOPC   C2323151   4.770   3.469  10.110  0.4616 -0.2731  0.3960
  188DOPC   H3R23152   4.825   3.565  10.109 -1.7799  1.1484  2.2856
  188DOPC   H3S23153   4.843   3.385  10.106  0.7929  0.0519 -2.0787
  188DOPC   C2423154   4.687   3.482  10.240 -0.0601 -0.3414  0.3010
  188DOPC   H4R23155   4.612   3.400  10.246  0.7513 -1.0746  0.5680
  188DOPC   H4S23156   4.626   3.574  10.246  0.1471 -0.2471  1.1398
  188DOPC   C2523157   4.774   3.486  10.365 -0.2130 -0.4277  0.0103
  188DOPC   H5R23158   4.861   3.548  10.334 -2.3941  2.4683 -0.8500
  188DOPC   H5S23159   4.813   3.382  10.376  0.7489 -0.2197 -1.1704
  188DOPC   C2623160   4.709   3.535  10.495 -0.9783  0.1955 -0.5327
  188DOPC   H6R23161   4.621   3.472  10.521 -1.0960 -0.8246 -3.0879
  188DOPC   H6S23162   4.674   3.639  10.482  1.9563  1.4181  0.5506
  188DOPC   C2723163   4.817   3.544  10.597 -0.5683  0.7659 -0.5024
  188DOPC   H7R23164   4.905   3.593  10.550 -0.3335 -0.4261 -1.3670
  188DOPC   H7S23165   4.851   3.444  10.631  1.0986  1.6414  0.5543
  188DOPC   C2823166   4.783   3.640  10.708  0.2176  0.8255  0.0631
  188DOPC   H8R23167   4.746   3.740  10.677 -3.1592 -1.0543 -2.6629
  188DOPC   H8S23168   4.870   3.655  10.775  0.3096 -0.0107  0.1432
  188DOPC   C2923169   4.667   3.581  10.785 -0.0210 -0.0131  0.8349
  188DOPC   H9R23170   4.572   3.577  10.729  0.0361 -2.8399  0.8403
  188DOPC  C21023171   4.669   3.545  10.913 -0.1842 -0.3006  0.2993
  188DOPC  H10R23172   4.581   3.507  10.966  1.4010 -1.0137  2.5585
  188DOPC  C21123173   4.790   3.555  11.005  0.3341 -0.6216 -0.6631
  188DOPC  H11R23174   4.887   3.571  10.953  0.7157  0.9344  0.4513
  188DOPC  H11S23175   4.801   3.462  11.065 -0.0846  1.1298  2.3591
  188DOPC  C21223176   4.774   3.675  11.107  0.8227  0.3246 -0.6729
  188DOPC  H12R23177   4.681   3.652  11.163  0.0496  1.0500 -1.6161
  188DOPC  H12S23178   4.766   3.764  11.041  0.3419 -0.7543 -2.1479
  188DOPC  C21323179   4.880   3.682  11.223  0.4661  0.6559  0.7572
  188DOPC  H13R23180   4.978   3.694  11.171  0.2759  0.7705  0.4207
  188DOPC  H13S23181   4.876   3.588  11.282  1.0913  0.7069  0.8920
  188DOPC  C21423182   4.856   3.798  11.319 -0.2930  0.2242 -0.6866
  188DOPC  H14R23183   4.748   3.810  11.343 -0.6421 -0.1947 -1.9517
  188DOPC  H14S23184   4.884   3.894  11.269 -2.1221  0.9762 -0.3518
  188DOPC  C21523185   4.956   3.791  11.437  0.0958  0.1397  0.4882
  188DOPC  H15R23186   5.055   3.802  11.387 -0.5560 -0.5155 -1.0046
  188DOPC  H15S23187   4.941   3.701  11.501 -0.5327  0.9649  1.5381
  188DOPC  C21623188   4.954   3.913  11.531  0.4482 -0.5759  0.0732
  188DOPC  H16R23189   4.961   4.003  11.466 -0.8158 -1.5846 -1.5458
  188DOPC  H16S23190   5.032   3.920  11.610  0.1731  0.0865  0.2926
  188DOPC  C21723191   4.819   3.929  11.600 -0.7902  0.6069  0.2649
  188DOPC  H17R23192   4.809   3.841  11.668  2.8385 -0.3299 -0.2181
  188DOPC  H17S23193   4.748   3.941  11.515 -0.1721 -2.7348 -0.8875
  188DOPC  C21823194   4.810   4.058  11.682 -0.2691 -0.2356  0.4495
  188DOPC  H18R23195   4.706   4.078  11.715 -1.5582 -1.6395 -2.4242
  188DOPC  H18S23196   4.835   4.141  11.612 -1.3842  0.1749  0.5164
  188DOPC  H18T23197   4.885   4.059  11.763 -0.4511 -0.2880  0.6192
  188DOPC   C3323198   4.779   3.936  10.154  0.0365 -0.1386 -0.3201
  188DOPC   H3X23199   4.787   4.044  10.127 -2.4546 -0.0078 -0.7650
  188DOPC   H3Y23200   4.840   3.887  10.074  2.0049  3.3650 -1.1960
  188DOPC   C3423201   4.865   3.934  10.284  0.4171  0.1978  0.0784
  188DOPC   H4X23202   4.967   3.977  10.271  0.5868  0.1096  1.0308
  188DOPC   H4Y23203   4.875   3.826  10.310 -0.8150  0.1775  0.5279
  188DOPC   C3523204   4.799   4.002  10.399 -0.3867  0.3691 -0.3358
  188DOPC   H5X23205   4.699   3.964  10.428  0.0156 -1.4282 -1.1353
  188DOPC   H5Y23206   4.784   4.107  10.367  0.1269  0.6455  0.3048
  188DOPC   C3623207   4.880   4.000  10.530 -0.4982  0.2353 -0.6355
  188DOPC   H6X23208   4.912   3.896  10.555  2.1035  0.5459 -2.2881
  188DOPC   H6Y23209   4.976   4.056  10.527 -0.1487 -0.2769  0.3930
  188DOPC   C3723210   4.811   4.080  10.638 -0.0780  0.6792  0.5385
  188DOPC   H7X23211   4.788   4.171  10.579  0.4851 -0.5416 -1.6845
  188DOPC   H7Y23212   4.720   4.029  10.676 -0.7287  1.2799 -0.1803
  188DOPC   C3823213   4.893   4.109  10.765  0.2587 -0.6133 -0.4139
  188DOPC   H8X23214   4.842   4.189  10.821  1.1650  0.2074 -0.7308
  188DOPC   H8Y23215   4.989   4.148  10.723 -0.9913  0.8485 -2.0829
  188DOPC   C3923216   4.911   3.990  10.857  0.0236  0.4281 -1.0648
  188DOPC   H9X23217   4.830   3.916  10.863  0.7875 -0.5236 -2.0703
  188DOPC  C31023218   5.013   3.977  10.941 -0.3803 -0.2816 -0.1792
  188DOPC  H10X23219   5.017   3.880  10.993  2.3669 -0.1982 -0.0632
  188DOPC  C31123220   5.137   4.066  10.954  1.1968 -0.0592  0.4986
  188DOPC  H11X23221   5.166   4.095  10.851  3.9035 -1.8787  0.6518
  188DOPC  H11Y23222   5.220   4.010  11.002  3.6139  1.6809 -1.4148
  188DOPC  C31223223   5.126   4.200  11.035  0.1546  0.4604  0.0210
  188DOPC  H12X23224   5.028   4.247  11.015 -1.1361 -1.6811  0.9736
  188DOPC  H12Y23225   5.213   4.267  11.015 -0.2710  1.7080  2.1157
  188DOPC  C31323226   5.120   4.174  11.192  0.0955  0.1640  0.4354
  188DOPC  H13X23227   5.025   4.118  11.209 -0.0199  0.3086  0.2792
  188DOPC  H13Y23228   5.198   4.105  11.230 -0.8331 -0.6166  0.9637
  188DOPC  C31423229   5.125   4.295  11.286  0.1098 -0.2629 -0.0171
  188DOPC  H14X23230   5.224   4.343  11.270 -0.7896  2.5256  1.9251
  188DOPC  H14Y23231   5.047   4.371  11.261  1.1221  0.7876 -0.0652
  188DOPC  C31523232   5.124   4.256  11.434  0.5480  0.0060 -0.0201
  188DOPC  H15X23233   5.184   4.163  11.447 -1.0372 -1.9701 -4.5747
  188DOPC  H15Y23234   5.025   4.223  11.471  1.2186  0.0316  1.9117
  188DOPC  C31623235   5.187   4.361  11.529  1.0147  0.1995  0.0805
  188DOPC  H16X23236   5.293   4.379  11.501 -0.0954  2.4293 -3.3495
  188DOPC  H16Y23237   5.131   4.457  11.523 -0.0156  0.0028  4.0321
  188DOPC  C31723238   5.177   4.319  11.679 -0.1102  0.1961 -0.2588
  188DOPC  H17X23239   5.074   4.283  11.700  0.3009  0.1286  1.8314
  188DOPC  H17Y23240   5.233   4.223  11.685 -2.7225 -1.3499  3.7576
  188DOPC  C31823241   5.226   4.419  11.796  0.3762  0.3918 -0.0536
  188DOPC  H18X23242   5.159   4.407  11.883 -0.0343 -0.3256 -0.4605
  188DOPC  H18Y23243   5.334   4.393  11.804 -0.1553 -1.9637 -0.0470
  188DOPC  H18Z23244   5.210   4.520  11.751  2.6210  0.3777 -1.0452
  189DOPC     N23245   4.848   1.422   8.462 -0.3847 -0.6139  0.1338
  189DOPC   C1223246   4.980   1.364   8.510  0.4153  0.4764 -0.4613
  189DOPC  H12A23247   5.058   1.389   8.440 -1.1460  2.5477 -1.5687
  189DOPC  H12B23248   4.955   1.259   8.505  0.1020  0.5878 -1.4348
  189DOPC   C1323249   4.825   1.384   8.325  0.2436  0.2023  0.0027
  189DOPC  H13A23250   4.730   1.422   8.289 -0.4990  0.3472  2.0076
  189DOPC  H13B23251   4.895   1.418   8.251 -0.0665  0.0539 -0.3677
  189DOPC  H13C23252   4.818   1.277   8.308  1.2617  0.3334 -1.4279
  189DOPC   C1423253   4.852   1.572   8.477 -0.2664  0.5749 -0.2941
  189DOPC  H14A23254   4.929   1.619   8.417  1.4984  0.1331  1.5135
  189DOPC  H14B23255   4.758   1.614   8.446 -0.4957  0.5286  0.3295
  189DOPC  H14C23256   4.871   1.590   8.582 -0.1526 -1.7894  0.1375
  189DOPC   C1523257   4.735   1.383   8.552  0.5243  0.6052 -0.0264
  189DOPC  H15A23258   4.719   1.276   8.545 -0.4299  0.8287 -3.3480
  189DOPC  H15B23259   4.643   1.417   8.505 -0.3352 -0.7108  0.6277
  189DOPC  H15C23260   4.738   1.422   8.652  1.0154 -1.6894  0.9149
  189DOPC   C1123261   5.017   1.397   8.660  0.2148 -0.0763  0.2466
  189DOPC  H11A23262   4.924   1.378   8.718  0.3424 -1.6809 -0.0277
  189DOPC  H11B23263   5.099   1.336   8.703  1.4275  1.7221  0.5846
  189DOPC     P23264   5.203   1.581   8.641  0.0735 -0.0334  0.3352
  189DOPC   O1323265   5.206   1.723   8.599  0.5329 -0.4587  0.3906
  189DOPC   O1423266   5.274   1.487   8.553 -0.6739  0.7544  0.5903
  189DOPC   O1223267   5.055   1.534   8.674  0.0003  0.2828  0.1848
  189DOPC   O1123268   5.270   1.576   8.783  0.0623  0.5637  0.1816
  189DOPC    C123269   5.209   1.574   8.910 -0.1385  1.1474  0.4048
  189DOPC    HA23270   5.121   1.507   8.906  0.5775  0.2422 -1.6886
  189DOPC    HB23271   5.176   1.675   8.944 -0.2582  0.4886  2.3607
  189DOPC    C223272   5.305   1.536   9.024 -0.0078  0.5196 -0.2980
  189DOPC    HS23273   5.243   1.528   9.117  0.2159 -1.0559 -0.2578
  189DOPC   O2123274   5.411   1.631   9.024 -0.3857 -0.5287  0.3120
  189DOPC   C2123275   5.446   1.674   9.152 -0.0712  0.1244  0.7779
  189DOPC   O2223276   5.411   1.622   9.255 -0.2118  0.7311 -0.3062
  189DOPC   C2223277   5.523   1.809   9.147  0.4600 -0.5994 -0.5065
  189DOPC   H2R23278   5.453   1.896   9.143  1.8179  0.5381 -0.1825
  189DOPC   H2S23279   5.567   1.827   9.047  0.9687  0.5919 -0.0874
  189DOPC    C323280   5.355   1.394   9.007 -0.0532 -0.0174 -0.2149
  189DOPC    HX23281   5.424   1.410   8.921 -0.2618  1.0307 -0.2006
  189DOPC    HY23282   5.281   1.319   8.974  3.0469 -3.2878 -0.4204
  189DOPC   O3123283   5.431   1.350   9.119 -0.0832  0.0419  0.1652
  189DOPC   C3123284   5.370   1.290   9.222 -0.2076  0.1117 -0.0194
  189DOPC   O3223285   5.255   1.260   9.234 -0.1225 -0.0446  0.1744
  189DOPC   C3223286   5.470   1.285   9.341 -0.4535  0.7756  0.4458
  189DOPC   H2X23287   5.514   1.183   9.333 -2.6451 -0.2635  0.9103
  189DOPC   H2Y23288   5.543   1.368   9.330 -0.6284  1.1727  2.0029
  189DOPC   C2323289   5.622   1.819   9.265  0.0573  0.1915 -0.1300
  189DOPC   H3R23290   5.692   1.905   9.260 -0.6895  0.8839  0.9645
  189DOPC   H3S23291   5.686   1.729   9.276  0.7711  0.4059 -2.1651
  189DOPC   C2423292   5.551   1.834   9.400 -0.1691  0.0119 -0.5740
  189DOPC   H4R23293   5.536   1.732   9.442 -3.0529  0.5848 -0.0071
  189DOPC   H4S23294   5.446   1.869   9.390  0.5018  1.6351 -2.5917
  189DOPC   C2523295   5.622   1.924   9.493 -0.1908  0.1960 -0.5663
  189DOPC   H5R23296   5.611   2.030   9.462 -1.3803  0.6859  1.3151
  189DOPC   H5S23297   5.731   1.906   9.504 -0.6188 -1.6486  1.1525
  189DOPC   C2623298   5.561   1.919   9.638  0.1145  0.2102 -0.3193
  189DOPC   H6R23299   5.578   1.818   9.679  2.6975  0.0397 -1.6172
  189DOPC   H6S23300   5.454   1.947   9.653  0.3695  0.8405  0.4171
  189DOPC   C2723301   5.648   2.008   9.726 -0.0155 -0.1702 -0.3429
  189DOPC   H7R23302   5.632   2.116   9.706 -0.1473 -0.1756 -0.2659
  189DOPC   H7S23303   5.755   1.985   9.706  0.7838  2.4868  0.3874
  189DOPC   C2823304   5.624   1.979   9.876 -0.0760  0.6243  0.0151
  189DOPC   H8R23305   5.682   1.884   9.887  1.3134  1.1123 -2.3119
  189DOPC   H8S23306   5.516   1.956   9.890  0.2923 -0.9194  0.6048
  189DOPC   C2923307   5.678   2.083   9.972 -0.7707 -0.0289 -0.2167
  189DOPC   H9R23308   5.646   2.184   9.942  0.6244  0.0940 -1.3437
  189DOPC  C21023309   5.768   2.078  10.072 -0.2568  0.3781  0.2766
  189DOPC  H10R23310   5.813   2.169  10.116 -0.8571  0.3319  1.0060
  189DOPC  C21123311   5.817   1.953  10.139  0.0523  0.2326  0.3274
  189DOPC  H11R23312   5.921   1.926  10.109  0.3714  2.1497 -0.4541
  189DOPC  H11S23313   5.756   1.864  10.112  1.1840 -0.2438 -0.7693
  189DOPC  C21223314   5.808   1.950  10.295  0.0213 -0.2694  0.0969
  189DOPC  H12R23315   5.900   1.998  10.333 -0.1524  1.9209 -2.0016
  189DOPC  H12S23316   5.826   1.845  10.327  1.7094 -0.1825 -0.4899
  189DOPC  C21323317   5.681   2.003  10.362  0.6477  0.4805  0.3927
  189DOPC  H13R23318   5.598   1.991  10.288  0.3889  0.7755  0.6367
  189DOPC  H13S23319   5.680   2.113  10.372 -2.1611  0.6725 -0.9399
  189DOPC  C21423320   5.660   1.933  10.493 -0.2527 -0.3406 -0.1762
  189DOPC  H14R23321   5.747   1.911  10.559 -0.5571  2.2599  1.2328
  189DOPC  H14S23322   5.622   1.830  10.475  0.5630 -1.0414  1.8156
  189DOPC  C21523323   5.566   2.000  10.596  0.7790 -0.2746 -0.1986
  189DOPC  H15R23324   5.471   2.023  10.543  0.4340 -1.2813 -0.0471
  189DOPC  H15S23325   5.621   2.096  10.605  0.6170 -0.0531 -1.3540
  189DOPC  C21623326   5.527   1.923  10.717  0.7239 -0.0341  0.3193
  189DOPC  H16R23327   5.609   1.925  10.792 -0.0083 -0.7149  1.1782
  189DOPC  H16S23328   5.503   1.821  10.679  3.1752 -0.1357 -1.1593
  189DOPC  C21723329   5.409   1.992  10.784  0.5570 -0.1710 -0.5505
  189DOPC  H17R23330   5.359   1.924  10.856  2.2157  2.7541  3.8409
  189DOPC  H17S23331   5.337   2.032  10.710  2.3391  1.7689 -1.3511
  189DOPC  C21823332   5.450   2.115  10.865 -0.1887 -1.2528  0.3089
  189DOPC  H18R23333   5.536   2.090  10.931  0.6039 -0.7864 -0.5172
  189DOPC  H18S23334   5.361   2.142  10.926 -0.0747  1.0912 -0.4621
  189DOPC  H18T23335   5.486   2.195  10.797  0.4967  0.0256  2.0805
  189DOPC   C3323336   5.406   1.302   9.480 -0.3248  0.9304  0.0262
  189DOPC   H3X23337   5.336   1.220   9.504  1.7339  0.0453  3.9816
  189DOPC   H3Y23338   5.357   1.401   9.494  2.4057  2.0487  3.2598
  189DOPC   C3423339   5.522   1.303   9.589 -0.1023  0.4896 -0.0278
  189DOPC   H4X23340   5.611   1.366   9.568  0.6511  0.2029  2.0581
  189DOPC   H4Y23341   5.558   1.199   9.603  1.3081  1.0252  0.4500
  189DOPC   C3523342   5.480   1.339   9.734  0.3035  0.7294 -0.5042
  189DOPC   H5X23343   5.566   1.314   9.800 -1.3186 -3.1249  0.4214
  189DOPC   H5Y23344   5.407   1.263   9.768  0.3719  0.3999 -1.0702
  189DOPC   C3623345   5.432   1.478   9.757 -0.1721  0.0898  0.6612
  189DOPC   H6X23346   5.446   1.528   9.658 -1.4172 -1.1517 -0.1768
  189DOPC   H6Y23347   5.325   1.477   9.786 -0.7987  0.9257 -1.4173
  189DOPC   C3723348   5.521   1.548   9.865  0.2335 -0.3022  0.5440
  189DOPC   H7X23349   5.621   1.499   9.868  0.6816  0.5473 -0.0982
  189DOPC   H7Y23350   5.531   1.654   9.835 -0.5392  0.2684  2.2058
  189DOPC   C3823351   5.465   1.538  10.008 -0.3549 -0.5084  0.0152
  189DOPC   H8X23352   5.360   1.574  10.000 -0.8818 -2.1926 -1.4185
  189DOPC   H8Y23353   5.507   1.609  10.082  1.3323 -0.7278 -0.6802
  189DOPC   C3923354   5.474   1.394  10.054  0.1367 -0.3401 -0.2247
  189DOPC   H9X23355   5.438   1.325   9.976  0.6226 -0.8172 -0.0289
  189DOPC  C31023356   5.487   1.357  10.180 -0.2122  0.0189 -0.7407
  189DOPC  H10X23357   5.496   1.249  10.201  0.5172  0.2865  0.4823
  189DOPC  C31123358   5.506   1.440  10.300 -0.1554  0.4141 -0.2827
  189DOPC  H11X23359   5.427   1.420  10.376 -0.7636  1.1022 -0.7205
  189DOPC  H11Y23360   5.513   1.551  10.298  0.5989  0.4315  1.3490
  189DOPC  C31223361   5.636   1.400  10.373 -0.5351  0.5757  0.1874
  189DOPC  H12X23362   5.713   1.438  10.302 -0.0354  1.3752  1.1257
  189DOPC  H12Y23363   5.657   1.292  10.390  0.7499  1.0010  1.5463
  189DOPC  C31323364   5.653   1.474  10.510  0.4527 -0.2030 -0.0761
  189DOPC  H13X23365   5.627   1.579  10.483 -0.1286 -0.0400  1.0220
  189DOPC  H13Y23366   5.578   1.428  10.579  0.3067 -1.6812 -1.1700
  189DOPC  C31423367   5.783   1.468  10.576  0.0402  0.3617 -0.0505
  189DOPC  H14X23368   5.803   1.362  10.604 -0.7427 -0.1816 -1.4281
  189DOPC  H14Y23369   5.864   1.482  10.501 -0.1931 -0.2289 -0.4202
  189DOPC  C31523370   5.798   1.546  10.703  0.1014  0.8297  0.3382
  189DOPC  H15X23371   5.728   1.512  10.782  2.6314 -0.7264  2.0406
  189DOPC  H15Y23372   5.766   1.652  10.691 -0.1614  0.7832  0.6097
  189DOPC  C31623373   5.948   1.532  10.746  0.4927  0.1406  0.3324
  189DOPC  H16X23374   5.975   1.426  10.730 -1.0657 -0.0497 -1.3277
  189DOPC  H16Y23375   6.016   1.586  10.677 -0.1172  2.5870  1.5339
  189DOPC  C31723376   5.965   1.572  10.895 -0.2376  0.6192  0.5267
  189DOPC  H17X23377   5.931   1.677  10.893 -1.0770  0.3507 -0.4319
  189DOPC  H17Y23378   5.887   1.516  10.951 -1.2082  0.3403 -1.0310
  189DOPC  C31823379   6.105   1.555  10.951 -0.4299  0.2840 -0.7120
  189DOPC  H18X23380   6.101   1.599  11.052  1.9092  3.5471 -1.8836
  189DOPC  H18Y23381   6.127   1.446  10.949  2.3720  0.7685  0.1426
  189DOPC  H18Z23382   6.170   1.614  10.883  1.4162 -2.3325 -1.3860
  190DOPC     N23383   5.416   2.338   8.380  0.8667 -0.3836  0.5992
  190DOPC   C1223384   5.522   2.235   8.433 -0.5964 -0.2220  0.0722
  190DOPC  H12A23385   5.532   2.162   8.354 -2.2832  0.7188 -1.0654
  190DOPC  H12B23386   5.482   2.177   8.515 -0.2890 -0.4748  0.0488
  190DOPC   C1323387   5.380   2.450   8.478  0.0012  1.2466 -0.2536
  190DOPC  H13A23388   5.471   2.486   8.522  0.3113 -1.5821  1.6350
  190DOPC  H13B23389   5.318   2.533   8.447 -1.7325  0.8418  1.8836
  190DOPC  H13C23390   5.331   2.402   8.561  1.9953 -0.5086 -0.0144
  190DOPC   C1423391   5.297   2.254   8.352 -0.0406 -0.1616 -0.2692
  190DOPC  H14A23392   5.205   2.310   8.347  0.9265  1.3606 -2.7406
  190DOPC  H14B23393   5.310   2.202   8.258  1.1907  1.5413 -1.0950
  190DOPC  H14C23394   5.284   2.187   8.436  0.7455 -0.4063 -0.3294
  190DOPC   C1523395   5.469   2.396   8.252  0.0064 -0.9131  0.5353
  190DOPC  H15A23396   5.393   2.453   8.200  0.8357  0.5088  0.8061
  190DOPC  H15B23397   5.485   2.318   8.179  1.3145 -0.3654  0.1895
  190DOPC  H15C23398   5.554   2.462   8.259  0.8372 -1.7018 -1.3920
  190DOPC   C1123399   5.662   2.294   8.480  0.8994  0.2688 -0.3073
  190DOPC  H11A23400   5.733   2.211   8.499  1.1973  0.6240  0.1613
  190DOPC  H11B23401   5.700   2.346   8.389  0.4324 -3.6064 -2.9346
  190DOPC     P23402   5.778   2.429   8.655  0.1700  0.4055 -0.4043
  190DOPC   O1323403   5.738   2.519   8.764  0.2517  0.2495 -0.2020
  190DOPC   O1423404   5.865   2.482   8.550  0.0534  0.1796  0.3640
  190DOPC   O1223405   5.646   2.374   8.596  0.3437  0.1205  0.2232
  190DOPC   O1123406   5.852   2.303   8.706  0.6438 -0.3526 -0.1550
  190DOPC    C123407   5.793   2.210   8.795 -0.1754 -0.1165  0.6084
  190DOPC    HA23408   5.832   2.108   8.774 -0.0872 -0.1889  1.1061
  190DOPC    HB23409   5.682   2.208   8.784 -0.0977 -0.6876 -0.1838
  190DOPC    C223410   5.833   2.240   8.943 -0.5116 -0.0139 -0.6856
  190DOPC    HS23411   5.794   2.343   8.957 -1.1169 -0.1601 -1.2963
  190DOPC   O2123412   5.979   2.238   8.958  0.1075 -0.0620  0.0573
  190DOPC   C2123413   6.022   2.322   9.062 -0.0749 -0.1286 -0.4022
  190DOPC   O2223414   5.948   2.399   9.116  0.1712 -0.6279  0.2242
  190DOPC   C2223415   6.168   2.307   9.096  0.1567 -0.0974  0.1207
  190DOPC   H2R23416   6.225   2.362   9.018 -0.8320 -0.1915 -0.6938
  190DOPC   H2S23417   6.188   2.199   9.082 -2.5225 -0.4997 -1.2936
  190DOPC    C323418   5.768   2.140   9.034  0.4153  0.3645  0.7989
  190DOPC    HX23419   5.791   2.035   9.005 -0.9568 -0.0250  1.0142
  190DOPC    HY23420   5.657   2.147   9.024  0.1857 -3.3696 -1.2254
  190DOPC   O3123421   5.796   2.157   9.173 -0.3124  0.4635  0.4902
  190DOPC   C3123422   5.717   2.240   9.243  0.4134 -0.0987  0.5395
  190DOPC   O3223423   5.621   2.300   9.203  0.8812  0.7607 -0.3269
  190DOPC   C3223424   5.791   2.250   9.378  0.1874 -0.9013 -0.6879
  190DOPC   H2X23425   5.825   2.150   9.411  2.3677 -0.4954 -1.5384
  190DOPC   H2Y23426   5.881   2.309   9.350  0.6533 -1.4101 -0.2860
  190DOPC   C2323427   6.199   2.353   9.238  0.5765  0.1707  0.0124
  190DOPC   H3R23428   6.140   2.293   9.310  0.4610  0.7450  0.4051
  190DOPC   H3S23429   6.170   2.458   9.260  0.1056  0.1104 -0.3178
  190DOPC   C2423430   6.350   2.342   9.261 -0.6448 -0.0628  0.2006
  190DOPC   H4R23431   6.411   2.400   9.189  0.2651 -0.6621  0.4698
  190DOPC   H4S23432   6.379   2.235   9.250  1.1470  0.5682 -1.7055
  190DOPC   C2523433   6.390   2.383   9.409 -0.3033 -0.1389 -0.1530
  190DOPC   H5R23434   6.345   2.314   9.484 -1.7930 -0.3726 -1.2301
  190DOPC   H5S23435   6.352   2.483   9.436 -0.2108 -0.5172  1.5061
  190DOPC   C2623436   6.542   2.361   9.429 -0.3327  0.1526 -0.2549
  190DOPC   H6R23437   6.601   2.414   9.352  1.0897 -2.2915 -0.9465
  190DOPC   H6S23438   6.555   2.251   9.419 -0.4284  0.2481 -1.6145
  190DOPC   C2723439   6.592   2.410   9.570 -0.2061 -0.2578 -0.2024
  190DOPC   H7R23440   6.576   2.520   9.573  0.8397 -0.1038  0.4139
  190DOPC   H7S23441   6.702   2.398   9.579 -0.4737 -3.6328 -0.0691
  190DOPC   C2823442   6.529   2.344   9.697 -0.2027 -0.0966 -0.0615
  190DOPC   H8R23443   6.420   2.365   9.707  0.4102  2.7813  1.6413
  190DOPC   H8S23444   6.577   2.384   9.789  0.0767 -0.3074 -0.1162
  190DOPC   C2923445   6.558   2.197   9.698 -0.0051  0.1511  0.5137
  190DOPC   H9R23446   6.484   2.139   9.641  0.1009  0.0673  0.4603
  190DOPC  C21023447   6.661   2.134   9.763 -0.5981  0.2891  0.3275
  190DOPC  H10R23448   6.661   2.024   9.760  0.4207  0.2987 -0.6526
  190DOPC  C21123449   6.775   2.198   9.843 -0.1286  0.2412 -0.5749
  190DOPC  H11R23450   6.837   2.268   9.783 -0.0496 -1.0421 -2.0590
  190DOPC  H11S23451   6.854   2.120   9.854  0.1623  0.2384 -2.4274
  190DOPC  C21223452   6.747   2.249   9.988  0.1267  0.4864 -0.1709
  190DOPC  H12R23453   6.653   2.308   9.989 -1.0108 -1.2001 -0.9700
  190DOPC  H12S23454   6.827   2.322  10.011  0.8244 -0.4070  0.2869
  190DOPC  C21323455   6.755   2.140  10.100  0.1429 -0.0473 -0.4269
  190DOPC  H13R23456   6.863   2.123  10.119  0.3291  1.8342  0.4595
  190DOPC  H13S23457   6.706   2.046  10.068 -0.1288 -0.2852  0.6525
  190DOPC  C21423458   6.670   2.185  10.228 -0.1441 -0.1857 -0.1319
  190DOPC  H14R23459   6.565   2.187  10.190 -0.2785 -2.1813 -0.0075
  190DOPC  H14S23460   6.696   2.292  10.237 -0.5072  0.1448 -2.4215
  190DOPC  C21523461   6.664   2.080  10.345  0.9916 -0.3296 -0.5056
  190DOPC  H15R23462   6.767   2.076  10.387 -0.0092  0.2561  2.2344
  190DOPC  H15S23463   6.627   1.984  10.302 -2.1393  0.3150  0.4659
  190DOPC  C21623464   6.571   2.129  10.461 -0.4886 -0.2462  0.4302
  190DOPC  H16R23465   6.480   2.161  10.406  1.8934 -0.6503 -4.2986
  190DOPC  H16S23466   6.614   2.217  10.514 -2.0484  0.1677  1.0579
  190DOPC  C21723467   6.541   2.023  10.569 -0.2967 -0.4726 -0.7468
  190DOPC  H17R23468   6.641   1.977  10.583  1.3100  2.8324 -0.3109
  190DOPC  H17S23469   6.464   1.952  10.532 -0.6154 -0.7290  0.3601
  190DOPC  C21823470   6.496   2.095  10.700  0.2674  0.3522  0.2873
  190DOPC  H18R23471   6.390   2.129  10.704 -0.4185 -1.1857 -2.2899
  190DOPC  H18S23472   6.550   2.190  10.719  0.7914 -0.1150  1.2170
  190DOPC  H18T23473   6.515   2.036  10.792  0.9042  2.2118  1.3964
  190DOPC   C3323474   5.714   2.323   9.493 -0.0032 -0.1235  0.4172
  190DOPC   H3X23475   5.623   2.268   9.526  1.3816 -1.7956  1.6267
  190DOPC   H3Y23476   5.687   2.421   9.450 -0.5413  0.2762  1.6080
  190DOPC   C3423477   5.803   2.344   9.615 -0.1453 -0.1779 -0.2123
  190DOPC   H4X23478   5.901   2.384   9.582  0.0643  0.6800  1.3410
  190DOPC   H4Y23479   5.813   2.244   9.661 -1.0745  0.4233  1.4066
  190DOPC   C3523480   5.735   2.431   9.728  0.7278  0.0309  0.0204
  190DOPC   H5X23481   5.639   2.388   9.763 -1.2127  4.7147  1.1073
  190DOPC   H5Y23482   5.723   2.533   9.687  0.8058  0.1236  0.2272
  190DOPC   C3623483   5.831   2.435   9.843 -0.6714 -0.2447  0.2935
  190DOPC   H6X23484   5.843   2.329   9.872 -0.4586 -1.0377 -2.3837
  190DOPC   H6Y23485   5.936   2.466   9.823 -0.5267 -1.5391 -1.2003
  190DOPC   C3723486   5.775   2.527   9.959  0.1657  0.3626 -0.0764
  190DOPC   H7X23487   5.751   2.626   9.914 -0.9694  0.5444  0.9077
  190DOPC   H7Y23488   5.682   2.488  10.004 -0.3450  1.4527 -0.1462
  190DOPC   C3823489   5.881   2.562  10.063  0.4865  0.0808 -0.1227
  190DOPC   H8X23490   5.842   2.652  10.114  0.6388  0.1623 -0.1493
  190DOPC   H8Y23491   5.978   2.590  10.018  0.6351  1.7091  1.1193
  190DOPC   C3923492   5.897   2.433  10.146  0.3945  0.5837 -0.8976
  190DOPC   H9X23493   5.940   2.345  10.097  0.0999 -0.6064  0.9023
  190DOPC  C31023494   5.857   2.431  10.272  0.0212 -0.2639  0.2203
  190DOPC  H10X23495   5.883   2.340  10.329  0.6797  0.9533  1.9384
  190DOPC  C31123496   5.783   2.531  10.354 -0.5813 -0.1269  0.2888
  190DOPC  H11X23497   5.673   2.513  10.356 -0.4390 -1.0517 -0.0992
  190DOPC  H11Y23498   5.802   2.631  10.310  1.7049 -0.6276  0.0533
  190DOPC  C31223499   5.828   2.525  10.505  0.2619  0.0477 -0.4730
  190DOPC  H12X23500   5.792   2.615  10.559 -0.5540 -0.2213 -0.5558
  190DOPC  H12Y23501   5.938   2.524  10.514  0.4838  3.5686 -1.5551
  190DOPC  C31323502   5.751   2.404  10.571 -0.1417 -0.3215  0.2728
  190DOPC  H13X23503   5.646   2.439  10.573 -0.0116  0.4685 -2.3969
  190DOPC  H13Y23504   5.756   2.325  10.494  1.3647  2.1192 -2.3605
  190DOPC  C31423505   5.795   2.358  10.703 -0.3455 -0.5183 -0.1222
  190DOPC  H14X23506   5.730   2.274  10.735  0.4489 -0.8223  0.7385
  190DOPC  H14Y23507   5.889   2.301  10.682  1.4977  2.0321  0.7377
  190DOPC  C31523508   5.820   2.465  10.819  0.0206 -0.1912 -0.4064
  190DOPC  H15X23509   5.722   2.512  10.840  0.5177  0.6200  0.1705
  190DOPC  H15Y23510   5.885   2.545  10.776  2.0025 -2.2575 -1.4956
  190DOPC  C31623511   5.862   2.403  10.959  0.7394 -0.3639  0.4680
  190DOPC  H16X23512   5.772   2.346  10.991  1.1860  0.1092  2.6912
  190DOPC  H16Y23513   5.955   2.346  10.940  2.5667  2.6504 -0.2587
  190DOPC  C31723514   5.886   2.512  11.071  0.2307 -0.1478 -0.1677
  190DOPC  H17X23515   5.953   2.470  11.150  0.8112  1.9366  0.5023
  190DOPC  H17Y23516   5.940   2.599  11.028  0.3445 -0.9613 -1.7270
  190DOPC  C31823517   5.759   2.568  11.139 -0.1989 -0.5698  0.9886
  190DOPC  H18X23518   5.707   2.631  11.064 -0.8133 -0.0406  1.8452
  190DOPC  H18Y23519   5.693   2.485  11.172 -1.1924 -0.5828 -0.8859
  190DOPC  H18Z23520   5.781   2.636  11.223  1.1274 -1.1680  1.1579
  191DOPC     N23521   6.223   5.979   8.531  0.0739 -0.8283 -0.6115
  191DOPC   C1223522   6.153   6.015   8.665  0.5981 -0.3726  0.6552
  191DOPC  H12A23523   6.120   5.921   8.707  1.0146 -0.3879  0.9461
  191DOPC  H12B23524   6.055   6.057   8.645  0.4212 -0.0773  2.0735
  191DOPC   C1323525   6.336   5.889   8.550 -0.6729 -0.4586  0.3601
  191DOPC  H13A23526   6.408   5.935   8.616 -2.0428 -1.0522  2.3408
  191DOPC  H13B23527   6.307   5.786   8.564  0.7602 -0.8031  1.0576
  191DOPC  H13C23528   6.388   5.881   8.455 -0.1164  0.1614  0.6014
  191DOPC   C1423529   6.270   6.109   8.454  0.4133  0.5122  0.0560
  191DOPC  H14A23530   6.180   6.166   8.438 -0.1505 -0.1531  0.7359
  191DOPC  H14B23531   6.339   6.168   8.512 -0.9289  0.3507  1.9071
  191DOPC  H14C23532   6.301   6.093   8.352 -1.8849 -0.1215 -0.5915
  191DOPC   C1523533   6.130   5.907   8.446  0.0273  0.0356 -0.4421
  191DOPC  H15A23534   6.039   5.964   8.445  0.4009  0.6446 -0.9700
  191DOPC  H15B23535   6.108   5.809   8.486  0.8913  0.7705  2.0166
  191DOPC  H15C23536   6.161   5.898   8.343 -0.5383  0.3688 -0.6445
  191DOPC   C1123537   6.236   6.096   8.767 -0.3449  0.3618  0.7404
  191DOPC  H11A23538   6.282   6.167   8.696 -2.9945  1.1196 -0.3483
  191DOPC  H11B23539   6.166   6.163   8.822 -0.0961  2.2102 -1.0484
  191DOPC     P23540   6.294   5.922   8.956  0.2323  0.0703 -0.2796
  191DOPC   O1323541   6.389   5.812   8.955 -0.1377 -0.1797  0.0139
  191DOPC   O1423542   6.150   5.889   8.943  0.4409 -0.7768 -0.6398
  191DOPC   O1223543   6.332   6.021   8.837 -0.2922  0.3844 -0.7069
  191DOPC   O1123544   6.311   6.013   9.085  0.2677 -0.5445 -0.1386
  191DOPC    C123545   6.235   6.135   9.098  0.2298 -0.4221  1.1690
  191DOPC    HA23546   6.133   6.119   9.057  0.4472  0.2629  0.3618
  191DOPC    HB23547   6.285   6.216   9.041 -2.8453 -0.2502 -1.5855
  191DOPC    C223548   6.220   6.180   9.241  0.5613 -0.4588  0.0064
  191DOPC    HS23549   6.140   6.257   9.249  1.1870  0.2518 -0.4109
  191DOPC   O2123550   6.350   6.221   9.292 -0.2047 -0.0392 -0.3209
  191DOPC   C2123551   6.363   6.348   9.287 -0.6828 -0.4128 -0.9804
  191DOPC   O2223552   6.277   6.428   9.251  0.0415 -0.1387 -0.2221
  191DOPC   C2223553   6.511   6.378   9.329  0.4891  0.5088  0.5464
  191DOPC   H2R23554   6.567   6.372   9.233  0.3562 -0.8323  0.5275
  191DOPC   H2S23555   6.542   6.300   9.402 -1.7104  0.7050  1.7658
  191DOPC    C323556   6.150   6.062   9.322 -0.5678 -0.1398 -1.4062
  191DOPC    HX23557   6.212   5.970   9.319 -1.4501 -0.8659  0.8906
  191DOPC    HY23558   6.053   6.036   9.274 -0.2524  0.3090 -2.3164
  191DOPC   O3123559   6.133   6.100   9.455  0.5970 -0.0102  0.6369
  191DOPC   C3123560   6.223   6.082   9.545 -0.4630  0.1544 -0.3310
  191DOPC   O3223561   6.334   6.031   9.529  0.0396 -0.3084  0.1494
  191DOPC   C3223562   6.176   6.160   9.673 -0.3679  0.1141 -0.0351
  191DOPC   H2X23563   6.236   6.253   9.669  0.3194 -0.3113  0.2465
  191DOPC   H2Y23564   6.071   6.191   9.653 -0.9487 -1.1187  0.9008
  191DOPC   C2323565   6.540   6.514   9.398 -0.4892 -0.3550 -0.2887
  191DOPC   H3R23566   6.500   6.598   9.337  0.3661  0.5501  0.3500
  191DOPC   H3S23567   6.650   6.529   9.399 -0.8043  2.7156  1.7654
  191DOPC   C2423568   6.488   6.518   9.544  0.0914 -0.7882 -0.3721
  191DOPC   H4R23569   6.381   6.488   9.549  0.3111 -2.0800 -2.1162
  191DOPC   H4S23570   6.497   6.622   9.582 -0.5265 -0.3941 -1.2653
  191DOPC   C2523571   6.558   6.432   9.643 -0.1965  0.5030 -0.1888
  191DOPC   H5R23572   6.664   6.419   9.612  0.3168  1.3448  1.1284
  191DOPC   H5S23573   6.512   6.331   9.652 -0.6616  0.8187  1.2229
  191DOPC   C2623574   6.545   6.478   9.790  0.1920 -0.8762  0.9314
  191DOPC   H6R23575   6.600   6.574   9.797  0.9252 -1.1293 -0.7875
  191DOPC   H6S23576   6.604   6.408   9.854 -0.4084 -1.8340  0.4696
  191DOPC   C2723577   6.397   6.503   9.835 -0.2143 -0.1383  0.7622
  191DOPC   H7R23578   6.333   6.413   9.820 -0.5625  0.0522  1.0930
  191DOPC   H7S23579   6.361   6.590   9.775 -0.8531  0.3023  1.7556
  191DOPC   C2823580   6.386   6.561   9.976 -0.0133 -0.8425 -0.0788
  191DOPC   H8R23581   6.280   6.582  10.002  0.1409 -1.0118  0.7115
  191DOPC   H8S23582   6.431   6.663   9.975  1.5547 -1.4724  1.7155
  191DOPC   C2923583   6.435   6.471  10.082  0.6277  0.3151 -0.2141
  191DOPC   H9R23584   6.387   6.372  10.093  2.3080 -0.4006  1.2169
  191DOPC  C21023585   6.531   6.493  10.167 -0.1608 -0.0067  0.7365
  191DOPC  H10R23586   6.553   6.423  10.249 -0.0116  0.7260  1.3331
  191DOPC  C21123587   6.601   6.628  10.166  0.5153 -0.6612 -0.3119
  191DOPC  H11R23588   6.611   6.679  10.067  1.5847  0.8225  0.5161
  191DOPC  H11S23589   6.709   6.607  10.185  0.8807  1.3586  0.0863
  191DOPC  C21223590   6.552   6.721  10.277  0.1412  0.6370 -0.6549
  191DOPC  H12R23591   6.442   6.733  10.266 -0.1607 -1.4865 -0.2668
  191DOPC  H12S23592   6.595   6.824  10.272 -0.8739  1.1212  0.1313
  191DOPC  C21323593   6.593   6.669  10.419 -0.6360  0.3299  0.9200
  191DOPC  H13R23594   6.704   6.668  10.420 -0.5556  2.6698  0.7978
  191DOPC  H13S23595   6.549   6.569  10.440  0.9161 -0.8856 -1.2120
  191DOPC  C21423596   6.569   6.764  10.528 -0.3209  0.4847 -0.0311
  191DOPC  H14R23597   6.465   6.797  10.507 -0.7910 -1.9828 -2.0438
  191DOPC  H14S23598   6.633   6.854  10.513  0.4075 -0.0417 -0.1784
  191DOPC  C21523599   6.589   6.709  10.669 -0.4199  0.1777 -0.1796
  191DOPC  H15R23600   6.679   6.645  10.664  0.1811  0.9843  0.1749
  191DOPC  H15S23601   6.495   6.656  10.698 -0.4910 -0.6806 -1.8095
  191DOPC  C21623602   6.600   6.830  10.772 -0.2473  0.1682  0.6942
  191DOPC  H16R23603   6.509   6.892  10.757  0.1164  0.7619  0.9047
  191DOPC  H16S23604   6.684   6.886  10.724  0.6713 -2.7048 -1.2984
  191DOPC  C21723605   6.626   6.786  10.913 -0.2171 -0.4076 -0.7832
  191DOPC  H17R23606   6.706   6.709  10.901  1.4223  1.2308 -0.7917
  191DOPC  H17S23607   6.527   6.755  10.953 -0.5732  1.3219 -0.2777
  191DOPC  C21823608   6.687   6.894  11.007 -0.3946  0.0049 -0.0704
  191DOPC  H18R23609   6.612   6.958  11.058 -0.0339 -1.0029  1.7913
  191DOPC  H18S23610   6.751   6.967  10.953  0.9558  1.4776  3.2966
  191DOPC  H18T23611   6.753   6.835  11.073  0.2752 -0.4128 -1.0817
  191DOPC   C3323612   6.186   6.082   9.804 -0.0385 -0.0052  0.8653
  191DOPC   H3X23613   6.162   5.977   9.775  0.5544 -0.0569  0.5337
  191DOPC   H3Y23614   6.112   6.107   9.883 -0.5393 -0.0038  0.4042
  191DOPC   C3423615   6.322   6.085   9.876 -0.3570 -0.0444 -0.4899
  191DOPC   H4X23616   6.342   6.189   9.907 -2.6741  0.8952 -1.8941
  191DOPC   H4Y23617   6.397   6.059   9.798  0.0109  0.8733 -0.4474
  191DOPC   C3523618   6.342   5.994  10.000 -0.4929  0.7376  0.0550
  191DOPC   H5X23619   6.443   5.951  10.017 -1.9015 -2.8932  0.0680
  191DOPC   H5Y23620   6.270   5.910   9.988 -1.3348  1.6647 -1.9092
  191DOPC   C3623621   6.316   6.081  10.131  0.0743  0.2762  0.2941
  191DOPC   H6X23622   6.390   6.164  10.126  0.4150  0.2470  3.2059
  191DOPC   H6Y23623   6.214   6.124  10.136 -0.3844 -0.9101  2.6809
  191DOPC   C3723624   6.343   6.000  10.258 -0.0871 -0.5974  0.1777
  191DOPC   H7X23625   6.283   5.906  10.258  0.3433 -0.9237  2.1728
  191DOPC   H7Y23626   6.445   5.958  10.250 -0.1137 -0.6884  0.3083
  191DOPC   C3823627   6.332   6.080  10.389  0.5051 -0.6039 -0.0852
  191DOPC   H8X23628   6.364   6.009  10.469  1.3099  0.4378  0.5383
  191DOPC   H8Y23629   6.227   6.116  10.395  1.2961  2.2064 -1.4693
  191DOPC   C3923630   6.421   6.204  10.403  0.2403  0.5825 -0.0202
  191DOPC   H9X23631   6.522   6.186  10.362 -0.7458 -1.2106 -1.8502
  191DOPC  C31023632   6.382   6.321  10.461  0.0845  0.3908 -0.2905
  191DOPC  H10X23633   6.457   6.389  10.502 -0.4898  1.1490 -0.4811
  191DOPC  C31123634   6.246   6.347  10.513 -0.2117  0.0773  0.4695
  191DOPC  H11X23635   6.175   6.319  10.432  0.5521 -1.0082  0.1553
  191DOPC  H11Y23636   6.231   6.457  10.527 -0.4274  0.1387 -0.2029
  191DOPC  C31223637   6.207   6.288  10.647 -0.4482  0.2187 -0.0190
  191DOPC  H12X23638   6.212   6.177  10.654 -2.7666  0.1746  3.7362
  191DOPC  H12Y23639   6.098   6.307  10.657 -0.1412  2.4423 -0.4409
  191DOPC  C31323640   6.287   6.341  10.768 -0.6210 -0.4675  0.6207
  191DOPC  H13X23641   6.390   6.300  10.756  0.0662  0.9220  1.4151
  191DOPC  H13Y23642   6.292   6.452  10.773 -1.9170 -0.4233  1.4446
  191DOPC  C31423643   6.215   6.281  10.887  0.3844 -0.6822  0.3164
  191DOPC  H14X23644   6.111   6.318  10.895  0.8863  1.0634 -0.7299
  191DOPC  H14Y23645   6.220   6.171  10.872  1.3818 -0.2383 -3.7521
  191DOPC  C31523646   6.281   6.312  11.021 -0.0368  0.1414 -0.3266
  191DOPC  H15X23647   6.391   6.318  11.007  0.0552  0.1180  0.3361
  191DOPC  H15Y23648   6.249   6.240  11.099 -0.8616 -1.5175 -2.0989
  191DOPC  C31623649   6.221   6.443  11.076  0.7092 -0.6547  0.0792
  191DOPC  H16X23650   6.236   6.526  11.004 -2.6480 -0.3008 -0.3715
  191DOPC  H16Y23651   6.112   6.420  11.081  0.3278  1.0527  0.0900
  191DOPC  C31723652   6.251   6.486  11.217 -1.0177 -0.4040  0.5571
  191DOPC  H17X23653   6.284   6.399  11.279 -1.2867 -1.1983 -0.3921
  191DOPC  H17Y23654   6.339   6.554  11.208  0.9909 -2.7685  1.0766
  191DOPC  C31823655   6.141   6.562  11.286 -0.1541  0.5142 -0.4085
  191DOPC  H18X23656   6.107   6.644  11.219  0.6681 -1.5270 -3.5873
  191DOPC  H18Y23657   6.048   6.501  11.298 -1.0689  1.9994  0.3475
  191DOPC  H18Z23658   6.169   6.597  11.387 -1.3985 -0.2160  0.2210
  192DOPC     N23659   3.809   0.254   8.470  0.0530 -0.0304  0.0582
  192DOPC   C1223660   3.769   0.231   8.614 -0.2273  0.0176 -0.4181
  192DOPC  H12A23661   3.837   0.153   8.646 -0.8230 -0.3305  0.0185
  192DOPC  H12B23662   3.669   0.193   8.630 -0.0938  0.2070  1.0266
  192DOPC   C1323663   3.950   0.295   8.461 -0.8527 -0.1589  0.0544
  192DOPC  H13A23664   4.021   0.236   8.516  0.6073 -1.8507 -3.3171
  192DOPC  H13B23665   3.985   0.287   8.359  1.4481 -0.7606  0.8439
  192DOPC  H13C23666   3.955   0.398   8.490 -3.5827 -0.5450  2.4218
  192DOPC   C1423667   3.725   0.363   8.411 -0.1743 -0.1851  0.0930
  192DOPC  H14A23668   3.707   0.447   8.476 -3.1941  0.2743 -1.1810
  192DOPC  H14B23669   3.771   0.392   8.318  0.8205 -3.1461 -0.4621
  192DOPC  H14C23670   3.630   0.319   8.385  1.0702 -0.8329 -3.9854
  192DOPC   C1523671   3.790   0.126   8.393 -0.2560  0.2531 -0.8434
  192DOPC  H15A23672   3.683   0.108   8.393 -0.2618  0.2055 -2.2461
  192DOPC  H15B23673   3.836   0.039   8.436  1.9367  0.9934 -1.5785
  192DOPC  H15C23674   3.832   0.134   8.294  0.7289 -1.0221 -0.5438
  192DOPC   C1123675   3.792   0.344   8.719  0.9073 -0.2485  0.8341
  192DOPC  H11A23676   3.758   0.302   8.817  2.1621 -0.9276  1.0056
  192DOPC  H11B23677   3.901   0.363   8.716  0.7789  0.4125  0.3476
  192DOPC     P23678   3.762   0.596   8.669 -0.3487 -0.0682 -0.1307
  192DOPC   O1323679   3.646   0.679   8.638  0.0007  0.1396 -0.2120
  192DOPC   O1423680   3.877   0.599   8.571  0.0598  0.4094  0.1257
  192DOPC   O1223681   3.701   0.452   8.685 -0.6244  0.1319 -0.1775
  192DOPC   O1123682   3.824   0.622   8.811  0.4109 -0.4791 -0.0650
  192DOPC    C123683   3.754   0.713   8.894  0.3962  1.0801 -0.4409
  192DOPC    HA23684   3.644   0.721   8.877  0.4740  1.2237 -0.8835
  192DOPC    HB23685   3.793   0.815   8.879  3.1842  0.5091  2.0444
  192DOPC    C223686   3.776   0.672   9.045  0.3011  0.3441  0.9645
  192DOPC    HS23687   3.735   0.753   9.109 -0.0316  1.3885 -0.5139
  192DOPC   O2123688   3.914   0.652   9.076  0.2353 -0.0651  0.2131
  192DOPC   C2123689   3.983   0.762   9.114  0.3679 -0.0895  0.0293
  192DOPC   O2223690   3.934   0.874   9.127  0.0555 -0.5300 -0.0190
  192DOPC   C2223691   4.126   0.726   9.154  0.1400 -0.3103  0.1753
  192DOPC   H2R23692   4.185   0.821   9.154 -0.8344  0.3373  1.4990
  192DOPC   H2S23693   4.164   0.658   9.076  0.6088  0.3933 -0.2247
  192DOPC    C323694   3.703   0.543   9.078  0.3978 -0.0203  0.0036
  192DOPC    HX23695   3.741   0.466   9.008  1.1659 -0.0661  0.4666
  192DOPC    HY23696   3.600   0.556   9.038  1.4808 -0.0462 -3.0809
  192DOPC   O3123697   3.705   0.491   9.207  0.5692  0.2154  0.0276
  192DOPC   C3123698   3.790   0.398   9.226  0.3489  0.7405 -0.1917
  192DOPC   O3223699   3.875   0.359   9.150 -0.1828 -0.5346  0.3155
  192DOPC   C3223700   3.768   0.349   9.374  0.0441  0.4213 -0.3749
  192DOPC   H2X23701   3.764   0.438   9.441  0.6888 -0.2015  0.5155
  192DOPC   H2Y23702   3.665   0.308   9.378  0.7090 -1.2751  1.9578
  192DOPC   C2323703   4.134   0.663   9.298  0.3660 -0.6540 -0.3379
  192DOPC   H3R23704   4.234   0.617   9.312  0.7805 -0.0294 -1.1763
  192DOPC   H3S23705   4.067   0.575   9.286  0.8104 -0.9301 -0.8359
  192DOPC   C2423706   4.113   0.747   9.421  0.1152 -0.0352  0.5561
  192DOPC   H4R23707   4.007   0.776   9.437 -0.6811 -2.4221  0.0313
  192DOPC   H4S23708   4.165   0.845   9.406 -0.7456  0.5306  1.2015
  192DOPC   C2523709   4.168   0.694   9.554  0.5152  0.0968  0.4298
  192DOPC   H5R23710   4.276   0.666   9.553 -0.1253 -2.6876 -0.3423
  192DOPC   H5S23711   4.122   0.596   9.577  2.9813 -2.2101 -3.3110
  192DOPC   C2623712   4.142   0.810   9.649  0.2460 -0.2742 -0.1430
  192DOPC   H6R23713   4.032   0.805   9.668 -0.1324 -1.8330 -2.2959
  192DOPC   H6S23714   4.175   0.904   9.601 -0.6984  0.5710  0.8375
  192DOPC   C2723715   4.216   0.782   9.779 -0.5520  0.2490 -0.5372
  192DOPC   H7R23716   4.323   0.761   9.755 -0.9571  0.1110 -2.3474
  192DOPC   H7S23717   4.177   0.687   9.821  1.8810 -0.9076 -0.7066
  192DOPC   C2823718   4.210   0.902   9.884 -0.6787  0.2950  0.0630
  192DOPC   H8R23719   4.100   0.910   9.901 -0.8613  0.0746 -0.9920
  192DOPC   H8S23720   4.244   0.991   9.827 -0.3134 -0.5281 -1.0369
  192DOPC   C2923721   4.282   0.872  10.014  0.6244 -0.2094  0.5350
  192DOPC   H9R23722   4.226   0.817  10.091 -2.6662  1.2633 -0.6313
  192DOPC  C21023723   4.403   0.926  10.039  0.3058 -0.0756 -0.2202
  192DOPC  H10R23724   4.456   0.889  10.129 -3.2079 -1.8354  1.3274
  192DOPC  C21123725   4.480   1.015   9.943  0.1801 -0.1361 -0.2862
  192DOPC  H11R23726   4.419   1.085   9.882 -0.7424  0.4287  1.2564
  192DOPC  H11S23727   4.513   0.943   9.864 -2.1654 -0.4686 -1.0381
  192DOPC  C21223728   4.594   1.090  10.007 -0.0874  0.2094  0.5263
  192DOPC  H12R23729   4.645   1.150   9.928 -1.4505  0.0824 -0.4954
  192DOPC  H12S23730   4.675   1.032  10.056  0.7758  0.4769 -0.5277
  192DOPC  C21323731   4.543   1.193  10.110  0.3187 -0.2229 -0.5080
  192DOPC  H13R23732   4.500   1.139  10.198  1.2615 -1.1143 -0.5807
  192DOPC  H13S23733   4.466   1.252  10.057  1.2303  0.6714 -0.8747
  192DOPC  C21423734   4.663   1.284  10.169 -0.0269  0.1374 -0.9202
  192DOPC  H14R23735   4.717   1.322  10.079  0.3548 -1.2031 -1.2737
  192DOPC  H14S23736   4.733   1.230  10.236  0.4359 -0.0617 -1.5493
  192DOPC  C21523737   4.614   1.405  10.253 -0.4378  0.4164 -0.3903
  192DOPC  H15R23738   4.563   1.464  10.174  2.5349  0.1133 -2.7249
  192DOPC  H15S23739   4.699   1.469  10.285  0.9284 -0.9073 -1.2096
  192DOPC  C21623740   4.543   1.366  10.377 -0.2943  0.4815  0.4785
  192DOPC  H16R23741   4.592   1.277  10.422  0.4686  1.5456  1.8561
  192DOPC  H16S23742   4.441   1.326  10.356  0.4766 -1.0930 -0.4070
  192DOPC  C21723743   4.532   1.471  10.489  0.1725 -0.2742  0.2610
  192DOPC  H17R23744   4.463   1.547  10.445  1.9628  0.3126 -1.6998
  192DOPC  H17S23745   4.631   1.519  10.506 -0.3109  0.3760  1.3516
  192DOPC  C21823746   4.466   1.432  10.622 -0.2072  0.4984 -0.2552
  192DOPC  H18R23747   4.508   1.352  10.687 -0.7395  0.3530 -0.0844
  192DOPC  H18S23748   4.359   1.410  10.602 -0.1070 -2.1895  1.5782
  192DOPC  H18T23749   4.466   1.526  10.682 -1.3654  1.3220 -1.4751
  192DOPC   C3323750   3.869   0.250   9.431 -0.3718 -0.1658  0.7204
  192DOPC   H3X23751   3.875   0.157   9.371 -0.1207 -0.8148  1.7267
  192DOPC   H3Y23752   3.825   0.217   9.527 -2.7764  0.1198 -0.2106
  192DOPC   C3423753   4.014   0.310   9.446 -0.2540  0.5304  0.5241
  192DOPC   H4X23754   4.004   0.421   9.455  2.2281  0.9418 -1.0012
  192DOPC   H4Y23755   4.070   0.292   9.352 -1.7063  2.0919 -0.7278
  192DOPC   C3523756   4.095   0.225   9.551 -0.5959 -0.2197  0.5577
  192DOPC   H5X23757   4.204   0.240   9.538 -1.1608  2.4923 -2.7742
  192DOPC   H5Y23758   4.067   0.120   9.528 -1.5194  0.4712 -1.8223
  192DOPC   C3623759   4.049   0.257   9.697  0.2938  0.0287  0.3212
  192DOPC   H6X23760   4.082   0.359   9.727 -0.2616  0.4936 -0.5998
  192DOPC   H6Y23761   3.939   0.259   9.710  0.4973  2.0606  2.4134
  192DOPC   C3723762   4.097   0.160   9.805  0.6693  0.1803  0.8825
  192DOPC   H7X23763   4.038   0.067   9.797 -1.7129  1.4011  2.7805
  192DOPC   H7Y23764   4.205   0.139   9.792  0.4023 -0.7684  0.0612
  192DOPC   C3823765   4.063   0.206   9.952  0.1363 -0.3126  0.5635
  192DOPC   H8X23766   3.955   0.223   9.936  0.0347 -1.1657  0.3402
  192DOPC   H8Y23767   4.112   0.298   9.992  0.9094 -0.2397 -0.5080
  192DOPC   C3923768   4.100   0.106  10.055  0.1661 -0.0661  1.3518
  192DOPC   H9X23769   4.154   0.020  10.012  0.4204  0.4929  0.5168
  192DOPC  C31023770   4.052   0.106  10.180 -0.6672  0.3888  0.1266
  192DOPC  H10X23771   4.082   0.031  10.255 -0.5284  0.8525  0.5423
  192DOPC  C31123772   3.965   0.211  10.239 -0.5422 -0.1759  0.6732
  192DOPC  H11X23773   3.965   0.303  10.177  0.6363 -0.8458 -0.3450
  192DOPC  H11Y23774   4.005   0.238  10.340  0.3912 -0.7940  0.4782
  192DOPC  C31223775   3.818   0.164  10.244 -0.5712 -0.0409  0.5238
  192DOPC  H12X23776   3.807   0.055  10.261 -2.9751  0.3614  2.1455
  192DOPC  H12Y23777   3.781   0.190  10.143 -0.3434 -3.3047 -0.4790
  192DOPC  C31323778   3.734   0.231  10.350 -0.3267 -0.8680 -0.0911
  192DOPC  H13X23779   3.762   0.188  10.449  0.7744  0.3328  0.1467
  192DOPC  H13Y23780   3.772   0.334  10.365  1.8537 -1.7679  1.1739
  192DOPC  C31423781   3.581   0.222  10.325  0.7913  0.3148 -0.4271
  192DOPC  H14X23782   3.550   0.249  10.222  0.5116  1.4531 -0.0641
  192DOPC  H14Y23783   3.548   0.116  10.330  2.2506 -0.2436 -1.8864
  192DOPC  C31523784   3.511   0.300  10.433  0.5897 -0.1193 -0.3140
  192DOPC  H15X23785   3.403   0.313  10.409 -0.1261  1.6475  3.1886
  192DOPC  H15Y23786   3.555   0.402  10.437  1.2091 -0.3444 -1.1077
  192DOPC  C31623787   3.507   0.232  10.575 -0.4295 -0.2545  0.6533
  192DOPC  H16X23788   3.473   0.126  10.569 -1.7170  0.0856  1.6053
  192DOPC  H16Y23789   3.609   0.208  10.612 -0.4621  0.0544  0.9460
  192DOPC  C31723790   3.411   0.312  10.674 -0.0073  0.3200  1.1521
  192DOPC  H17X23791   3.478   0.388  10.720  1.3188 -0.0443 -0.0979
  192DOPC  H17Y23792   3.344   0.362  10.600  1.2923 -0.4587 -0.6057
  192DOPC  C31823793   3.334   0.224  10.773  0.1586 -0.6952  0.1166
  192DOPC  H18X23794   3.249   0.272  10.827 -1.1769 -0.4058 -2.1217
  192DOPC  H18Y23795   3.278   0.151  10.710 -0.2606 -1.2470  1.1131
  192DOPC  H18Z23796   3.389   0.168  10.851 -1.0492  0.2655  1.7117
  193DOPC     N23797   2.736   2.533   8.481  0.7514 -0.0279 -0.3662
  193DOPC   C1223798   2.804   2.514   8.607  0.7980  0.3060 -0.5851
  193DOPC  H12A23799   2.745   2.438   8.656 -2.5015  1.3423 -2.6009
  193DOPC  H12B23800   2.783   2.597   8.673  2.7781  1.6236 -1.5161
  193DOPC   C1323801   2.582   2.526   8.504  0.2089 -0.4961  1.1369
  193DOPC  H13A23802   2.550   2.587   8.587 -1.1379 -0.0359  0.3088
  193DOPC  H13B23803   2.537   2.552   8.409 -0.7318 -0.6545  1.5244
  193DOPC  H13C23804   2.549   2.426   8.528 -1.7646  0.1850  1.4966
  193DOPC   C1423805   2.780   2.427   8.384  0.7664  0.5692  0.2393
  193DOPC  H14A23806   2.869   2.468   8.338 -0.8035 -0.4353 -4.2673
  193DOPC  H14B23807   2.793   2.330   8.428  2.8611  0.2582 -0.9271
  193DOPC  H14C23808   2.715   2.431   8.298 -1.4289 -1.3815  1.6881
  193DOPC   C1523809   2.764   2.668   8.427  0.3170 -0.9174 -0.0950
  193DOPC  H15A23810   2.715   2.702   8.337 -1.4701  0.5125  1.3203
  193DOPC  H15B23811   2.870   2.681   8.412 -0.1685  3.1884 -1.2371
  193DOPC  H15C23812   2.733   2.742   8.500  0.0179 -1.0968 -0.0392
  193DOPC   C1123813   2.959   2.496   8.615 -0.0096 -0.2502  0.4284
  193DOPC  H11A23814   2.991   2.487   8.721  0.7484 -0.0623  0.2221
  193DOPC  H11B23815   2.991   2.407   8.556  2.2950  0.7806  0.0071
  193DOPC     P23816   3.047   2.745   8.624 -0.0623 -0.7355  0.0089
  193DOPC   O1323817   2.970   2.844   8.547 -0.1157 -0.5551  0.3012
  193DOPC   O1423818   3.188   2.782   8.642 -0.0926  0.4920  0.5477
  193DOPC   O1223819   3.028   2.607   8.553  0.1701 -0.7742 -0.3145
  193DOPC   O1123820   2.991   2.718   8.770  0.5974  0.0367 -0.0083
  193DOPC    C123821   2.904   2.808   8.836 -0.5840  0.2476  0.0178
  193DOPC    HA23822   2.796   2.793   8.816 -0.8282  0.8259  0.8746
  193DOPC    HB23823   2.916   2.915   8.808 -2.4941  0.2594 -0.8662
  193DOPC    C223824   2.912   2.794   8.994 -0.1659  0.0670  0.5738
  193DOPC    HS23825   2.885   2.891   9.041 -0.5513 -1.5629  3.9562
  193DOPC   O2123826   3.042   2.744   9.028  0.0169 -0.6406  0.4229
  193DOPC   C2123827   3.142   2.831   9.029  0.0117 -0.4974 -0.0663
  193DOPC   O2223828   3.132   2.954   9.024  0.1000 -0.4964  0.4582
  193DOPC   C2223829   3.267   2.746   9.039 -0.2974  0.3641 -0.4461
  193DOPC   H2R23830   3.350   2.802   8.990 -1.2237  2.6613  0.4897
  193DOPC   H2S23831   3.257   2.651   8.983  2.0429 -0.5958  0.6463
  193DOPC    C323832   2.811   2.692   9.058  0.4574  0.0399  0.7810
  193DOPC    HX23833   2.837   2.591   9.019 -1.1161 -0.2610  0.4074
  193DOPC    HY23834   2.711   2.712   9.012  1.4631 -1.4016 -2.2761
  193DOPC   O3123835   2.809   2.719   9.203  0.2095 -0.6303 -0.3357
  193DOPC   C3123836   2.865   2.635   9.277 -0.4691  0.3117  0.0254
  193DOPC   O3223837   2.927   2.533   9.242  0.0074 -0.9975 -0.3420
  193DOPC   C3223838   2.838   2.671   9.424 -0.9820  0.1819 -0.1343
  193DOPC   H2X23839   2.871   2.777   9.430  0.9959 -0.3712 -0.3877
  193DOPC   H2Y23840   2.733   2.652   9.453 -1.4769  0.7055 -1.5071
  193DOPC   C2323841   3.300   2.705   9.188  0.1953 -0.6383  0.2565
  193DOPC   H3R23842   3.211   2.681   9.250  0.0276  0.3562  0.4125
  193DOPC   H3S23843   3.344   2.794   9.238 -2.0298 -1.1417  3.3708
  193DOPC   C2423844   3.386   2.581   9.193 -0.4913 -0.4174  0.2711
  193DOPC   H4R23845   3.491   2.618   9.199 -0.6534  0.1089 -0.0762
  193DOPC   H4S23846   3.372   2.520   9.101  0.3787  0.8900 -0.7806
  193DOPC   C2523847   3.361   2.497   9.320 -0.0655 -0.1348  0.6582
  193DOPC   H5R23848   3.434   2.414   9.313 -0.6797 -0.5798 -0.9494
  193DOPC   H5S23849   3.263   2.446   9.306 -0.0132  0.0660 -0.5368
  193DOPC   C2623850   3.379   2.569   9.454 -0.1465 -0.4359 -0.1790
  193DOPC   H6R23851   3.310   2.655   9.470  1.6652  0.9660  0.4417
  193DOPC   H6S23852   3.472   2.626   9.436  0.3487 -0.7683  1.2039
  193DOPC   C2723853   3.393   2.484   9.576 -0.3010  0.1739 -0.8049
  193DOPC   H7R23854   3.432   2.381   9.557 -1.1452 -0.5612  1.2303
  193DOPC   H7S23855   3.290   2.473   9.615 -0.4846  0.9165 -1.0669
  193DOPC   C2823856   3.488   2.546   9.684  0.0641 -0.4366 -0.8909
  193DOPC   H8R23857   3.584   2.574   9.636  0.3143  0.4639  0.0753
  193DOPC   H8S23858   3.521   2.473   9.761  0.4698  0.0609 -0.5787
  193DOPC   C2923859   3.423   2.672   9.747 -0.1584 -0.1826 -0.3003
  193DOPC   H9R23860   3.321   2.699   9.715  0.8044  0.5045 -3.0333
  193DOPC  C21023861   3.491   2.736   9.841 -0.4675  0.5543  0.1462
  193DOPC  H10R23862   3.431   2.813   9.892  0.4541  0.7112  1.0248
  193DOPC  C21123863   3.624   2.705   9.904  0.0326 -0.0932 -0.6048
  193DOPC  H11R23864   3.709   2.746   9.846  0.2523 -1.2984 -1.1473
  193DOPC  H11S23865   3.644   2.597   9.920  2.5034  0.5657  1.4398
  193DOPC  C21223866   3.656   2.746  10.048  0.5249 -0.2499 -0.7100
  193DOPC  H12R23867   3.669   2.857  10.046 -1.8051  0.0765 -0.8049
  193DOPC  H12S23868   3.757   2.705  10.069  0.8227  0.2748 -1.0887
  193DOPC  C21323869   3.552   2.702  10.150  0.2491 -0.5032 -0.6703
  193DOPC  H13R23870   3.536   2.596  10.123 -2.3757 -1.1349  2.7432
  193DOPC  H13S23871   3.456   2.753  10.129  0.0048 -1.0567 -0.9085
  193DOPC  C21423872   3.580   2.714  10.300  0.3812  0.0480 -0.4016
  193DOPC  H14R23873   3.676   2.661  10.317  0.5163  0.3146 -0.3395
  193DOPC  H14S23874   3.503   2.657  10.358 -0.4545  0.6518 -0.8904
  193DOPC  C21523875   3.589   2.858  10.361  0.4161 -0.1885 -0.1447
  193DOPC  H15R23876   3.483   2.873  10.391  0.0280 -1.8904 -0.5707
  193DOPC  H15S23877   3.621   2.928  10.281 -0.4422 -0.0323 -0.3674
  193DOPC  C21623878   3.680   2.862  10.480 -0.6647  0.3935  0.5661
  193DOPC  H16R23879   3.696   2.967  10.512 -0.0557  0.7497 -0.8235
  193DOPC  H16S23880   3.780   2.825  10.447 -1.3589  0.5386 -1.8920
  193DOPC  C21723881   3.643   2.772  10.595 -0.0084 -0.0871 -0.2259
  193DOPC  H17R23882   3.738   2.760  10.652 -0.5737  0.3681  0.8573
  193DOPC  H17S23883   3.633   2.671  10.550  2.4296 -1.0105  1.0890
  193DOPC  C21823884   3.533   2.830  10.687 -0.4196 -0.3320  0.5310
  193DOPC  H18R23885   3.568   2.928  10.726  1.7366 -0.8343  0.0108
  193DOPC  H18S23886   3.506   2.768  10.775 -0.9640 -0.5333  0.2276
  193DOPC  H18T23887   3.439   2.841  10.629 -0.5609 -0.5605  0.7180
  193DOPC   C3323888   2.945   2.580   9.504  0.2449 -0.0881 -0.2382
  193DOPC   H3X23889   3.048   2.585   9.462 -0.0042  0.4611 -0.8043
  193DOPC   H3Y23890   2.912   2.474   9.501  1.6338 -0.5216 -0.7722
  193DOPC   C3423891   2.946   2.617   9.651  0.5081  0.3778  0.1680
  193DOPC   H4X23892   2.938   2.727   9.654 -1.6910  0.2604 -0.0201
  193DOPC   H4Y23893   3.038   2.587   9.706 -1.0871  0.7487  3.2592
  193DOPC   C3523894   2.826   2.569   9.732  0.1650  0.1733 -0.2878
  193DOPC   H5X23895   2.827   2.459   9.746  0.6067 -0.1582 -2.5206
  193DOPC   H5Y23896   2.735   2.599   9.677  0.1809 -2.7093 -2.0914
  193DOPC   C3623897   2.838   2.627   9.875 -0.7492 -0.0483  0.2772
  193DOPC   H6X23898   2.937   2.595   9.913 -1.2133 -2.0342 -0.0477
  193DOPC   H6Y23899   2.836   2.738   9.875  0.4148  0.0385  2.8093
  193DOPC   C3723900   2.738   2.569   9.976  0.5172 -0.7667  0.2441
  193DOPC   H7X23901   2.649   2.551   9.912  1.3184  0.2510 -1.2557
  193DOPC   H7Y23902   2.777   2.468  10.000  1.5933 -0.8691 -1.6694
  193DOPC   C3823903   2.718   2.657  10.104 -0.7763 -0.3338 -0.1051
  193DOPC   H8X23904   2.616   2.634  10.143 -0.6155 -1.1363 -0.1389
  193DOPC   H8Y23905   2.719   2.765  10.078  0.1836 -0.6755 -1.5957
  193DOPC   C3923906   2.818   2.623  10.213  0.0635  0.5865  0.4800
  193DOPC   H9X23907   2.924   2.610  10.185 -0.4156 -1.7407 -0.5098
  193DOPC  C31023908   2.784   2.590  10.336 -0.2832 -0.2771 -0.1643
  193DOPC  H10X23909   2.862   2.565  10.409 -0.5839 -0.7754 -0.0074
  193DOPC  C31123910   2.641   2.587  10.389 -0.0591  0.2965  0.3563
  193DOPC  H11X23911   2.591   2.504  10.335 -1.9905  1.4991  0.2403
  193DOPC  H11Y23912   2.601   2.686  10.360  3.2625  1.6325 -0.1515
  193DOPC  C31223913   2.617   2.581  10.538  0.7174 -0.5141 -0.2629
  193DOPC  H12X23914   2.512   2.604  10.566  1.5608  1.6759  1.4396
  193DOPC  H12Y23915   2.661   2.668  10.591  1.4739  0.0162 -1.7063
  193DOPC  C31323916   2.677   2.451  10.606 -0.1705  0.0059  0.0897
  193DOPC  H13X23917   2.629   2.361  10.561  0.7177  0.1852 -1.2893
  193DOPC  H13Y23918   2.786   2.445  10.587 -0.0420 -2.5897  1.2672
  193DOPC  C31423919   2.643   2.452  10.755  0.1204 -0.0423  0.6344
  193DOPC  H14X23920   2.684   2.541  10.808  0.2125 -0.9810  2.1926
  193DOPC  H14Y23921   2.532   2.449  10.755 -0.2209  4.6254  1.3812
  193DOPC  C31523922   2.694   2.333  10.841 -0.4622 -0.0192  0.1553
  193DOPC  H15X23923   2.799   2.359  10.866 -0.5111  0.5863 -0.2574
  193DOPC  H15Y23924   2.706   2.246  10.773 -0.1572  0.2797 -0.1719
  193DOPC  C31623925   2.617   2.299  10.962 -0.1480  0.2756 -0.0640
  193DOPC  H16X23926   2.598   2.390  11.022 -0.0898  0.5099 -0.3974
  193DOPC  H16Y23927   2.515   2.261  10.939 -0.5548  0.5929  1.1339
  193DOPC  C31723928   2.689   2.192  11.052  0.1056  0.1294  0.3976
  193DOPC  H17X23929   2.691   2.096  10.997 -0.3465 -0.8877  2.0844
  193DOPC  H17Y23930   2.795   2.208  11.083  0.1560 -0.1628  0.3755
  193DOPC  C31823931   2.614   2.170  11.186  0.3415 -0.5531  0.5879
  193DOPC  H18X23932   2.634   2.270  11.230  0.2994 -0.4092  0.2812
  193DOPC  H18Y23933   2.505   2.151  11.182  0.7549 -3.7483  1.7601
  193DOPC  H18Z23934   2.668   2.094  11.246 -1.0539 -1.3307  0.9028
  194DOPC     N23935   5.028   3.199   9.190  0.4235  0.0054  0.2902
  194DOPC   C1223936   5.177   3.215   9.189 -0.7926  0.2224 -0.3533
  194DOPC  H12A23937   5.221   3.164   9.273  0.3859  1.1730 -0.3699
  194DOPC  H12B23938   5.201   3.320   9.198 -0.7886  0.3977 -2.0112
  194DOPC   C1323939   4.964   3.255   9.065 -0.4666  0.0252  0.7909
  194DOPC  H13A23940   4.856   3.254   9.071 -0.5455 -0.8185 -0.4105
  194DOPC  H13B23941   4.983   3.360   9.048 -1.2188  0.2930  1.4955
  194DOPC  H13C23942   4.988   3.201   8.975 -0.6001 -0.4092  1.0127
  194DOPC   C1423943   4.963   3.274   9.304  0.5322  0.3913 -0.5363
  194DOPC  H14A23944   4.971   3.381   9.290 -0.5075  0.3819 -1.3647
  194DOPC  H14B23945   4.860   3.244   9.315  0.4909  1.1148  1.4464
  194DOPC  H14C23946   5.000   3.237   9.398  1.1902 -1.5828 -1.5233
  194DOPC   C1523947   4.983   3.058   9.199 -0.3636  0.0332  0.0588
  194DOPC  H15A23948   5.022   3.023   9.293 -0.1692  2.1693  0.8252
  194DOPC  H15B23949   5.032   3.006   9.118 -0.5392  2.2167 -1.5436
  194DOPC  H15C23950   4.877   3.040   9.194 -0.4953  1.1257 -1.4398
  194DOPC   C1123951   5.255   3.167   9.062  0.5924 -0.2194 -0.2213
  194DOPC  H11A23952   5.219   3.218   8.970  1.2402  1.2187  0.2997
  194DOPC  H11B23953   5.361   3.199   9.074  0.4560  0.0840  0.1877
  194DOPC     P23954   5.314   2.957   8.927  0.1778 -0.4686  0.3571
  194DOPC   O1323955   5.456   2.991   8.937  0.0991 -0.7172  0.1696
  194DOPC   O1423956   5.241   2.992   8.805 -0.0610 -0.2759 -0.0704
  194DOPC   O1223957   5.243   3.023   9.052  0.0384  0.5004  0.0989
  194DOPC   O1123958   5.310   2.805   8.959  0.3857 -0.6545  0.6809
  194DOPC    C123959   5.232   2.741   9.050 -0.1683 -0.6613 -0.8965
  194DOPC    HA23960   5.228   2.633   9.022 -0.7211 -1.3041  1.4381
  194DOPC    HB23961   5.127   2.777   9.051 -0.0781 -0.3706  1.1502
  194DOPC    C223962   5.287   2.754   9.196  0.8107 -0.0310  0.0317
  194DOPC    HS23963   5.293   2.863   9.215 -2.3709  0.1172  0.8252
  194DOPC   O2123964   5.407   2.677   9.207 -0.8025  0.1355 -0.1872
  194DOPC   C2123965   5.520   2.743   9.226  0.0165  0.2463 -0.8189
  194DOPC   O2223966   5.543   2.861   9.218  0.6608  0.9473 -0.3785
  194DOPC   C2223967   5.635   2.643   9.221  0.5284 -0.5504 -0.9567
  194DOPC   H2R23968   5.637   2.585   9.126  0.9735  0.6699 -1.7094
  194DOPC   H2S23969   5.608   2.567   9.298 -2.2066 -1.2563 -2.4507
  194DOPC    C323970   5.185   2.701   9.303  0.9145  0.0908  0.5997
  194DOPC    HX23971   5.167   2.596   9.272 -0.2079  0.7889 -1.3177
  194DOPC    HY23972   5.090   2.757   9.288  1.0064  0.0365 -0.2212
  194DOPC   O3123973   5.240   2.710   9.435 -0.4371  0.2926 -0.2652
  194DOPC   C3123974   5.227   2.824   9.498 -0.4264 -1.3492  0.1181
  194DOPC   O3223975   5.157   2.917   9.462 -0.7080 -0.2542  0.2719
  194DOPC   C3223976   5.313   2.827   9.627  0.0000  0.1101 -0.7110
  194DOPC   H2X23977   5.307   2.726   9.671 -0.4507  0.3249 -0.2735
  194DOPC   H2Y23978   5.421   2.837   9.600  0.1970 -1.9136 -0.8219
  194DOPC   C2323979   5.768   2.712   9.245 -0.3180 -0.4180  0.0214
  194DOPC   H3R23980   5.773   2.796   9.173 -1.1152 -2.6101 -2.7964
  194DOPC   H3S23981   5.849   2.643   9.212  0.9778  1.2453 -0.4226
  194DOPC   C2423982   5.784   2.765   9.387 -0.2652  0.8954 -0.5687
  194DOPC   H4R23983   5.753   2.694   9.468  0.5142  1.1840 -0.0134
  194DOPC   H4S23984   5.729   2.861   9.394  0.7964  1.6439 -2.0494
  194DOPC   C2523985   5.932   2.803   9.422  0.1094  0.3167 -0.7986
  194DOPC   H5R23986   5.921   2.863   9.515 -3.2054 -0.3867 -0.6265
  194DOPC   H5S23987   5.971   2.869   9.342  3.7772 -1.7614 -0.9638
  194DOPC   C2623988   6.024   2.685   9.438 -0.0535  0.1781  0.3343
  194DOPC   H6R23989   6.129   2.716   9.418 -0.1710 -0.3028 -1.1861
  194DOPC   H6S23990   5.994   2.605   9.367  0.5586 -0.9676  1.3353
  194DOPC   C2723991   6.026   2.621   9.588 -0.4125  0.0835  0.0710
  194DOPC   H7R23992   6.074   2.521   9.583 -0.0699  0.2806 -0.8490
  194DOPC   H7S23993   5.918   2.617   9.616 -0.5740  1.0638 -0.3641
  194DOPC   C2823994   6.088   2.709   9.693  0.7773  0.8779 -0.3544
  194DOPC   H8R23995   6.048   2.668   9.788 -1.2908  1.6042 -0.8716
  194DOPC   H8S23996   6.052   2.814   9.686  1.4947  1.1078 -0.7410
  194DOPC   C2923997   6.242   2.716   9.686  0.0769 -0.1220 -0.3462
  194DOPC   H9R23998   6.294   2.773   9.607 -0.2747  0.3849 -0.2156
  194DOPC  C21023999   6.312   2.655   9.779  0.2120  0.1182 -0.2631
  194DOPC  H10R24000   6.422   2.660   9.768  0.0363 -0.0404 -2.5277
  194DOPC  C21124001   6.276   2.559   9.895 -0.1165  0.3084 -0.3195
  194DOPC  H11R24002   6.334   2.465   9.910 -0.7358 -0.0722 -0.2650
  194DOPC  H11S24003   6.169   2.531   9.882 -0.7993  0.3928  3.7781
  194DOPC  C21224004   6.300   2.629  10.033  0.5474  0.0871  0.4201
  194DOPC  H12R24005   6.229   2.713  10.050 -0.6815  0.1938 -3.8904
  194DOPC  H12S24006   6.401   2.670  10.052  0.0677  1.5427 -0.0370
  194DOPC  C21324007   6.283   2.529  10.151  0.2837  0.7556 -0.4740
  194DOPC  H13R24008   6.359   2.451  10.132 -2.0133 -2.0001  0.8719
  194DOPC  H13S24009   6.190   2.468  10.142  1.3713 -1.2304  1.1849
  194DOPC  C21424010   6.277   2.588  10.294  0.1644 -0.3758  0.2022
  194DOPC  H14R24011   6.187   2.651  10.309  1.1247  1.2574 -0.6772
  194DOPC  H14S24012   6.367   2.650  10.310 -1.4203  1.5034  2.4826
  194DOPC  C21524013   6.282   2.478  10.399 -0.0870 -0.5271  0.3676
  194DOPC  H15R24014   6.374   2.417  10.385  0.5765  0.8984 -2.2274
  194DOPC  H15S24015   6.197   2.408  10.387 -0.1325  0.0139 -3.6159
  194DOPC  C21624016   6.269   2.536  10.540  0.4552  0.7218 -0.2327
  194DOPC  H16R24017   6.178   2.599  10.555 -1.4659 -1.9878  0.1644
  194DOPC  H16S24018   6.359   2.596  10.565 -0.6396  1.9924  0.8685
  194DOPC  C21724019   6.241   2.412  10.631 -0.8339  0.3710 -0.6433
  194DOPC  H17R24020   6.319   2.334  10.618 -1.7959 -0.9266  0.9362
  194DOPC  H17S24021   6.149   2.376  10.580 -2.6922  3.6456  0.1087
  194DOPC  C21824022   6.224   2.445  10.778  0.0430 -0.7825 -0.3015
  194DOPC  H18R24023   6.164   2.370  10.833 -4.4121  4.1578  2.4265
  194DOPC  H18S24024   6.169   2.540  10.793  0.7215 -0.1581 -1.5070
  194DOPC  H18T24025   6.322   2.460  10.829 -0.0048 -0.0699 -0.4105
  194DOPC   C3324026   5.271   2.938   9.723 -0.3139  1.2700 -0.3867
  194DOPC   H3X24027   5.164   2.964   9.734  0.2736  2.7965  3.3114
  194DOPC   H3Y24028   5.322   3.032   9.695  2.1600 -0.0735 -0.7259
  194DOPC   C3424029   5.318   2.890   9.864  0.2177 -0.4339 -0.9000
  194DOPC   H4X24030   5.262   2.795   9.879 -2.2591  1.1971  0.8460
  194DOPC   H4Y24031   5.280   2.961   9.940  0.2011 -0.3446 -0.9919
  194DOPC   C3524032   5.467   2.860   9.885  0.6704 -0.3873 -0.4010
  194DOPC   H5X24033   5.537   2.934   9.842  0.6647 -0.3818 -0.4008
  194DOPC   H5Y24034   5.489   2.761   9.840 -0.6221  0.0675 -2.1655
  194DOPC   C3624035   5.497   2.855  10.041 -0.0488  0.0308  0.8925
  194DOPC   H6X24036   5.605   2.837  10.061  0.2398 -1.7113 -1.7023
  194DOPC   H6Y24037   5.455   2.949  10.082 -1.5969 -0.6325  0.9061
  194DOPC   C3724038   5.442   2.731  10.112 -0.2580  0.0399 -0.2396
  194DOPC   H7X24039   5.332   2.722  10.097 -0.5207 -2.7695  2.2400
  194DOPC   H7Y24040   5.490   2.643  10.064  1.8905  0.7571  0.4964
  194DOPC   C3824041   5.471   2.711  10.259  0.0605  0.1426  0.7094
  194DOPC   H8X24042   5.582   2.704  10.266  0.1596 -2.1107 -1.4203
  194DOPC   H8Y24043   5.435   2.610  10.288  0.1883 -0.0041  0.3681
  194DOPC   C3924044   5.418   2.821  10.344 -0.2325 -0.2604 -0.5630
  194DOPC   H9X24045   5.324   2.876  10.329 -0.6498  0.2943  3.1202
  194DOPC  C31024046   5.486   2.872  10.450 -0.8886  0.5966  0.8391
  194DOPC  H10X24047   5.433   2.949  10.508  0.6429  1.7591  0.7497
  194DOPC  C31124048   5.607   2.815  10.522 -0.5267  0.8193  1.2824
  194DOPC  H11X24049   5.695   2.879  10.501  1.0775 -0.5690  3.3232
  194DOPC  H11Y24050   5.626   2.710  10.489  1.2866  1.1881  1.0770
  194DOPC  C31224051   5.581   2.809  10.670 -0.3054  0.2140 -0.7019
  194DOPC  H12X24052   5.557   2.904  10.723  0.2266 -1.9524  3.9708
  194DOPC  H12Y24053   5.680   2.785  10.714 -0.5928  1.4117  0.6925
  194DOPC  C31324054   5.479   2.697  10.712 -0.9421  0.5196  0.0909
  194DOPC  H13X24055   5.383   2.711  10.658 -0.0565 -1.8377 -2.2875
  194DOPC  H13Y24056   5.512   2.597  10.678 -2.5061  0.9480 -2.9956
  194DOPC  C31424057   5.469   2.689  10.868  0.8215 -0.7196  0.1568
  194DOPC  H14X24058   5.567   2.730  10.900  1.1755 -0.2481 -1.4729
  194DOPC  H14Y24059   5.388   2.764  10.876 -0.8914 -2.4253 -0.5577
  194DOPC  C31524060   5.418   2.551  10.917  0.2102  0.1561  0.2104
  194DOPC  H15X24061   5.488   2.477  10.873  0.3336  1.1473 -1.3334
  194DOPC  H15Y24062   5.322   2.538  10.863  0.6194 -0.7752 -0.3246
  194DOPC  C31624063   5.394   2.543  11.070  0.2247 -0.0624  0.5845
  194DOPC  H16X24064   5.481   2.565  11.135 -2.7194  1.4103  4.4166
  194DOPC  H16Y24065   5.318   2.622  11.090 -1.9628 -1.3020 -2.1463
  194DOPC  C31724066   5.335   2.412  11.121  0.1467  0.0962 -0.1910
  194DOPC  H17X24067   5.416   2.337  11.106  1.4176  1.2332  0.7545
  194DOPC  H17Y24068   5.332   2.424  11.232 -0.9255  1.8463 -0.3740
  194DOPC  C31824069   5.195   2.377  11.067 -0.2770 -0.1594 -0.5132
  194DOPC  H18X24070   5.147   2.292  11.120 -1.9818  0.9485 -0.2149
  194DOPC  H18Y24071   5.122   2.460  11.080 -0.0712  0.3575 -2.3487
  194DOPC  H18Z24072   5.200   2.361  10.957 -1.5489  1.9248 -0.9192
  195DOPC     N24073   0.324   0.138   8.590 -0.1846  0.1926 -0.1633
  195DOPC   C1224074   0.415   0.074   8.691  0.4705 -0.2114 -0.6609
  195DOPC  H12A24075   0.518   0.089   8.665  0.1313  1.6814 -1.1278
  195DOPC  H12B24076   0.400  -0.032   8.699  1.1069 -0.2494  0.0807
  195DOPC   C1324077   0.188   0.148   8.632  1.2660  0.4997 -0.8793
  195DOPC  H13A24078   0.112   0.174   8.560 -0.7556  0.9874  1.2791
  195DOPC  H13B24079   0.152   0.060   8.682  1.0863  2.6367  3.2160
  195DOPC  H13C24080   0.172   0.222   8.709 -1.4815  1.0814 -1.8782
  195DOPC   C1424081   0.322   0.056   8.465  0.4836  0.2836  0.9116
  195DOPC  H14A24082   0.397  -0.021   8.462 -1.6291 -1.9014  1.4336
  195DOPC  H14B24083   0.221   0.019   8.454 -0.0666  1.9241  0.1340
  195DOPC  H14C24084   0.346   0.125   8.385 -2.7745 -0.4219 -0.8527
  195DOPC   C1524085   0.377   0.277   8.549 -0.5977 -0.1397 -0.1839
  195DOPC  H15A24086   0.474   0.268   8.503 -0.8010 -0.1475 -0.6104
  195DOPC  H15B24087   0.384   0.339   8.638  1.9577 -2.5751  1.4980
  195DOPC  H15C24088   0.310   0.333   8.486 -0.3779  2.7186  1.9224
  195DOPC   C1124089   0.406   0.127   8.839  0.4143 -0.4241 -0.5821
  195DOPC  H11A24090   0.300   0.144   8.866  0.8280 -0.0255  0.8635
  195DOPC  H11B24091   0.444   0.049   8.909 -1.8332 -0.1458  1.0447
  195DOPC     P24092   0.634   0.254   8.850  0.2127 -0.1195  0.4865
  195DOPC   O1324093   0.676   0.398   8.828  0.4686 -0.2968  0.8455
  195DOPC   O1424094   0.689   0.152   8.750  0.4424  0.6164 -0.4116
  195DOPC   O1224095   0.475   0.249   8.845 -0.7791 -0.4649 -0.0984
  195DOPC   O1124096   0.658   0.199   8.995 -0.0290  0.2282  0.5197
  195DOPC    C124097   0.628   0.271   9.109  0.4631 -0.7566  0.2250
  195DOPC    HA24098   0.531   0.325   9.104  1.6560  1.3938 -2.1811
  195DOPC    HB24099   0.718   0.335   9.117 -1.1337  1.9097 -1.4415
  195DOPC    C224100   0.617   0.175   9.229  0.3009 -0.6103 -0.4390
  195DOPC    HS24101   0.701   0.103   9.234  0.8533 -0.2238 -2.8869
  195DOPC   O2124102   0.491   0.113   9.226  0.0506  0.4325 -0.0113
  195DOPC   C2124103   0.469  -0.019   9.195 -0.0231  0.1337 -0.6242
  195DOPC   O2224104   0.562  -0.098   9.172  0.1586 -0.0122  0.4727
  195DOPC   C2224105   0.323  -0.060   9.205 -0.1190 -0.5828  0.3244
  195DOPC   H2R24106   0.299  -0.093   9.102  1.5146  1.0213 -0.6349
  195DOPC   H2S24107   0.260   0.028   9.230 -0.8307 -0.7229 -0.9238
  195DOPC    C324108   0.622   0.261   9.356 -0.8154 -0.4623 -0.2116
  195DOPC    HX24109   0.543   0.337   9.341  0.4646  0.5412 -2.3771
  195DOPC    HY24110   0.720   0.313   9.362  1.0833 -3.7762  0.5389
  195DOPC   O3124111   0.609   0.183   9.471 -0.6043  0.1754 -0.2956
  195DOPC   C3124112   0.502   0.212   9.539 -0.2172  0.2003 -0.4587
  195DOPC   O3224113   0.413   0.287   9.508 -0.1814  0.1230  0.6856
  195DOPC   C3224114   0.498   0.137   9.669  0.0066  0.3975  0.0652
  195DOPC   H2X24115   0.397   0.155   9.711  0.5989  0.2761  1.6210
  195DOPC   H2Y24116   0.519   0.028   9.679  0.3792  0.4216 -0.4175
  195DOPC   C2324117   0.292  -0.179   9.298  0.0969  0.1612 -1.1422
  195DOPC   H3R24118   0.358  -0.261   9.260  3.7886  2.5654 -0.3991
  195DOPC   H3S24119   0.184  -0.202   9.298 -0.0799  0.9714 -1.1446
  195DOPC   C2424120   0.336  -0.163   9.442  0.0249 -0.1737  0.0504
  195DOPC   H4R24121   0.291  -0.065   9.468 -1.0095 -0.6233  0.0210
  195DOPC   H4S24122   0.447  -0.159   9.445  0.0443 -0.8599  0.4195
  195DOPC   C2524123   0.273  -0.273   9.526  0.0669  0.7507 -0.6069
  195DOPC   H5R24124   0.303  -0.378   9.502  1.6113  0.4401  2.1641
  195DOPC   H5S24125   0.165  -0.276   9.500  0.0186  2.9878 -0.8587
  195DOPC   C2624126   0.290  -0.255   9.676 -0.5273  0.5544 -0.1663
  195DOPC   H6R24127   0.273  -0.149   9.705  1.4317  0.3671  1.8916
  195DOPC   H6S24128   0.396  -0.271   9.703 -0.5869  1.3400  0.5883
  195DOPC   C2724129   0.202  -0.341   9.763  0.3117 -0.2260 -0.2722
  195DOPC   H7R24130   0.242  -0.444   9.762 -0.0384 -0.3723  0.5525
  195DOPC   H7S24131   0.100  -0.330   9.721 -0.4092 -0.5420  1.3697
  195DOPC   C2824132   0.213  -0.307   9.914 -0.0390  0.1931 -0.4416
  195DOPC   H8R24133   0.322  -0.316   9.930  0.1269  0.2115 -1.4735
  195DOPC   H8S24134   0.176  -0.398   9.966  1.1293  0.6950  1.3675
  195DOPC   C2924135   0.151  -0.187   9.978  0.0933  0.0641 -0.5316
  195DOPC   H9R24136   0.041  -0.188   9.974 -0.0345  0.0771  1.7226
  195DOPC  C21024137   0.205  -0.108  10.076 -0.7291 -0.1648 -0.2255
  195DOPC  H10R24138   0.143  -0.034  10.128  2.4496  0.5427  2.9005
  195DOPC  C21124139   0.351  -0.115  10.121  0.6176 -0.1202  0.0099
  195DOPC  H11R24140   0.382  -0.011  10.099 -2.1499  0.2505 -2.8128
  195DOPC  H11S24141   0.411  -0.189  10.064 -0.1523  0.0599 -1.0561
  195DOPC  C21224142   0.375  -0.144  10.271  0.2444 -0.7120 -0.3939
  195DOPC  H12R24143   0.483  -0.159  10.291  0.0236 -0.4579  1.0667
  195DOPC  H12S24144   0.324  -0.240  10.295 -1.2603 -0.1068 -0.9949
  195DOPC  C21324145   0.318  -0.042  10.366  0.1122  0.0907 -0.5027
  195DOPC  H13R24146   0.211  -0.028  10.340 -0.4455 -2.8746 -0.2343
  195DOPC  H13S24147   0.365   0.056  10.346  2.6569 -0.8463  0.4712
  195DOPC  C21424148   0.329  -0.079  10.513 -0.1529  0.5271 -0.5082
  195DOPC  H14R24149   0.437  -0.081  10.542 -0.2217  1.3622 -0.1552
  195DOPC  H14S24150   0.287  -0.181  10.525  0.8377  0.0705 -0.8696
  195DOPC  C21524151   0.259   0.020  10.606 -0.0708  0.3856 -0.1279
  195DOPC  H15R24152   0.150   0.007  10.587 -0.4867  1.0732  1.5848
  195DOPC  H15S24153   0.297   0.117  10.568  3.9521  0.0080  2.3465
  195DOPC  C21624154   0.272   0.012  10.757 -0.0927  0.6609  0.3077
  195DOPC  H16R24155   0.209   0.082  10.817 -1.5748 -2.2447  2.3556
  195DOPC  H16S24156   0.375   0.036  10.793  0.7060 -0.9411 -0.8063
  195DOPC  C21724157   0.254  -0.129  10.811 -0.6425  0.5260 -0.2700
  195DOPC  H17R24158   0.317  -0.205  10.759  0.0457  0.4293  0.6733
  195DOPC  H17S24159   0.148  -0.157  10.793 -0.4072 -0.7095  0.1644
  195DOPC  C21824160   0.286  -0.139  10.962  0.4484  0.7672 -0.3347
  195DOPC  H18R24161   0.195  -0.179  11.011 -0.8229  0.9784 -2.3921
  195DOPC  H18S24162   0.312  -0.041  11.007  0.4525  0.5455  0.1486
  195DOPC  H18T24163   0.367  -0.212  10.983 -1.5658 -0.7377  2.8975
  195DOPC   C3324164   0.589   0.200   9.783 -1.1114  0.1781 -0.1854
  195DOPC   H3X24165   0.559   0.307   9.779 -1.8808 -0.0404 -3.1138
  195DOPC   H3Y24166   0.692   0.195   9.742 -1.6579 -1.1827 -1.4998
  195DOPC   C3424167   0.566   0.137   9.922 -0.2201  0.0935  0.0244
  195DOPC   H4X24168   0.551   0.027   9.918 -1.6279  0.2907 -0.7284
  195DOPC   H4Y24169   0.465   0.174   9.950 -0.5363 -0.0181 -0.9181
  195DOPC   C3524170   0.669   0.181  10.025  0.4581  0.2057  0.0356
  195DOPC   H5X24171   0.681   0.290  10.007  0.5451  0.1242 -0.4004
  195DOPC   H5Y24172   0.764   0.129   9.997 -0.5256 -1.4578 -0.3662
  195DOPC   C3624173   0.630   0.156  10.168  0.9271 -0.0904  0.0481
  195DOPC   H6X24174   0.531   0.198  10.198  0.2301 -1.8039  0.3092
  195DOPC   H6Y24175   0.622   0.046  10.181 -0.2342  0.0168  0.4325
  195DOPC   C3724176   0.715   0.223  10.276 -0.3877  0.2720 -0.4580
  195DOPC   H7X24177   0.817   0.194  10.244  0.2905  0.4780  1.3915
  195DOPC   H7Y24178   0.703   0.333  10.282  1.0572  0.4021  0.5052
  195DOPC   C3824179   0.690   0.162  10.419 -0.4612  0.4447  0.6035
  195DOPC   H8X24180   0.787   0.169  10.472  0.2195 -1.5087 -0.3117
  195DOPC   H8Y24181   0.667   0.054  10.406 -0.0102  0.4760 -0.5564
  195DOPC   C3924182   0.575   0.219  10.492  0.6835 -0.0575 -0.4736
  195DOPC   H9X24183   0.490   0.233  10.423 -0.1685 -0.2389  0.5169
  195DOPC  C31024184   0.565   0.272  10.618  0.0993  0.4390 -0.2704
  195DOPC  H10X24185   0.465   0.303  10.652  0.6133  3.4665 -1.2301
  195DOPC  C31124186   0.669   0.270  10.723 -0.6156 -0.0732 -0.0027
  195DOPC  H11X24187   0.695   0.375  10.747  1.8637 -1.0473  1.9668
  195DOPC  H11Y24188   0.759   0.219  10.682 -2.3277 -3.6347  0.2961
  195DOPC  C31224189   0.645   0.192  10.852  0.8428 -0.3656  0.0237
  195DOPC  H12X24190   0.540   0.213  10.880 -0.1565 -1.7608 -2.3368
  195DOPC  H12Y24191   0.714   0.216  10.936 -0.3446 -0.3760  1.0313
  195DOPC  C31324192   0.643   0.041  10.822  0.1293 -0.1696 -0.3358
  195DOPC  H13X24193   0.567   0.011  10.747 -0.3921 -0.8642  0.4412
  195DOPC  H13Y24194   0.748   0.018  10.793  0.0181 -0.8355 -0.2273
  195DOPC  C31424195   0.620  -0.056  10.940 -0.6710  0.0221  0.0671
  195DOPC  H14X24196   0.700  -0.028  11.011  0.4460  1.0821 -1.5229
  195DOPC  H14Y24197   0.519  -0.041  10.984 -1.3392 -0.8950 -1.0781
  195DOPC  C31524198   0.629  -0.208  10.899 -0.1873 -0.5095 -0.4034
  195DOPC  H15X24199   0.718  -0.229  10.836  1.3742  0.4469  1.3931
  195DOPC  H15Y24200   0.540  -0.225  10.834 -0.7425  0.0538  0.1900
  195DOPC  C31624201   0.657  -0.298  11.021  0.1936 -0.2863  0.6544
  195DOPC  H16X24202   0.761  -0.282  11.059  0.0042 -0.0808  1.0947
  195DOPC  H16Y24203   0.588  -0.268  11.103 -0.8580  1.7920 -0.9207
  195DOPC  C31724204   0.647  -0.448  10.987  0.2160  0.4230  0.0808
  195DOPC  H17X24205   0.554  -0.459  10.927 -0.8672  1.5731  1.4714
  195DOPC  H17Y24206   0.734  -0.474  10.923  0.6252  0.8607  0.4472
  195DOPC  C31824207   0.641  -0.536  11.109 -0.4552  0.5409  0.4723
  195DOPC  H18X24208   0.719  -0.517  11.186  0.1232 -2.4317  0.7270
  195DOPC  H18Y24209   0.546  -0.512  11.162  1.0065  0.9518  3.0806
  195DOPC  H18Z24210   0.648  -0.644  11.084  1.0821  0.4734  1.0563
  196DOPC     N24211   3.634   2.310   8.985 -0.4670 -0.6006  0.2867
  196DOPC   C1224212   3.761   2.370   9.058  0.0680 -0.6944  0.1400
  196DOPC  H12A24213   3.827   2.413   8.984 -0.9774  0.0916 -0.3614
  196DOPC  H12B24214   3.821   2.289   9.096  0.9741  0.6463  1.7071
  196DOPC   C1324215   3.670   2.215   8.880  0.2055  0.3736 -0.2229
  196DOPC  H13A24216   3.583   2.168   8.837 -1.1493  0.3301  2.3895
  196DOPC  H13B24217   3.735   2.263   8.808  0.5667  0.4793  0.1747
  196DOPC  H13C24218   3.723   2.125   8.907 -0.7863 -0.0477  0.3566
  196DOPC   C1424219   3.545   2.419   8.932 -0.1490 -0.4694  0.1455
  196DOPC  H14A24220   3.538   2.497   9.006  0.9455 -0.3580  0.1427
  196DOPC  H14B24221   3.572   2.457   8.835 -1.6450  0.5709  0.0940
  196DOPC  H14C24222   3.446   2.375   8.928  0.7313 -2.6225  0.6958
  196DOPC   C1524223   3.554   2.235   9.092 -0.7134  1.2943 -0.1266
  196DOPC  H15A24224   3.466   2.190   9.050 -0.9194  0.5463  1.0616
  196DOPC  H15B24225   3.524   2.297   9.175 -1.7916 -0.6755  1.0386
  196DOPC  H15C24226   3.604   2.150   9.135 -0.2834  1.4750 -0.2611
  196DOPC   C1124227   3.741   2.467   9.165  0.2269 -0.5069 -0.1395
  196DOPC  H11A24228   3.674   2.425   9.243 -0.5088 -0.7998 -0.9280
  196DOPC  H11B24229   3.840   2.478   9.215  0.2152 -2.2706  0.3551
  196DOPC     P24230   3.774   2.709   9.065 -0.0980 -0.0815 -0.1255
  196DOPC   O1324231   3.691   2.804   8.987 -0.0956  0.2779 -0.2908
  196DOPC   O1424232   3.900   2.661   8.994 -0.3279 -0.1610 -0.2194
  196DOPC   O1224233   3.689   2.589   9.119 -0.1220  0.1748  0.2189
  196DOPC   O1124234   3.810   2.775   9.203  0.0496 -0.2330  0.0466
  196DOPC    C124235   3.729   2.850   9.279  0.2248 -0.5694  0.2996
  196DOPC    HA24236   3.621   2.826   9.270 -0.1176  1.1468 -0.6496
  196DOPC    HB24237   3.738   2.955   9.245  0.5599 -1.2777 -1.9520
  196DOPC    C224238   3.786   2.851   9.426  0.2039 -0.0355 -0.1357
  196DOPC    HS24239   3.885   2.900   9.428  0.1368  0.1609  2.8726
  196DOPC   O2124240   3.792   2.721   9.489  0.4122  0.4229  0.0891
  196DOPC   C2124241   3.894   2.643   9.449 -0.0036 -0.3258  0.3481
  196DOPC   O2224242   4.006   2.682   9.411  0.1285  0.2781  0.4404
  196DOPC   C2224243   3.860   2.498   9.491 -0.0997 -0.5393  0.0637
  196DOPC   H2R24244   3.876   2.427   9.407 -1.0142 -0.2013 -0.4160
  196DOPC   H2S24245   3.754   2.500   9.524 -0.3711  2.1651 -0.7102
  196DOPC    C324246   3.706   2.952   9.516 -0.1721  0.2821 -0.3751
  196DOPC    HX24247   3.602   2.913   9.520 -0.4128  0.8890 -0.5509
  196DOPC    HY24248   3.698   3.052   9.467 -0.5760  0.2413 -0.4040
  196DOPC   O3124249   3.766   2.970   9.647  0.5232  0.0440 -0.0300
  196DOPC   C3124250   3.712   3.065   9.719 -0.4139 -1.2214  0.1655
  196DOPC   O3224251   3.616   3.133   9.686  0.8230  0.2093 -0.4025
  196DOPC   C3224252   3.803   3.079   9.849  0.5520 -0.5234  1.0374
  196DOPC   H2X24253   3.832   2.976   9.878 -2.2764 -2.1955 -1.5465
  196DOPC   H2Y24254   3.895   3.139   9.828  0.8314 -1.1407  0.4423
  196DOPC   C2324255   3.945   2.455   9.613  0.2640  0.0425 -0.5152
  196DOPC   H3R24256   4.041   2.511   9.616  1.5447 -2.0715  0.4228
  196DOPC   H3S24257   3.972   2.348   9.597  0.9860  0.1525 -0.0847
  196DOPC   C2424258   3.872   2.492   9.741  0.1002  0.5709 -0.0383
  196DOPC   H4R24259   3.776   2.436   9.738  1.2561 -1.4933 -1.8627
  196DOPC   H4S24260   3.838   2.597   9.744 -2.7928 -0.2809  0.7035
  196DOPC   C2524261   3.970   2.451   9.854 -0.4527 -0.0368  0.1548
  196DOPC   H5R24262   4.067   2.493   9.821 -1.2150  2.5096  0.8847
  196DOPC   H5S24263   3.986   2.342   9.863  1.6489  0.2490  0.2929
  196DOPC   C2624264   3.925   2.511   9.986  0.5182  0.1343 -0.1492
  196DOPC   H6R24265   3.826   2.466  10.008 -0.3116  1.1492 -1.6192
  196DOPC   H6S24266   3.914   2.621   9.978 -1.9752 -0.1099 -1.0507
  196DOPC   C2724267   4.015   2.481  10.109  0.5160  0.0651  0.1761
  196DOPC   H7R24268   4.117   2.514  10.079  0.2358  1.1871  0.4009
  196DOPC   H7S24269   4.032   2.372  10.116  0.1384 -0.1209 -1.3556
  196DOPC   C2824270   3.968   2.541  10.243 -0.3487  0.2141  0.6947
  196DOPC   H8R24271   3.880   2.481  10.276 -0.3158 -0.2054  0.0542
  196DOPC   H8S24272   3.934   2.645  10.220 -0.9807 -0.6152 -2.7825
  196DOPC   C2924273   4.083   2.548  10.346  1.1956 -0.6951  0.0629
  196DOPC   H9R24274   4.179   2.593  10.315  0.8579  0.6658  0.8827
  196DOPC  C21024275   4.069   2.514  10.476  0.4605 -0.2647 -0.8974
  196DOPC  H10R24276   4.163   2.509  10.534  0.2660 -0.9553 -0.6418
  196DOPC  C21124277   3.948   2.471  10.556  0.3757 -0.7871 -0.7105
  196DOPC  H11R24278   3.917   2.369  10.524  1.4584 -1.7079  1.0440
  196DOPC  H11S24279   3.859   2.534  10.538  1.2591  0.5661 -0.4382
  196DOPC  C21224280   3.959   2.445  10.713  0.0986 -0.6931  0.1895
  196DOPC  H12R24281   3.870   2.396  10.757  0.2353  0.1350  1.4258
  196DOPC  H12S24282   3.980   2.545  10.757  1.8321 -0.1209 -1.7759
  196DOPC  C21324283   4.085   2.365  10.738 -0.4180 -0.3015 -0.2591
  196DOPC  H13R24284   4.180   2.422  10.727  0.3962 -1.1893  1.5726
  196DOPC  H13S24285   4.089   2.274  10.675 -0.2002 -1.8585  1.8729
  196DOPC  C21424286   4.086   2.307  10.885  0.1983 -0.8788 -0.2746
  196DOPC  H14R24287   4.184   2.259  10.905  0.6557  0.4432  0.7617
  196DOPC  H14S24288   3.998   2.240  10.891 -1.4564  1.0692 -1.4464
  196DOPC  C21524289   4.071   2.421  10.989 -0.7472 -0.2904 -0.2967
  196DOPC  H15R24290   3.981   2.482  10.967  0.9967  1.6391 -2.6864
  196DOPC  H15S24291   4.152   2.496  10.970 -0.6522 -0.4662 -0.6044
  196DOPC  C21624292   4.080   2.387  11.136 -0.3176 -0.6678 -0.2887
  196DOPC  H16R24293   4.180   2.339  11.149 -0.0610 -0.4252 -1.2567
  196DOPC  H16S24294   3.994   2.326  11.170 -0.3005  0.4431  1.9253
  196DOPC  C21724295   4.071   2.516  11.228  0.3385  0.1487  0.2710
  196DOPC  H17R24296   3.968   2.556  11.212  0.7449  1.3403  0.5637
  196DOPC  H17S24297   4.148   2.583  11.185  1.6142 -0.9586  0.7727
  196DOPC  C21824298   4.097   2.504  11.381  0.0735 -0.1215  0.1568
  196DOPC  H18R24299   4.201   2.484  11.412  0.0121  0.3283  0.6595
  196DOPC  H18S24300   4.038   2.417  11.419 -0.4141  0.8067  1.6136
  196DOPC  H18T24301   4.068   2.598  11.432  0.6841  0.3356 -0.3338
  196DOPC   C3324302   3.718   3.150   9.960  0.0080  0.0827  1.1888
  196DOPC   H3X24303   3.627   3.094   9.990 -1.1754  0.7298 -0.9829
  196DOPC   H3Y24304   3.693   3.256   9.941 -0.0850 -0.1214  0.0636
  196DOPC   C3424305   3.813   3.146  10.087 -0.1484 -0.4045  0.1913
  196DOPC   H4X24306   3.903   3.208  10.071 -0.3545 -0.1449  0.0460
  196DOPC   H4Y24307   3.854   3.042  10.091  1.4070  0.0507 -2.0745
  196DOPC   C3524308   3.739   3.200  10.214 -0.6198  0.0587 -0.3850
  196DOPC   H5X24309   3.650   3.135  10.224 -1.1302  0.8137  0.0738
  196DOPC   H5Y24310   3.701   3.302  10.193 -1.5435  0.0094  0.9491
  196DOPC   C3624311   3.817   3.194  10.340 -0.1596 -0.1917  0.1304
  196DOPC   H6X24312   3.750   3.191  10.428  0.3484  0.4661  0.5519
  196DOPC   H6Y24313   3.874   3.099  10.346  2.1073  1.1628  2.4789
  196DOPC   C3724314   3.915   3.313  10.363 -0.2792 -0.5224 -0.3330
  196DOPC   H7X24315   4.016   3.301  10.319 -0.5869 -2.2721 -0.6003
  196DOPC   H7Y24316   3.865   3.406  10.327 -0.7530  0.2540  2.1240
  196DOPC   C3824317   3.939   3.339  10.513 -0.6973  0.7153 -0.8378
  196DOPC   H8X24318   4.032   3.400  10.512 -0.3613  0.2065 -0.7651
  196DOPC   H8Y24319   3.969   3.241  10.554  0.0479  0.8416 -1.0640
  196DOPC   C3924320   3.829   3.405  10.595  0.3059  0.1418  0.5927
  196DOPC   H9X24321   3.831   3.514  10.582  0.5808  0.0724  0.0526
  196DOPC  C31024322   3.744   3.357  10.691  0.3030  0.0081  0.0133
  196DOPC  H10X24323   3.688   3.433  10.747  2.6346  1.6988  0.1975
  196DOPC  C31124324   3.733   3.211  10.729  0.5238 -0.1668  0.7166
  196DOPC  H11X24325   3.759   3.140  10.648 -0.5551  0.5351 -0.2653
  196DOPC  H11Y24326   3.626   3.188  10.750  0.2524  0.4815  0.0702
  196DOPC  C31224327   3.819   3.183  10.854 -0.5495  0.8020  0.2224
  196DOPC  H12X24328   3.928   3.178  10.833 -0.6192 -2.3816  0.0876
  196DOPC  H12Y24329   3.787   3.081  10.887 -0.3785  1.2277  1.7817
  196DOPC  C31324330   3.801   3.287  10.970 -0.2728  0.3020 -0.7856
  196DOPC  H13X24331   3.858   3.377  10.937  2.5045 -0.2993  1.9509
  196DOPC  H13Y24332   3.691   3.301  10.970 -0.6326 -1.6278 -3.4251
  196DOPC  C31424333   3.849   3.253  11.115 -0.2489  0.1191  0.4768
  196DOPC  H14X24334   3.804   3.157  11.150 -2.5087  0.7871 -0.4009
  196DOPC  H14Y24335   3.959   3.265  11.117 -0.2478 -0.0216  2.0975
  196DOPC  C31524336   3.782   3.364  11.208 -0.6338  0.8493 -0.0593
  196DOPC  H15X24337   3.674   3.343  11.198 -0.5716 -2.3944  4.0098
  196DOPC  H15Y24338   3.814   3.461  11.163  0.0535  0.7339  0.1689
  196DOPC  C31624339   3.813   3.367  11.355 -0.3007  0.0028  0.5620
  196DOPC  H16X24340   3.817   3.264  11.394  1.4680 -0.9967 -1.9783
  196DOPC  H16Y24341   3.912   3.411  11.380 -0.4064  0.4605  0.1839
  196DOPC  C31724342   3.706   3.437  11.437 -0.1443 -0.2767  0.2090
  196DOPC  H17X24343   3.690   3.533  11.384  0.8012 -1.0646 -1.6016
  196DOPC  H17Y24344   3.613   3.383  11.408  1.7327 -2.9699 -1.1959
  196DOPC  C31824345   3.733   3.462  11.582 -0.1500  0.3342  0.0379
  196DOPC  H18X24346   3.645   3.509  11.630 -1.1580 -2.3241  1.0068
  196DOPC  H18Y24347   3.743   3.366  11.638 -1.1459  1.2527  1.8616
  196DOPC  H18Z24348   3.821   3.530  11.579  0.9674 -1.0274 -3.0221
  197DOPC     N24349   6.306   2.008   8.389 -0.1685 -0.3573 -0.0580
  197DOPC   C1224350   6.200   1.988   8.497 -0.5026  0.2813  0.6281
  197DOPC  H12A24351   6.194   2.068   8.570  0.1223 -0.7736  1.8827
  197DOPC  H12B24352   6.231   1.901   8.553  2.9202  2.3276  2.2997
  197DOPC   C1324353   6.343   1.882   8.312  0.5669 -0.1102 -0.4220
  197DOPC  H13A24354   6.422   1.905   8.242  0.8672  3.2256  0.8382
  197DOPC  H13B24355   6.378   1.795   8.367 -0.9089 -0.7129 -0.3944
  197DOPC  H13C24356   6.256   1.846   8.259 -0.2906  1.4001 -0.1015
  197DOPC   C1424357   6.431   2.062   8.434 -0.2455 -0.1576  0.0214
  197DOPC  H14A24358   6.513   2.039   8.367  2.2089 -2.2266  3.4430
  197DOPC  H14B24359   6.410   2.166   8.451 -2.5871 -0.2560 -1.6834
  197DOPC  H14C24360   6.454   2.024   8.532 -1.9134  1.0544  0.9332
  197DOPC   C1524361   6.250   2.110   8.285 -0.1939  0.0245  0.2905
  197DOPC  H15A24362   6.221   2.193   8.347 -1.8180 -1.2412  1.3094
  197DOPC  H15B24363   6.156   2.081   8.241 -0.6182  1.4111  0.2376
  197DOPC  H15C24364   6.329   2.137   8.217  0.4204  0.1853  1.0486
  197DOPC   C1124365   6.061   1.967   8.441 -0.2091  0.3896 -0.6475
  197DOPC  H11A24366   5.982   1.979   8.518 -1.2500 -0.7297 -1.4919
  197DOPC  H11B24367   6.024   2.055   8.383 -4.3350  1.5493  3.1563
  197DOPC     P24368   6.026   1.708   8.407  0.7770  0.0408  0.2140
  197DOPC   O1324369   6.106   1.638   8.309  0.0491  0.0829  0.3608
  197DOPC   O1424370   5.885   1.668   8.416 -0.1485 -0.1935 -0.2639
  197DOPC   O1224371   6.047   1.853   8.362 -0.3768 -0.1518  0.4766
  197DOPC   O1124372   6.096   1.692   8.547  0.3717 -0.3689  0.1869
  197DOPC    C124373   6.013   1.686   8.665  0.1752 -0.2549  1.2523
  197DOPC    HA24374   5.947   1.597   8.654 -0.0090 -0.0160  0.2864
  197DOPC    HB24375   5.947   1.776   8.652  1.0075  0.0108 -1.9370
  197DOPC    C224376   6.086   1.701   8.796 -0.0039  0.6899 -0.9131
  197DOPC    HS24377   6.125   1.805   8.793 -0.1494  0.8545  1.0508
  197DOPC   O2124378   6.191   1.601   8.800 -0.1247  0.1733  0.5781
  197DOPC   C2124379   6.301   1.647   8.865  0.2817 -0.8117 -0.0562
  197DOPC   O2224380   6.315   1.756   8.915  0.1194  0.0521  0.2957
  197DOPC   C2224381   6.405   1.532   8.859  0.1737 -0.3880 -0.7920
  197DOPC   H2R24382   6.458   1.552   8.763 -0.0389 -1.7079 -1.2061
  197DOPC   H2S24383   6.348   1.437   8.852 -0.4259 -0.1794  0.8441
  197DOPC    C324384   5.994   1.680   8.922  0.3593  0.0720  0.1345
  197DOPC    HX24385   5.936   1.586   8.930 -0.8948  0.8146 -0.0615
  197DOPC    HY24386   5.917   1.758   8.905  0.1396 -0.4063 -1.2183
  197DOPC   O3124387   6.070   1.706   9.047 -0.2188 -0.1548 -0.3320
  197DOPC   C3124388   6.083   1.837   9.085 -0.5230  0.3152  0.5163
  197DOPC   O3224389   6.051   1.927   9.013  0.3905  0.0324 -0.1213
  197DOPC   C3224390   6.149   1.861   9.224  0.5779  0.0524  1.1022
  197DOPC   H2X24391   6.150   1.765   9.279  0.0157 -0.5388  0.1039
  197DOPC   H2Y24392   6.251   1.903   9.207 -1.0360  3.5235 -1.2448
  197DOPC   C2324393   6.490   1.550   8.984 -0.4068  0.0286 -0.2314
  197DOPC   H3R24394   6.537   1.648   9.005 -1.1448 -0.0871  2.2680
  197DOPC   H3S24395   6.566   1.470   8.976  2.0107  1.8803  2.5114
  197DOPC   C2424396   6.411   1.513   9.113 -0.4880  0.0909  0.0653
  197DOPC   H4R24397   6.341   1.431   9.087  0.0031  0.1789 -1.6685
  197DOPC   H4S24398   6.353   1.597   9.157 -0.3312  0.4671 -0.4306
  197DOPC   C2524399   6.505   1.464   9.228  0.1877  0.0407 -0.3551
  197DOPC   H5R24400   6.560   1.542   9.286  2.1112  0.0791 -2.1414
  197DOPC   H5S24401   6.573   1.386   9.188  0.5657 -0.1584  0.6414
  197DOPC   C2624402   6.425   1.400   9.338  0.4147  0.1465  0.0671
  197DOPC   H6R24403   6.385   1.310   9.286  1.5663 -1.1035  1.2675
  197DOPC   H6S24404   6.349   1.468   9.381 -0.2069 -0.1578 -0.5275
  197DOPC   C2724405   6.507   1.340   9.454  0.1467 -0.3937  0.0246
  197DOPC   H7R24406   6.552   1.428   9.505  1.1087 -1.2147  0.6110
  197DOPC   H7S24407   6.596   1.292   9.408  1.3911  2.2682 -0.5619
  197DOPC   C2824408   6.433   1.232   9.551 -0.3021 -0.6621  0.6257
  197DOPC   H8R24409   6.503   1.217   9.636  0.4191  1.5241  0.4971
  197DOPC   H8S24410   6.417   1.140   9.492 -3.7373  0.1005  0.1224
  197DOPC   C2924411   6.295   1.271   9.597  0.6098  0.2373 -0.3772
  197DOPC   H9R24412   6.229   1.304   9.516 -1.2708  0.2876  1.1205
  197DOPC  C21024413   6.250   1.283   9.723  0.4137 -0.4708 -0.3790
  197DOPC  H10R24414   6.144   1.310   9.741  0.7145  1.1250 -0.8309
  197DOPC  C21124415   6.315   1.228   9.850 -0.0168 -0.4248 -1.0377
  197DOPC  H11R24416   6.417   1.191   9.827  0.2156  0.6060 -1.7279
  197DOPC  H11S24417   6.263   1.149   9.909 -0.2695  1.1172  0.9076
  197DOPC  C21224418   6.346   1.343   9.954  0.2387  0.2545  0.9723
  197DOPC  H12R24419   6.246   1.369   9.994  0.9600  0.4493  2.7440
  197DOPC  H12S24420   6.404   1.426   9.907 -0.4977 -0.5222 -1.5090
  197DOPC  C21324421   6.407   1.286  10.078  0.0458  0.2274  0.5083
  197DOPC  H13R24422   6.370   1.185  10.107  0.4805 -0.6889 -1.8428
  197DOPC  H13S24423   6.386   1.362  10.156  0.3183 -0.1152  0.9236
  197DOPC  C21424424   6.560   1.274  10.063 -0.1928 -0.3921  0.3699
  197DOPC  H14R24425   6.599   1.374  10.032 -1.6205 -0.1254 -0.6992
  197DOPC  H14S24426   6.587   1.216   9.972 -1.3123 -0.7492  0.2547
  197DOPC  C21524427   6.627   1.216  10.183  0.4135  0.6058  0.2133
  197DOPC  H15R24428   6.738   1.227  10.175  0.3321  0.0972 -2.5563
  197DOPC  H15S24429   6.617   1.105  10.185  1.1733  0.4400 -2.4709
  197DOPC  C21624430   6.584   1.275  10.323  0.4261  0.4587  0.2374
  197DOPC  H16R24431   6.485   1.239  10.358  1.1883  1.2984  3.5977
  197DOPC  H16S24432   6.578   1.386  10.317 -1.0930  0.3568 -1.4876
  197DOPC  C21724433   6.674   1.218  10.441  0.1820 -0.0290  0.7991
  197DOPC  H17R24434   6.694   1.109  10.434  1.6327  0.2695 -0.1969
  197DOPC  H17S24435   6.613   1.236  10.532 -0.6954  0.6885  0.0848
  197DOPC  C21824436   6.808   1.289  10.457 -0.0918  0.3757  0.9478
  197DOPC  H18R24437   6.810   1.391  10.501 -0.6560  0.9099 -0.2209
  197DOPC  H18S24438   6.858   1.294  10.358  0.4256  1.2124  1.2475
  197DOPC  H18T24439   6.880   1.229  10.517  0.9244  0.1957 -0.4051
  197DOPC   C3324440   6.068   1.964   9.308  0.6476  0.0150 -0.4955
  197DOPC   H3X24441   5.976   1.910   9.340 -0.3605  2.4039  0.9262
  197DOPC   H3Y24442   6.035   2.051   9.247  0.6502  1.4889  1.5168
  197DOPC   C3424443   6.143   2.018   9.433  0.2165  0.4665  0.4462
  197DOPC   H4X24444   6.207   2.106   9.410 -0.8600  1.8071  2.3412
  197DOPC   H4Y24445   6.205   1.937   9.478  2.8761  2.3147  0.3205
  197DOPC   C3524446   6.056   2.062   9.551  0.3392  0.2303 -0.0207
  197DOPC   H5X24447   5.989   1.978   9.577  0.6242 -0.6844 -2.0314
  197DOPC   H5Y24448   5.992   2.147   9.521 -0.5561 -0.4332 -0.0410
  197DOPC   C3624449   6.143   2.104   9.673 -0.3581 -0.3065  0.1449
  197DOPC   H6X24450   6.221   2.025   9.683 -0.0180  0.1222  0.9429
  197DOPC   H6Y24451   6.186   2.204   9.651 -0.6307 -0.0635  0.7075
  197DOPC   C3724452   6.057   2.113   9.798 -0.6550  0.3079  0.5223
  197DOPC   H7X24453   5.975   2.180   9.766  0.3873  0.7407 -1.3764
  197DOPC   H7Y24454   6.028   2.009   9.824  3.2542 -1.1153 -0.1336
  197DOPC   C3824455   6.132   2.193   9.906 -0.2652  0.2557 -0.2718
  197DOPC   H8X24456   6.053   2.203   9.984 -0.0333 -1.1860  0.1738
  197DOPC   H8Y24457   6.154   2.295   9.869  1.0015  0.1067  0.0207
  197DOPC   C3924458   6.256   2.122   9.951 -0.4600  0.1791  0.0880
  197DOPC   H9X24459   6.319   2.082   9.870 -3.0251  0.1887 -2.0528
  197DOPC  C31024460   6.292   2.090  10.076  0.2793  0.3065  0.2113
  197DOPC  H10X24461   6.389   2.041  10.094  0.1835  0.5394  1.4057
  197DOPC  C31124462   6.227   2.143  10.204 -0.2948 -0.1160  0.4271
  197DOPC  H11X24463   6.130   2.184  10.168 -0.2467 -1.1543 -0.9934
  197DOPC  H11Y24464   6.279   2.232  10.245 -0.3830  1.0034 -1.7173
  197DOPC  C31224465   6.187   2.039  10.310  0.4189 -0.0876 -0.4085
  197DOPC  H12X24466   6.269   1.971  10.341 -0.9838 -1.1808  1.0250
  197DOPC  H12Y24467   6.114   1.970  10.263 -0.4292  2.8100 -3.8394
  197DOPC  C31324468   6.136   2.113  10.434  0.8202 -0.1462  0.0103
  197DOPC  H13X24469   6.221   2.175  10.469 -1.7275  3.3361  0.5531
  197DOPC  H13Y24470   6.058   2.191  10.418  3.1335  2.1558 -0.7688
  197DOPC  C31424471   6.100   2.012  10.547 -0.6153  0.9383  0.1700
  197DOPC  H14X24472   6.052   1.919  10.511 -0.8747  0.9978  0.3576
  197DOPC  H14Y24473   6.198   1.988  10.594 -0.3003  0.5051 -0.6817
  197DOPC  C31524474   6.009   2.064  10.655 -0.1046  0.4808 -0.8073
  197DOPC  H15X24475   5.904   2.078  10.621 -0.3887  0.0327 -0.1284
  197DOPC  H15Y24476   6.053   2.158  10.695  0.8446 -0.7088  1.0803
  197DOPC  C31624477   6.006   1.967  10.783 -0.1622 -0.1984  0.0916
  197DOPC  H16X24478   5.974   1.865  10.751  3.3152 -1.3010 -0.2754
  197DOPC  H16Y24479   6.109   1.972  10.825 -0.0264  2.4706 -0.4105
  197DOPC  C31724480   5.917   2.023  10.906  0.3826 -0.3467  0.6756
  197DOPC  H17X24481   5.984   2.094  10.960 -1.2465 -0.3677  2.8472
  197DOPC  H17Y24482   5.844   2.093  10.860  0.3205 -0.7573  0.1507
  197DOPC  C31824483   5.852   1.922  11.001  0.3113 -0.5032 -0.3359
  197DOPC  H18X24484   5.813   1.982  11.086 -0.6728 -1.7697  0.1229
  197DOPC  H18Y24485   5.765   1.864  10.962 -2.1775 -0.2831  4.2213
  197DOPC  H18Z24486   5.932   1.857  11.040  1.8934  0.9598 -1.0036
  198DOPC     N24487   1.715   1.519   8.170 -0.4844  0.1915 -0.2261
  198DOPC   C1224488   1.845   1.597   8.219  0.6576  0.1887  0.2615
  198DOPC  H12A24489   1.829   1.672   8.295  4.8363 -0.0711  1.6434
  198DOPC  H12B24490   1.877   1.648   8.130 -0.6542 -0.4911 -0.6426
  198DOPC   C1324491   1.661   1.444   8.286 -0.2351 -0.2620  0.1302
  198DOPC  H13A24492   1.587   1.373   8.254  0.4862 -1.5552  1.2487
  198DOPC  H13B24493   1.741   1.400   8.344 -1.3228 -1.1485  1.0075
  198DOPC  H13C24494   1.626   1.517   8.357  2.2215  0.4582  0.7053
  198DOPC   C1424495   1.752   1.425   8.062 -0.1415 -0.2451 -0.6632
  198DOPC  H14A24496   1.843   1.370   8.080  0.7612  0.5925 -2.4071
  198DOPC  H14B24497   1.677   1.350   8.040  0.2560 -1.8262  2.7599
  198DOPC  H14C24498   1.769   1.479   7.970  1.1600  1.2818  0.4261
  198DOPC   C1524499   1.604   1.606   8.122  0.3845  0.0099 -0.4121
  198DOPC  H15A24500   1.512   1.552   8.112  0.2368  0.4496 -1.7325
  198DOPC  H15B24501   1.618   1.656   8.026  1.2350  0.0173 -0.2968
  198DOPC  H15C24502   1.582   1.674   8.202  1.4312 -0.9238  0.7124
  198DOPC   C1124503   1.963   1.521   8.273 -0.5322 -0.0830  0.0242
  198DOPC  H11A24504   1.998   1.443   8.203  1.2448 -0.3147  1.1130
  198DOPC  H11B24505   2.056   1.581   8.275  1.1034 -2.3558  3.6464
  198DOPC     P24506   1.942   1.572   8.514  0.2305 -0.0093 -0.2143
  198DOPC   O1324507   1.808   1.558   8.583 -0.3914 -0.0212  0.8642
  198DOPC   O1424508   1.987   1.710   8.470  0.4576 -0.3247 -0.0117
  198DOPC   O1224509   1.962   1.460   8.401  0.4502 -0.2869 -0.4055
  198DOPC   O1124510   2.037   1.520   8.622 -0.3913  0.0069 -0.1543
  198DOPC    C124511   2.013   1.385   8.670 -0.2500 -0.5945 -0.1311
  198DOPC    HA24512   2.023   1.306   8.592 -1.1234  0.0059 -0.8704
  198DOPC    HB24513   1.922   1.387   8.734  0.1145 -1.8178  0.4565
  198DOPC    C224514   2.129   1.337   8.766  0.3637  0.4640  0.2088
  198DOPC    HS24515   2.120   1.227   8.774  1.0898  0.4053  0.2978
  198DOPC   O2124516   2.134   1.400   8.891  0.3106  1.1964  0.0848
  198DOPC   C2124517   2.044   1.343   8.984 -1.0469 -0.2943 -0.5347
  198DOPC   O2224518   1.961   1.264   8.952  0.0528 -0.3785  0.2562
  198DOPC   C2224519   2.067   1.401   9.127 -0.4223  0.0656 -0.5788
  198DOPC   H2R24520   2.074   1.510   9.109  2.9215  0.2977  1.2655
  198DOPC   H2S24521   2.168   1.363   9.155 -0.6725 -1.1150 -1.1770
  198DOPC    C324522   2.274   1.351   8.700 -0.3075 -0.3187  0.1063
  198DOPC    HX24523   2.290   1.461   8.693 -0.1611 -0.4529 -2.4762
  198DOPC    HY24524   2.270   1.297   8.604  3.1059 -1.5913  0.5474
  198DOPC   O3124525   2.367   1.273   8.780 -0.1514 -0.0243  0.1509
  198DOPC   C3124526   2.484   1.327   8.807  0.1158 -0.7671  0.0264
  198DOPC   O3224527   2.536   1.423   8.749  0.1070 -0.4227 -0.0454
  198DOPC   C3224528   2.552   1.269   8.929  0.4617  0.8368 -0.1678
  198DOPC   H2X24529   2.523   1.162   8.936  0.9891  0.7500  0.7593
  198DOPC   H2Y24530   2.662   1.280   8.915  0.4018 -0.6615 -2.4045
  198DOPC   C2324531   1.959   1.358   9.227  0.3227  0.0223  0.0278
  198DOPC   H3R24532   1.931   1.251   9.233 -1.4314  0.5252  1.8108
  198DOPC   H3S24533   1.864   1.412   9.206 -2.0213 -2.7927  2.4487
  198DOPC   C2424534   2.004   1.397   9.374 -0.3903 -0.0445 -0.3520
  198DOPC   H4R24535   2.092   1.332   9.395 -1.1759 -1.0526 -0.0964
  198DOPC   H4S24536   1.925   1.370   9.448 -0.4306  1.1540  0.0583
  198DOPC   C2524537   2.058   1.535   9.392  0.0436  0.1088  0.2672
  198DOPC   H5R24538   1.990   1.600   9.334  1.3084  1.2153 -0.0094
  198DOPC   H5S24539   2.155   1.530   9.338  0.0536 -0.9433  0.3543
  198DOPC   C2624540   2.070   1.587   9.534  0.4116  0.5633  0.4896
  198DOPC   H6R24541   1.976   1.585   9.593  1.2743  2.8585  2.1049
  198DOPC   H6S24542   2.090   1.696   9.528  1.3260  0.4886  1.8710
  198DOPC   C2724543   2.186   1.528   9.612  0.1066 -0.2906  0.4476
  198DOPC   H7R24544   2.277   1.564   9.560 -0.5047 -0.8795 -1.1043
  198DOPC   H7S24545   2.197   1.419   9.596  0.7120  0.1107 -2.4901
  198DOPC   C2824546   2.187   1.595   9.750  0.2829 -0.6202  0.1748
  198DOPC   H8R24547   2.091   1.567   9.799  0.3979  2.4471  2.4331
  198DOPC   H8S24548   2.171   1.704   9.733  0.0532 -0.9409 -1.9128
  198DOPC   C2924549   2.315   1.564   9.826 -0.3990 -0.4234  0.8628
  198DOPC   H9R24550   2.402   1.538   9.764 -1.0206 -1.6875  0.4831
  198DOPC  C21024551   2.336   1.584   9.962  0.0663 -0.6256  0.5790
  198DOPC  H10R24552   2.431   1.556  10.010 -1.6630 -0.7331  4.3202
  198DOPC  C21124553   2.230   1.627  10.059 -0.1797 -0.3733  0.3366
  198DOPC  H11R24554   2.133   1.580  10.035 -0.0917 -0.6182  0.4476
  198DOPC  H11S24555   2.224   1.737  10.050 -0.0026 -0.4966 -1.6948
  198DOPC  C21224556   2.266   1.587  10.199  0.1316 -0.6983  0.1258
  198DOPC  H12R24557   2.366   1.631  10.216  0.4447 -1.1441 -0.4997
  198DOPC  H12S24558   2.271   1.476  10.203  1.8269 -0.7355 -1.4509
  198DOPC  C21324559   2.177   1.639  10.313 -0.4493 -0.1199  1.0427
  198DOPC  H13R24560   2.073   1.605  10.291 -0.5390  0.4170  0.6217
  198DOPC  H13S24561   2.176   1.749  10.296  1.1049 -0.2897 -0.4181
  198DOPC  C21424562   2.211   1.601  10.457  0.3414 -0.0162  0.2615
  198DOPC  H14R24563   2.312   1.640  10.486 -0.9356  4.7553 -0.8758
  198DOPC  H14S24564   2.207   1.490  10.464 -1.5497  0.0572  1.0191
  198DOPC  C21524565   2.109   1.641  10.568  0.3193 -0.2186 -0.7775
  198DOPC  H15R24566   2.013   1.588  10.548 -0.4389 -0.6449  3.2225
  198DOPC  H15S24567   2.099   1.751  10.570 -1.2124 -0.3359 -1.1950
  198DOPC  C21624568   2.154   1.591  10.712 -0.5558 -0.1871  0.4312
  198DOPC  H16R24569   2.259   1.625  10.725  0.0996 -1.5227 -1.1140
  198DOPC  H16S24570   2.169   1.481  10.710  0.0025 -0.1166 -1.7747
  198DOPC  C21724571   2.057   1.627  10.822  0.3554  0.4245  0.4461
  198DOPC  H17R24572   1.961   1.637  10.768 -0.8652  0.4268  2.5258
  198DOPC  H17S24573   2.078   1.732  10.853 -0.5244  1.0123 -0.8415
  198DOPC  C21824574   2.042   1.518  10.927  0.0708 -0.7053 -0.3420
  198DOPC  H18R24575   2.011   1.419  10.888  0.1491 -0.7228 -0.3600
  198DOPC  H18S24576   1.958   1.555  10.990  0.4792 -0.7266  0.2313
  198DOPC  H18T24577   2.138   1.514  10.983 -0.0934 -1.8525 -0.1277
  198DOPC   C3324578   2.516   1.347   9.058 -0.7542  0.3338 -0.4834
  198DOPC   H3X24579   2.408   1.366   9.074 -0.6595 -0.3855  1.3213
  198DOPC   H3Y24580   2.561   1.448   9.051  0.9905 -0.3966 -0.4138
  198DOPC   C3424581   2.562   1.274   9.188  1.0287 -0.2870 -0.0509
  198DOPC   H4X24582   2.672   1.261   9.181  1.1354 -0.1744  1.2297
  198DOPC   H4Y24583   2.517   1.173   9.183 -0.1746  0.2363 -0.1671
  198DOPC   C3524584   2.512   1.339   9.318 -0.5270  0.1550 -0.3515
  198DOPC   H5X24585   2.401   1.339   9.314 -0.5073 -1.4027 -1.9485
  198DOPC   H5Y24586   2.532   1.448   9.315 -3.3711  0.7442 -0.8642
  198DOPC   C3624587   2.549   1.260   9.442 -0.1146 -0.7986  0.3890
  198DOPC   H6X24588   2.485   1.169   9.440  1.3974 -2.0442  2.9459
  198DOPC   H6Y24589   2.650   1.213   9.444 -0.2581 -1.0931  1.1206
  198DOPC   C3724590   2.519   1.323   9.580  0.6603 -0.1394  0.1387
  198DOPC   H7X24591   2.575   1.418   9.598 -0.9165  0.6459  1.0835
  198DOPC   H7Y24592   2.414   1.357   9.570  0.7293 -0.2015 -0.8695
  198DOPC   C3824593   2.509   1.225   9.692  0.5401  0.2062  0.7135
  198DOPC   H8X24594   2.457   1.133   9.658  0.6522 -0.2053  1.6185
  198DOPC   H8Y24595   2.445   1.254   9.778 -0.7244 -1.0786  0.2533
  198DOPC   C3924596   2.645   1.184   9.739  0.4824 -0.2119 -0.4864
  198DOPC   H9X24597   2.689   1.109   9.671 -0.5986 -1.4586  0.1504
  198DOPC  C31024598   2.710   1.221   9.855 -0.1110  0.7277 -0.1218
  198DOPC  H10X24599   2.806   1.174   9.878 -0.8409 -1.0558 -0.5358
  198DOPC  C31124600   2.656   1.316   9.960 -0.1344 -0.1755  0.5158
  198DOPC  H11X24601   2.590   1.400   9.930  0.2422  0.5903  1.7716
  198DOPC  H11Y24602   2.739   1.378   9.998  0.4311 -0.9556  0.5722
  198DOPC  C31224603   2.592   1.237  10.071 -0.2374  0.5118 -0.1257
  198DOPC  H12X24604   2.645   1.145  10.104 -2.0781  0.0122  1.6866
  198DOPC  H12Y24605   2.492   1.208  10.031 -0.8683  2.4821 -0.0898
  198DOPC  C31324606   2.565   1.317  10.197 -0.2349 -0.4769 -0.1063
  198DOPC  H13X24607   2.657   1.371  10.227  0.7159 -2.1150  0.0308
  198DOPC  H13Y24608   2.483   1.393  10.192  0.8618  0.6947 -0.8769
  198DOPC  C31424609   2.513   1.218  10.304 -0.4111 -0.2761  0.3982
  198DOPC  H14X24610   2.426   1.173  10.252  0.8377 -1.3388 -0.8368
  198DOPC  H14Y24611   2.587   1.138  10.321  1.1653  1.0756  0.1739
  198DOPC  C31524612   2.477   1.287  10.436  0.2225 -0.4704  0.3859
  198DOPC  H15X24613   2.398   1.363  10.420 -0.0038 -0.7132  0.3488
  198DOPC  H15Y24614   2.570   1.341  10.465 -0.0132  1.3166 -1.9347
  198DOPC  C31624615   2.419   1.199  10.546  0.0729  0.4452  0.5109
  198DOPC  H16X24616   2.324   1.156  10.507 -0.4314  2.0612 -0.1369
  198DOPC  H16Y24617   2.476   1.106  10.566  0.9070  0.2651 -2.2021
  198DOPC  C31724618   2.396   1.269  10.683 -0.3248  0.1003  0.1922
  198DOPC  H17X24619   2.495   1.284  10.731 -0.5617  1.5385  0.2681
  198DOPC  H17Y24620   2.351   1.368  10.661  0.2142  0.5409  1.0234
  198DOPC  C31824621   2.297   1.205  10.779 -0.4210 -0.1397 -0.1559
  198DOPC  H18X24622   2.195   1.203  10.736 -0.0351  1.7718 -1.2772
  198DOPC  H18Y24623   2.326   1.101  10.805  0.2683 -0.7833 -3.1287
  198DOPC  H18Z24624   2.284   1.255  10.877  0.7919 -0.3732  0.1448
  199DOPC     N24625   1.180   0.928   8.241  0.8069  0.1503  0.0032
  199DOPC   C1224626   1.219   0.964   8.383 -0.5713  0.6949  0.1194
  199DOPC  H12A24627   1.324   0.992   8.381 -0.2402 -0.2940  1.7628
  199DOPC  H12B24628   1.204   0.876   8.443  1.1426  0.0425 -0.3474
  199DOPC   C1324629   1.254   0.797   8.204 -0.0424 -0.4154 -0.4169
  199DOPC  H13A24630   1.250   0.787   8.096  0.7513 -1.9444 -0.3352
  199DOPC  H13B24631   1.358   0.795   8.232 -0.0059  1.4313 -0.3199
  199DOPC  H13C24632   1.207   0.708   8.243 -1.6215  0.1089 -1.0559
  199DOPC   C1424633   1.223   1.032   8.142  0.4041  0.0363 -0.3576
  199DOPC  H14A24634   1.175   1.124   8.171  2.1452  0.8917 -0.0491
  199DOPC  H14B24635   1.328   1.054   8.157  0.3373 -0.1389  0.3859
  199DOPC  H14C24636   1.198   1.017   8.038  0.6939 -0.5812 -0.3426
  199DOPC   C1524637   1.034   0.901   8.228 -0.4394  0.7372 -0.1733
  199DOPC  H15A24638   0.982   0.991   8.257  1.7301  1.5733  1.3106
  199DOPC  H15B24639   1.007   0.820   8.293 -0.5816  0.5265 -0.4887
  199DOPC  H15C24640   1.011   0.882   8.124  3.2992 -0.0938 -0.9660
  199DOPC   C1124641   1.144   1.074   8.444 -0.8496 -0.0491  0.1978
  199DOPC  H11A24642   1.033   1.064   8.434 -0.6546 -3.9232  0.6538
  199DOPC  H11B24643   1.164   1.074   8.553  1.0565  0.0570 -0.1201
  199DOPC     P24644   1.305   1.285   8.428 -0.1562  0.1441 -0.0273
  199DOPC   O1324645   1.277   1.420   8.370 -0.0818  0.3990 -0.3945
  199DOPC   O1424646   1.433   1.217   8.392  0.0743 -0.1481  0.4210
  199DOPC   O1224647   1.182   1.202   8.389  0.2439 -0.2204  0.0096
  199DOPC   O1124648   1.302   1.288   8.584  0.0276 -0.2770 -0.3395
  199DOPC    C124649   1.208   1.379   8.648  0.8140 -0.1185 -0.0007
  199DOPC    HA24650   1.163   1.333   8.738 -0.8762 -0.1296 -0.8154
  199DOPC    HB24651   1.115   1.384   8.587 -0.1460  1.0478  1.4914
  199DOPC    C224652   1.272   1.513   8.688 -0.1521 -0.3397 -0.5765
  199DOPC    HS24653   1.314   1.568   8.601  0.8481 -2.6386 -1.6438
  199DOPC   O2124654   1.369   1.480   8.788 -0.1178  0.7765  0.1486
  199DOPC   C2124655   1.469   1.569   8.801 -0.2160 -1.0663  0.0545
  199DOPC   O2224656   1.480   1.665   8.726 -0.0288 -0.1336 -0.6769
  199DOPC   C2224657   1.563   1.535   8.914  0.1811 -0.1442  0.1426
  199DOPC   H2R24658   1.664   1.556   8.874  0.4580 -2.0751 -0.2434
  199DOPC   H2S24659   1.553   1.428   8.942  5.0469 -0.6648  0.7695
  199DOPC    C324660   1.159   1.600   8.750 -0.0165  0.6495 -0.0588
  199DOPC    HX24661   1.077   1.629   8.680 -1.0783 -2.7825 -0.4398
  199DOPC    HY24662   1.207   1.694   8.783 -0.1732  1.8037 -2.8375
  199DOPC   O3124663   1.092   1.525   8.855  0.1950 -0.1260 -0.1574
  199DOPC   C3124664   0.992   1.605   8.899 -0.1988 -0.6192  0.6166
  199DOPC   O3224665   0.984   1.725   8.871  0.0361 -0.6446 -0.3829
  199DOPC   C3224666   0.892   1.523   8.993  0.8796 -0.2295  0.4407
  199DOPC   H2X24667   0.857   1.438   8.931  0.5747  0.9014 -0.9949
  199DOPC   H2Y24668   0.942   1.481   9.083  0.9887  0.1106  0.5392
  199DOPC   C2324669   1.542   1.620   9.045  0.3423 -0.2071  1.0000
  199DOPC   H3R24670   1.566   1.727   9.030 -2.5061  0.6272  1.9404
  199DOPC   H3S24671   1.622   1.587   9.115  2.2790  0.9585 -0.5434
  199DOPC   C2424672   1.412   1.617   9.104  0.7650  0.1599 -0.1545
  199DOPC   H4R24673   1.348   1.683   9.040  2.8821  2.0656 -0.4225
  199DOPC   H4S24674   1.411   1.672   9.200 -0.3625 -0.2969  0.1209
  199DOPC   C2524675   1.346   1.480   9.123  0.2230  0.3233  0.5514
  199DOPC   H5R24676   1.354   1.419   9.031  0.0833 -1.3379  1.6177
  199DOPC   H5S24677   1.238   1.489   9.148 -0.1013 -1.1938 -0.2110
  199DOPC   C2624678   1.406   1.397   9.232 -0.0977  0.2603  0.4805
  199DOPC   H6R24679   1.387   1.445   9.331  1.6689  3.0753 -0.4275
  199DOPC   H6S24680   1.516   1.399   9.222 -0.1990 -1.3751 -1.6055
  199DOPC   C2724681   1.342   1.263   9.242  0.3072 -0.0898 -0.4706
  199DOPC   H7R24682   1.358   1.208   9.146 -0.4597  1.8099 -1.7551
  199DOPC   H7S24683   1.231   1.269   9.253  0.5835  0.0897  3.4392
  199DOPC   C2824684   1.413   1.171   9.350  0.4776 -0.3567  0.2114
  199DOPC   H8R24685   1.364   1.071   9.348 -0.7654  0.2272  0.7658
  199DOPC   H8S24686   1.388   1.203   9.453 -0.0370  0.1200 -0.0570
  199DOPC   C2924687   1.564   1.151   9.338  0.7665 -0.0677  0.8984
  199DOPC   H9R24688   1.604   1.087   9.258  0.6221  3.3184 -2.0907
  199DOPC  C21024689   1.657   1.197   9.427  0.2321 -0.4111  0.0225
  199DOPC  H10R24690   1.764   1.179   9.408  1.1203  3.3968  0.6841
  199DOPC  C21124691   1.630   1.281   9.547  0.2890 -0.0839 -0.2549
  199DOPC  H11R24692   1.531   1.331   9.550  0.7400  0.7616  1.3270
  199DOPC  H11S24693   1.694   1.371   9.557 -0.1908  0.3226 -0.7622
  199DOPC  C21224694   1.653   1.209   9.679  0.1051  0.4878  0.3066
  199DOPC  H12R24695   1.705   1.281   9.746  0.0158 -0.0663  0.9884
  199DOPC  H12S24696   1.732   1.133   9.662  2.5574  3.1935 -1.0771
  199DOPC  C21324697   1.530   1.154   9.750  0.6442 -0.1828  0.1384
  199DOPC  H13R24698   1.458   1.103   9.683 -0.3837  0.2841  0.8540
  199DOPC  H13S24699   1.479   1.247   9.783  0.3627 -0.5103  0.6456
  199DOPC  C21424700   1.569   1.076   9.874  0.5028  0.1712  0.3779
  199DOPC  H14R24701   1.645   1.137   9.927  1.0109  0.9234 -1.1749
  199DOPC  H14S24702   1.624   0.982   9.852 -1.4995 -0.3492 -3.1952
  199DOPC  C21524703   1.448   1.053   9.967  0.3350 -0.3576  0.5855
  199DOPC  H15R24704   1.382   0.975   9.922 -0.5614  0.4635  0.4553
  199DOPC  H15S24705   1.392   1.149   9.972  1.5132  0.4527 -0.9788
  199DOPC  C21624706   1.503   1.007  10.100 -0.3712  0.2555  1.0862
  199DOPC  H16R24707   1.597   1.059  10.126  0.1684 -0.0621 -0.1668
  199DOPC  H16S24708   1.541   0.904  10.084 -0.2027  0.3235  1.0481
  199DOPC  C21724709   1.396   1.019  10.202  0.3676  0.1429  0.0028
  199DOPC  H17R24710   1.361   1.123  10.213 -1.9161 -0.5821  0.1456
  199DOPC  H17S24711   1.442   0.988  10.299 -1.5384  1.4436  1.3913
  199DOPC  C21824712   1.283   0.922  10.175  0.8467  0.3990 -0.1915
  199DOPC  H18R24713   1.311   0.815  10.182 -2.0311 -0.7261 -3.2625
  199DOPC  H18S24714   1.221   0.943  10.085 -1.6368 -0.1575  1.2706
  199DOPC  H18T24715   1.202   0.932  10.251 -0.4121  0.1961 -1.4640
  199DOPC   C3324716   0.761   1.596   9.031  1.0262 -0.3924 -0.9659
  199DOPC   H3X24717   0.705   1.605   8.936  0.2944 -1.5394 -0.6538
  199DOPC   H3Y24718   0.784   1.697   9.072 -0.2461 -0.2079 -0.6648
  199DOPC   C3424719   0.693   1.517   9.147 -0.1802  0.1745  0.1555
  199DOPC   H4X24720   0.677   1.412   9.113 -2.2472  0.2309  0.8314
  199DOPC   H4Y24721   0.589   1.556   9.153 -1.5582 -3.0421 -0.6620
  199DOPC   C3524722   0.777   1.514   9.282  0.5927  0.3753  0.2267
  199DOPC   H5X24723   0.817   1.617   9.287  2.6719 -0.3511 -0.1659
  199DOPC   H5Y24724   0.872   1.456   9.283  0.7243  0.5957  0.8644
  199DOPC   C3624725   0.709   1.475   9.414 -0.0180  0.1563 -0.3194
  199DOPC   H6X24726   0.618   1.537   9.424 -0.6873 -0.9558  0.6680
  199DOPC   H6Y24727   0.665   1.375   9.395 -0.1262 -0.3385  2.2773
  199DOPC   C3724728   0.802   1.481   9.534  0.5737 -0.1020 -0.5884
  199DOPC   H7X24729   0.888   1.416   9.509  0.5172 -0.2939 -0.2873
  199DOPC   H7Y24730   0.851   1.577   9.561  1.3715 -0.7142  0.1948
  199DOPC   C3824731   0.754   1.412   9.661  0.1530 -0.3376 -0.1059
  199DOPC   H8X24732   0.832   1.409   9.740  0.2704  1.6082 -0.0887
  199DOPC   H8Y24733   0.741   1.303   9.644 -1.3790 -0.7559  2.9761
  199DOPC   C3924734   0.623   1.475   9.706  1.3057 -0.0475 -0.0988
  199DOPC   H9X24735   0.540   1.463   9.636  0.4739 -0.3591  0.9154
  199DOPC  C31024736   0.598   1.543   9.824  0.0049 -0.4218  1.0013
  199DOPC  H10X24737   0.500   1.591   9.836 -0.1136  0.2943 -1.9367
  199DOPC  C31124738   0.704   1.580   9.926 -0.4891  0.1311 -0.3457
  199DOPC  H11X24739   0.683   1.682   9.963 -0.9924  0.3450 -1.1681
  199DOPC  H11Y24740   0.808   1.569   9.889  0.0437  3.4475 -0.0558
  199DOPC  C31224741   0.698   1.487  10.055 -0.7423 -0.1264 -0.4027
  199DOPC  H12X24742   0.701   1.377  10.037 -2.2784 -0.5781  1.7691
  199DOPC  H12Y24743   0.592   1.507  10.078 -0.2131  1.5620  0.7753
  199DOPC  C31324744   0.780   1.545  10.170  0.3793  0.1396 -0.3094
  199DOPC  H13X24745   0.886   1.539  10.139  0.1699 -0.9286 -0.8892
  199DOPC  H13Y24746   0.763   1.654  10.185 -0.4416  0.0823 -0.7586
  199DOPC  C31424747   0.749   1.486  10.305  0.5114 -0.9899 -0.4988
  199DOPC  H14X24748   0.642   1.491  10.334  0.7985  0.0348  0.4502
  199DOPC  H14Y24749   0.767   1.376  10.299 -1.2621 -1.4044  0.9451
  199DOPC  C31524750   0.828   1.555  10.417  0.2521  0.2431  0.7719
  199DOPC  H15X24751   0.804   1.663  10.408  0.8198  0.2023 -2.1613
  199DOPC  H15Y24752   0.939   1.545  10.408  0.0778  0.3758 -2.5224
  199DOPC  C31624753   0.774   1.523  10.558  0.0453  0.1019  0.2832
  199DOPC  H16X24754   0.804   1.602  10.632  2.2879  0.7520 -1.2047
  199DOPC  H16Y24755   0.664   1.522  10.547  0.0292 -1.4286  0.4833
  199DOPC  C31724756   0.811   1.388  10.601  0.1075 -0.3956 -0.7000
  199DOPC  H17X24757   0.794   1.317  10.517 -1.4607 -1.1348  0.1828
  199DOPC  H17Y24758   0.919   1.370  10.618 -0.0923 -0.7545  0.2739
  199DOPC  C31824759   0.736   1.343  10.728  0.3847 -0.0571  0.7711
  199DOPC  H18X24760   0.749   1.234  10.747 -0.6579 -0.4937 -0.8178
  199DOPC  H18Y24761   0.783   1.393  10.815  0.9217 -0.1956  0.5657
  199DOPC  H18Z24762   0.627   1.361  10.721  0.3287 -0.6713 -0.1184
  200DOPC     N24763   4.179   2.983   9.069 -0.7393 -0.0627  0.3875
  200DOPC   C1224764   4.304   2.899   9.053 -0.5333 -0.1394  0.3295
  200DOPC  H12A24765   4.280   2.804   9.007 -3.0489  0.3361  0.5285
  200DOPC  H12B24766   4.351   2.885   9.150 -3.0540 -0.6487  1.5685
  200DOPC   C1324767   4.198   3.119   9.135 -0.1163  0.3951 -0.3623
  200DOPC  H13A24768   4.096   3.151   9.152 -0.0847  0.7101 -0.7456
  200DOPC  H13B24769   4.241   3.119   9.234  1.6058 -0.2561 -1.0589
  200DOPC  H13C24770   4.244   3.179   9.058 -1.4576  0.8185 -0.8652
  200DOPC   C1424771   4.083   2.904   9.150 -0.3783 -0.2639 -0.0638
  200DOPC  H14A24772   4.061   2.809   9.104  2.7495 -0.4106 -1.5366
  200DOPC  H14B24773   4.121   2.896   9.251  1.4286 -0.0191 -0.6890
  200DOPC  H14C24774   3.988   2.954   9.153  0.5688  1.5958  1.2721
  200DOPC   C1524775   4.111   3.001   8.933 -0.7500 -0.2207 -0.4202
  200DOPC  H15A24776   4.166   3.074   8.874  0.2184  0.4621  1.2536
  200DOPC  H15B24777   4.005   3.010   8.950 -1.2420 -2.0572 -2.2057
  200DOPC  H15C24778   4.124   2.909   8.878  1.6757 -0.6516  0.7198
  200DOPC   C1124779   4.420   2.948   8.954  0.3221  0.6659 -0.4416
  200DOPC  H11A24780   4.488   2.860   8.943 -2.9582 -1.8912 -2.3122
  200DOPC  H11B24781   4.384   2.965   8.850  2.0617 -1.6139 -1.5294
  200DOPC     P24782   4.605   3.047   9.102 -0.0423  0.1208 -0.1911
  200DOPC   O1324783   4.634   3.178   9.166 -0.0787  0.3015 -0.3003
  200DOPC   O1424784   4.715   2.983   9.025 -0.0728 -0.1252  0.1332
  200DOPC   O1224785   4.481   3.070   8.996  0.3605  0.4286 -0.1088
  200DOPC   O1124786   4.542   2.940   9.205 -0.7803 -0.4175  0.5163
  200DOPC    C124787   4.487   2.995   9.324  0.2008 -0.9356  0.1331
  200DOPC    HA24788   4.395   2.939   9.349  0.5571 -1.4610  0.2719
  200DOPC    HB24789   4.450   3.099   9.313 -0.3373 -1.2509 -1.3428
  200DOPC    C224790   4.581   2.979   9.450  0.3430 -0.4094  0.4196
  200DOPC    HS24791   4.652   3.064   9.446 -0.9972  0.7551  0.8146
  200DOPC   O2124792   4.623   2.841   9.454  0.1255  0.1717 -0.3574
  200DOPC   C2124793   4.757   2.818   9.442  0.6633 -0.4204  0.6353
  200DOPC   O2224794   4.838   2.905   9.419 -0.8707  0.1375 -0.1091
  200DOPC   C2224795   4.779   2.671   9.469  0.6155 -0.3190 -0.5524
  200DOPC   H2R24796   4.806   2.621   9.374 -1.3671 -1.1458 -0.7413
  200DOPC   H2S24797   4.689   2.618   9.508  0.8397 -0.1843  0.1692
  200DOPC    C324798   4.507   3.008   9.583 -0.4081 -0.3418 -0.0236
  200DOPC    HX24799   4.419   2.940   9.588  0.0654 -1.0826 -1.2501
  200DOPC    HY24800   4.477   3.115   9.578 -0.5399 -0.4046 -0.8520
  200DOPC   O3124801   4.594   2.989   9.703 -0.4856 -0.0467 -0.3212
  200DOPC   C3124802   4.560   3.061   9.809  0.1481  0.0371  0.2708
  200DOPC   O3224803   4.464   3.131   9.825 -0.0819  0.1087  0.0838
  200DOPC   C3224804   4.670   3.048   9.909 -0.0571 -0.2751  0.5764
  200DOPC   H2X24805   4.718   2.947   9.906 -0.4607 -0.4452 -0.6023
  200DOPC   H2Y24806   4.748   3.119   9.876  0.1270 -0.8431 -0.2476
  200DOPC   C2324807   4.897   2.646   9.574  0.0386  0.0321  0.6217
  200DOPC   H3R24808   4.987   2.690   9.526 -0.9301  1.3477 -0.0489
  200DOPC   H3S24809   4.915   2.538   9.593  3.4839  0.0405 -1.7781
  200DOPC   C2424810   4.850   2.704   9.711  0.2151  0.9303  0.2145
  200DOPC   H4R24811   4.769   2.638   9.751  1.8452  0.3566  2.8104
  200DOPC   H4S24812   4.794   2.797   9.691 -2.6878 -1.0454 -1.6296
  200DOPC   C2524813   4.954   2.709   9.830  0.3891  0.3908 -0.3186
  200DOPC   H5R24814   5.026   2.792   9.817  1.1565 -0.2796 -0.4460
  200DOPC   H5S24815   5.011   2.614   9.820  2.4424  1.1781  2.6366
  200DOPC   C2624816   4.908   2.711   9.980  0.1063  0.3586  1.6722
  200DOPC   H6R24817   4.856   2.613   9.993 -0.3873  0.2641 -0.5696
  200DOPC   H6S24818   4.835   2.793   9.989 -0.6299  0.0161 -0.5258
  200DOPC   C2724819   5.021   2.697  10.075 -0.2265 -0.3325 -0.2010
  200DOPC   H7R24820   5.071   2.792  10.103 -0.1830  0.3395 -2.4174
  200DOPC   H7S24821   5.093   2.625  10.033  1.2428  0.2308  1.2434
  200DOPC   C2824822   4.970   2.637  10.208 -0.6621 -0.4463  0.1101
  200DOPC   H8R24823   4.941   2.534  10.177  0.8405 -1.0034  0.4334
  200DOPC   H8S24824   4.873   2.685  10.233  0.1750  1.2152  0.2876
  200DOPC   C2924825   5.077   2.621  10.308 -0.3014  0.0519 -0.4604
  200DOPC   H9R24826   5.179   2.616  10.267 -0.8503  0.3429 -1.9227
  200DOPC  C21024827   5.074   2.614  10.442  1.1484 -0.8484 -0.8386
  200DOPC  H10R24828   5.166   2.610  10.501  1.5252 -2.2667 -1.4970
  200DOPC  C21124829   4.949   2.597  10.526 -0.2265  0.4501  0.1866
  200DOPC  H11R24830   4.951   2.503  10.585  2.0578  1.8239  2.5347
  200DOPC  H11S24831   4.853   2.593  10.471 -0.0690  1.0501 -0.1435
  200DOPC  C21224832   4.950   2.707  10.636 -0.1886 -0.2050 -0.3361
  200DOPC  H12R24833   4.852   2.705  10.688 -1.1282 -0.0939 -2.0527
  200DOPC  H12S24834   4.958   2.806  10.586 -4.2731  0.7317  0.4999
  200DOPC  C21324835   5.050   2.706  10.748  0.0291  0.3641 -0.5433
  200DOPC  H13R24836   5.144   2.751  10.710  0.1076 -1.1025 -2.2192
  200DOPC  H13S24837   5.062   2.598  10.771 -4.0101  0.0279  0.8437
  200DOPC  C21424838   4.991   2.781  10.875 -0.5247 -0.5495 -0.5372
  200DOPC  H14R24839   4.895   2.735  10.906 -1.7931  2.1967 -0.0619
  200DOPC  H14S24840   4.967   2.882  10.837  0.7317 -0.0531 -0.0726
  200DOPC  C21524841   5.096   2.793  10.986 -0.2470 -0.1150 -0.1285
  200DOPC  H15R24842   5.183   2.844  10.938 -2.0223  1.2482 -2.0309
  200DOPC  H15S24843   5.131   2.690  11.009 -1.3902 -0.4565  0.1095
  200DOPC  C21624844   5.049   2.857  11.122  0.4865 -0.4148  0.5017
  200DOPC  H16R24845   5.037   2.966  11.106  0.8636 -0.5313 -0.7047
  200DOPC  H16S24846   5.125   2.841  11.201  1.7647 -1.7023 -0.9232
  200DOPC  C21724847   4.918   2.786  11.172 -0.2426 -0.5788  0.6558
  200DOPC  H17R24848   4.842   2.799  11.092  0.2899  0.5556  0.3109
  200DOPC  H17S24849   4.878   2.829  11.266  0.3298 -1.4969  1.3363
  200DOPC  C21824850   4.930   2.636  11.197  0.4067 -0.5838 -0.1656
  200DOPC  H18R24851   4.917   2.583  11.101  0.5734 -2.3971  0.7682
  200DOPC  H18S24852   4.856   2.602  11.273 -0.0110  1.2189  0.3019
  200DOPC  H18T24853   5.029   2.619  11.245  0.8822 -2.2640 -1.6427
  200DOPC   C3324854   4.613   3.072  10.052 -0.2197 -0.3554  0.0017
  200DOPC   H3X24855   4.543   2.989  10.073  0.6849 -0.3510  3.5919
  200DOPC   H3Y24856   4.547   3.160  10.068  0.2012 -0.2780  1.4140
  200DOPC   C3424857   4.729   3.069  10.160  0.1660  0.1244  0.3807
  200DOPC   H4X24858   4.773   3.169  10.180  0.6461  0.5973 -2.6572
  200DOPC   H4Y24859   4.808   3.004  10.117 -0.4932 -0.4270 -0.0073
  200DOPC   C3524860   4.672   2.999  10.286 -0.3578  0.7691 -0.1934
  200DOPC   H5X24861   4.762   2.957  10.335  0.1250 -1.2742 -2.6035
  200DOPC   H5Y24862   4.607   2.914  10.255 -0.5965  0.7791  0.2785
  200DOPC   C3624863   4.590   3.089  10.390 -0.0278 -0.3799  0.0125
  200DOPC   H6X24864   4.664   3.171  10.408  1.1475 -0.8532 -2.2942
  200DOPC   H6Y24865   4.509   3.145  10.338  2.4780  1.7239 -1.8974
  200DOPC   C3724866   4.563   3.017  10.518  0.2777 -0.1942  0.0591
  200DOPC   H7X24867   4.479   3.056  10.579  1.6499  0.0993  1.8475
  200DOPC   H7Y24868   4.522   2.918  10.489 -1.7400 -0.0862  2.1897
  200DOPC   C3824869   4.686   2.997  10.611  0.2913  0.5282 -0.0937
  200DOPC   H8X24870   4.771   2.964  10.548 -0.3635  1.1204 -1.3375
  200DOPC   H8Y24871   4.666   2.906  10.671  1.7897  0.2346  0.0017
  200DOPC   C3924872   4.736   3.113  10.691 -0.0341  0.8036  0.2583
  200DOPC   H9X24873   4.816   3.168  10.641  1.2486 -1.4009 -0.2336
  200DOPC  C31024874   4.704   3.150  10.814  0.2510  0.6469  0.5578
  200DOPC  H10X24875   4.756   3.236  10.859  1.1896 -0.0734  0.8512
  200DOPC  C31124876   4.591   3.087  10.903  0.3171  0.2629  0.3565
  200DOPC  H11X24877   4.534   3.006  10.852 -0.7869  1.8137 -0.9500
  200DOPC  H11Y24878   4.514   3.164  10.924 -0.9269 -0.6905 -0.5847
  200DOPC  C31224879   4.651   3.035  11.035  1.1176 -0.3861  0.3987
  200DOPC  H12X24880   4.744   2.979  11.012  2.1063  0.3793  2.3350
  200DOPC  H12Y24881   4.583   2.958  11.078 -2.0362  1.5917 -0.7281
  200DOPC  C31324882   4.676   3.150  11.134  0.2123  0.2299  0.5583
  200DOPC  H13X24883   4.755   3.220  11.099  0.7411 -0.1367  0.9931
  200DOPC  H13Y24884   4.578   3.201  11.149 -1.0534 -2.0655  0.4682
  200DOPC  C31424885   4.726   3.099  11.271 -0.0382  0.6749 -0.8881
  200DOPC  H14X24886   4.654   3.033  11.324  0.9356 -1.0525 -1.6056
  200DOPC  H14Y24887   4.814   3.031  11.264 -0.3950 -0.1866  1.7712
  200DOPC  C31524888   4.763   3.222  11.345  0.2175  0.2783 -0.1906
  200DOPC  H15X24889   4.828   3.291  11.286  1.6320  0.7797  1.8509
  200DOPC  H15Y24890   4.811   3.188  11.439 -0.6593  0.6952  0.4223
  200DOPC  C31624891   4.645   3.304  11.384  0.8038  0.6721  0.4300
  200DOPC  H16X24892   4.598   3.341  11.290 -0.1120 -0.1151  0.5699
  200DOPC  H16Y24893   4.575   3.232  11.431  1.3768 -0.9706 -1.1048
  200DOPC  C31724894   4.685   3.421  11.484  0.3585  0.3015 -0.0348
  200DOPC  H17X24895   4.732   3.365  11.567 -2.1891  0.0135  1.2869
  200DOPC  H17Y24896   4.768   3.478  11.438  1.9774 -0.0780  2.2579
  200DOPC  C31824897   4.569   3.510  11.524  0.1693  0.5051 -0.2796
  200DOPC  H18X24898   4.538   3.572  11.438  0.0530 -1.1525 -1.4811
  200DOPC  H18Y24899   4.476   3.455  11.549 -0.3078  0.2871 -2.4235
  200DOPC  H18Z24900   4.592   3.569  11.616 -0.5183 -0.1601  0.3365
  201SOD    SOD24901   3.105   0.262  15.985 -0.1927 -0.1181  0.3130
  202SOD    SOD24902   4.083   6.418   6.810 -0.0852 -0.4145  0.6116
  203SOD    SOD24903   6.393   0.611  15.508  0.3882  0.2920  0.4981
  204SOD    SOD24904   2.769   2.125   6.061 -0.2611  0.3314 -0.0932
  205SOD    SOD24905   3.886   3.541  15.571 -0.5565  0.0726  0.7177
  206SOD    SOD24906   1.681   6.746   7.554  0.0027 -0.0402  0.1376
  207SOD    SOD24907   3.085   0.176   8.606 -0.1795 -0.4000 -0.4276
  208SOD    SOD24908   4.920   0.788  15.151  0.4733 -0.1600 -0.2017
  209SOD    SOD24909   3.127   1.747   7.518 -0.2176 -0.2178  0.6362
  210SOD    SOD24910   3.640   1.868  13.641  0.0152  0.5514  0.2200
  211SOD    SOD24911   0.400   4.006  14.155  0.1473 -0.3551 -0.4153
  212SOD    SOD24912   1.636   1.529  13.430  0.1258  0.3850  0.7412
  213SOD    SOD24913   0.167   4.602   6.840 -0.0929  0.1271  0.6624
  214SOD    SOD24914   6.016   0.165  13.764 -0.2262 -0.5381 -0.3449
  215SOD    SOD24915   0.217   2.720  15.003 -0.0402  0.2213  0.4343
  216SOD    SOD24916   6.199   5.465  14.139 -0.4351  0.0582  0.8145
  217SOD    SOD24917   4.763   4.241   7.207  0.1631  0.3902 -0.0597
  218SOD    SOD24918   2.632   5.345  16.333 -0.1228 -0.0333  0.2204
  219SOD    SOD24919   2.984   6.704  14.303  0.6011 -0.3193 -0.3375
  220SOD    SOD24920   4.105   5.078   9.101 -0.8244  0.0229 -0.0035
  221SOD    SOD24921   1.461   5.997   7.470  0.0232 -0.5032 -0.5675
  222SOD    SOD24922   2.449   1.298  14.718 -0.5554 -0.2374 -0.0970
  223SOD    SOD24923   1.291   2.800   7.482  0.1414  0.3022 -0.0960
  224SOD    SOD24924   2.840   5.683   6.791 -0.4557  0.2514  0.1926
  225SOD    SOD24925   1.646   3.618   5.783  0.2634  0.0767 -0.0222
  226SOD    SOD24926   0.778   1.053  13.467  0.0259  0.2294 -0.0051
  227CLA    CLA24927   4.233   2.375   7.711  0.4001 -0.2441 -0.0239
  228CLA    CLA24928   5.599   6.581   7.121 -0.0992 -0.0417  0.0737
  229CLA    CLA24929   3.112   0.314   6.303 -0.3011 -0.2127 -0.0012
  230CLA    CLA24930   2.929   0.649  15.340  0.0177 -0.1674  0.0394
  231CLA    CLA24931   0.355   1.851  14.717 -0.2232  0.0560 -0.3269
  232CLA    CLA24932   3.414   2.921  16.830  0.0148 -0.0237  0.6141
  233CLA    CLA24933   0.944   5.528  14.629 -0.1511 -0.1167 -0.0778
  234CLA    CLA24934   3.601   5.112  14.717  0.0215 -0.4191 -0.1491
  235CLA    CLA24935   3.075   6.572   7.725  0.1541  0.1279 -0.2314
  236CLA    CLA24936   5.275   5.720  16.353 -0.0437  0.1987 -0.2805
  237CLA    CLA24937   5.472   1.375  14.848  0.1144  0.0148  0.3688
  238CLA    CLA24938   1.498   1.167   7.984 -0.0783 -0.0924 -0.2128
  239CLA    CLA24939   2.118   0.847   8.388 -0.1324  0.0382 -0.0939
  240CLA    CLA24940   0.583   6.290  14.456  0.0437  0.1086  0.5670
  241CLA    CLA24941   2.234   2.860   6.133 -0.1211  0.4149  0.2314
  242CLA    CLA24942   0.431   0.877  13.728  0.1238  0.3642 -0.1558
  243CLA    CLA24943   5.222   4.064   6.792 -0.0656 -0.1235 -0.1247
  244CLA    CLA24944   0.165   3.931   8.037  0.6531 -0.0751 -0.2407
  245CLA    CLA24945   4.323   2.030   6.817 -0.5061 -0.0871 -0.0972
  246CLA    CLA24946   4.026   1.596  15.524 -0.0398  0.1369 -0.2105
  247CLA    CLA24947   2.455   0.227   6.057  0.4165 -0.0992  0.2316
  248CLA    CLA24948   4.773   0.210   8.561  0.1626 -0.1437 -0.1886
  249CLA    CLA24949   5.264   0.319   6.297  0.1657 -0.2885 -0.2270
  250CLA    CLA24950   2.219   2.651  14.456  0.4036  0.3030 -0.1977
  251CLA    CLA24951   6.518   2.369  15.764 -0.7198  0.1278  0.1798
  252CLA    CLA24952   5.791   4.801   7.250  0.0250 -0.1350  0.0497
  253TIP3   OH224953   5.807   5.572  15.837  0.7070 -0.4367  0.6866
  253TIP3    H124954   5.854   5.572  15.920  1.7583  0.7634  0.1197
  253TIP3    H224955   5.721   5.609  15.858  1.2560  0.6426  1.0983
  254TIP3   OH224956   3.984   5.321  16.720  0.2059 -0.1624 -0.5217
  254TIP3    H124957   4.067   5.368  16.723  0.1939 -0.1457 -0.4199
  254TIP3    H224958   4.003   5.238  16.764  0.0571  0.0223 -0.0989
  255TIP3   OH224959   3.915   0.140  15.106  0.5060  0.1780 -0.1129
  255TIP3    H124960   3.921   0.112  15.197  0.2063  1.9511  0.5033
  255TIP3    H224961   4.005   0.161  15.080  0.2990  2.3897  0.7540
  256TIP3   OH224962   1.883   3.657  16.484 -0.6936  0.4277  0.0916
  256TIP3    H124963   1.803   3.616  16.516 -1.3190  0.9942 -0.7160
  256TIP3    H224964   1.854   3.716  16.415  0.3532  1.1055  0.2081
  257TIP3   OH224965   1.182   2.210  14.932  0.0871  0.5255  0.3195
  257TIP3    H124966   1.258   2.265  14.952 -0.6600  1.6708  0.1183
  257TIP3    H224967   1.187   2.139  14.996  1.2828  0.6147  0.3524
  258TIP3   OH224968   6.634   4.691  14.502 -0.1160 -0.2987 -0.2566
  258TIP3    H124969   6.664   4.702  14.593  0.9339 -1.2273 -0.4765
  258TIP3    H224970   6.543   4.662  14.510 -0.0813 -0.2290  0.4848
  259TIP3   OH224971   3.679   1.184  16.795  0.1308 -0.5754 -0.2098
  259TIP3    H124972   3.646   1.258  16.847  0.9560 -0.6064  0.3789
  259TIP3    H224973   3.656   1.206  16.705 -0.1665  0.1117  0.0252
  260TIP3   OH224974   2.541   2.109  15.162 -0.4784 -0.2370 -0.2148
  260TIP3    H124975   2.528   2.116  15.067 -0.0792 -0.1837 -0.2686
  260TIP3    H224976   2.629   2.143  15.177 -0.9271  0.7190  0.3159
  261TIP3   OH224977   5.460   1.359  14.245 -0.0310  0.4872 -0.7071
  261TIP3    H124978   5.368   1.335  14.234 -0.4767  0.9562  1.5439
  261TIP3    H224979   5.496   1.358  14.156 -2.0989 -0.0906 -1.5902
  262TIP3   OH224980   3.682   0.400  15.913  0.5151 -0.2173  0.4245
  262TIP3    H124981   3.603   0.451  15.929  0.1006 -0.1864 -1.4876
  262TIP3    H224982   3.655   0.309  15.927 -0.0029 -0.2426 -0.6236
  263TIP3   OH224983   4.782   0.164  16.206  0.2206 -0.9377 -0.4920
  263TIP3    H124984   4.800   0.101  16.137  1.5355 -2.3813  1.0760
  263TIP3    H224985   4.867   0.207  16.221 -0.7616  1.7178 -1.9355
  264TIP3   OH224986   5.233   2.747  15.699  0.6416 -0.3584  0.1523
  264TIP3    H124987   5.237   2.663  15.743 -3.5430 -0.9325 -0.1356
  264TIP3    H224988   5.220   2.726  15.607  3.1156  0.7500 -0.5329
  265TIP3   OH224989   3.425   3.529  15.935 -0.2033 -0.2292 -0.2620
  265TIP3    H124990   3.420   3.619  15.965 -1.0134 -0.5018  0.4568
  265TIP3    H224991   3.513   3.500  15.962 -0.5531 -0.1649  1.0132
  266TIP3   OH224992   2.022   6.085  16.266 -0.0629  0.0745 -0.4380
  266TIP3    H124993   1.991   6.113  16.180  0.3928  1.3737 -0.2102
  266TIP3    H224994   1.946   6.044  16.307 -1.0012  1.6084 -0.5548
  267TIP3   OH224995   4.566   0.878  14.811  0.1721  0.0017 -0.1243
  267TIP3    H124996   4.617   0.953  14.780  0.5193  0.2939  1.1080
  267TIP3    H224997   4.563   0.819  14.736  0.4965  0.9301 -0.8931
  268TIP3   OH224998   1.697   3.752  15.186 -0.1315  0.6608 -0.4526
  268TIP3    H124999   1.638   3.721  15.255 -0.1807 -0.8469 -1.1296
  268TIP3    H225000   1.773   3.785  15.232 -0.2071 -0.2439  0.3576
  269TIP3   OH225001   5.194   0.134  15.992  0.3889 -0.2216 -0.5964
  269TIP3    H125002   5.246   0.141  15.912 -0.2794  0.0236 -1.0188
  269TIP3    H225003   5.139   0.057  15.978 -0.0586  0.0877 -0.5769
  270TIP3   OH225004   5.644   4.828  14.042  0.2111  0.6394  0.1057
  270TIP3    H125005   5.640   4.923  14.055  1.9636  0.8453 -0.6031
  270TIP3    H225006   5.686   4.818  13.957 -0.7062 -0.7934 -0.2091
  271TIP3   OH225007   3.439   3.178  16.671 -0.2388  0.1991  0.7478
  271TIP3    H125008   3.438   3.102  16.730 -0.2738 -1.1276 -0.8786
  271TIP3    H225009   3.351   3.215  16.677 -0.5349 -0.5094  0.8230
  272TIP3   OH225010   4.408   4.208  15.866  0.7277 -0.2027  0.0178
  272TIP3    H125011   4.460   4.267  15.921 -1.5794  2.2811 -0.2611
  272TIP3    H225012   4.453   4.208  15.781  2.9661 -2.1691  1.0617
  273TIP3   OH225013   0.237   6.396  16.355 -0.0833  0.3195  0.2077
  273TIP3    H125014   0.239   6.305  16.383  1.5124  0.5896  1.0843
  273TIP3    H225015   0.216   6.392  16.262 -1.6459 -0.8291  0.5728
  274TIP3   OH225016   5.549   3.161  17.247  0.4560 -0.2759 -0.4089
  274TIP3    H125017   5.455   3.176  17.236  0.5523 -0.3501 -1.4552
  274TIP3    H225018   5.556   3.113  17.329 -0.6151 -1.8959 -1.1940
  275TIP3   OH225019   2.488   3.190  13.809 -0.3056  0.7416  0.5294
  275TIP3    H125020   2.541   3.269  13.802  0.9022 -0.1529 -1.6480
  275TIP3    H225021   2.457   3.189  13.899  3.2504  1.4371  1.9145
  276TIP3   OH225022   3.204   5.854  15.200 -0.1196 -0.1120  0.4663
  276TIP3    H125023   3.170   5.823  15.284  0.8196 -1.7497  0.3032
  276TIP3    H225024   3.176   5.788  15.137 -0.0094  0.5982 -0.3452
  277TIP3   OH225025   5.943   5.455  15.639  0.0393 -0.4584 -0.0647
  277TIP3    H125026   5.944   5.516  15.566  1.3658 -0.3986 -0.0260
  277TIP3    H225027   5.890   5.498  15.706 -0.0265  0.1047 -0.4692
  278TIP3   OH225028   0.584   4.443  15.181  0.3502 -0.5099  0.7229
  278TIP3    H125029   0.584   4.507  15.110  1.3850 -1.6767 -0.3979
  278TIP3    H225030   0.613   4.492  15.258  1.9221  0.2212 -0.2856
  279TIP3   OH225031   4.292   0.599  14.375  0.2826  0.1580  0.3091
  279TIP3    H125032   4.345   0.526  14.405  0.9623  0.7286  0.5152
  279TIP3    H225033   4.327   0.675  14.420 -2.3723  0.2255  2.5401
  280TIP3   OH225034   5.534   0.053  14.658  0.5419 -0.2869 -0.5519
  280TIP3    H125035   5.464   0.009  14.608  1.6922 -1.5750 -1.0927
  280TIP3    H225036   5.587   0.096  14.592  0.4902  0.3730 -0.1706
  281TIP3   OH225037   2.061   2.051  16.512 -0.0109 -0.1592  0.1651
  281TIP3    H125038   2.145   2.064  16.555  0.7559 -0.5609 -1.1631
  281TIP3    H225039   2.078   2.066  16.419 -1.3580 -0.4686 -0.1628
  282TIP3   OH225040   3.201   5.612  15.074 -0.6653 -0.3839 -0.3981
  282TIP3    H125041   3.119   5.564  15.082 -1.1829  0.4002 -0.9358
  282TIP3    H225042   3.234   5.590  14.986 -0.6163 -0.1993 -0.4270
  283TIP3   OH225043   1.589   1.443  15.193 -0.5055 -0.4708  0.1985
  283TIP3    H125044   1.535   1.389  15.134 -2.4641  0.6411  0.8605
  283TIP3    H225045   1.528   1.508  15.228  1.0972  0.2765  1.7640
  284TIP3   OH225046   1.851   3.105   8.569 -0.3189  0.2089  0.3339
  284TIP3    H125047   1.797   3.033   8.537  0.3161 -0.2708  0.3356
  284TIP3    H225048   1.802   3.140   8.643 -0.3666 -0.5812  0.6829
  285TIP3   OH225049   3.597   2.445   7.634 -0.1527 -0.2115  0.5373
  285TIP3    H125050   3.661   2.387   7.592 -0.0650 -0.1283  0.5563
  285TIP3    H225051   3.649   2.514   7.673 -0.3543  0.6739 -0.7201
  286TIP3   OH225052   0.464   0.696   6.360 -0.5491 -0.3260 -0.2889
  286TIP3    H125053   0.432   0.693   6.270 -2.0572 -0.0611  0.2038
  286TIP3    H225054   0.455   0.606   6.392  1.1458 -0.6859 -0.7597
  287TIP3   OH225055   3.552   2.618   5.699 -0.5322  0.1272  0.6581
  287TIP3    H125056   3.619   2.666   5.650 -0.1056  0.9405  2.0009
  287TIP3    H225057   3.513   2.682   5.757 -3.6389  0.0611 -1.1450
  288TIP3   OH225058   5.776   3.693   5.798  0.0940  0.0653  0.6141
  288TIP3    H125059   5.733   3.727   5.720 -0.5990  0.2328  1.0605
  288TIP3    H225060   5.724   3.727   5.871 -0.0807 -1.1773  1.1081
  289TIP3   OH225061   4.423   0.356   8.780 -0.1969 -0.4004 -0.0155
  289TIP3    H125062   4.343   0.325   8.737 -0.7989  0.6236  0.3396
  289TIP3    H225063   4.397   0.370   8.871  0.7824 -1.4938  0.4602
  290TIP3   OH225064   5.091   2.796   7.571  0.3808  0.3207 -0.5222
  290TIP3    H125065   5.073   2.766   7.481  2.2373  0.5938 -1.0339
  290TIP3    H225066   5.138   2.878   7.560 -0.1595  0.8244  0.7512
  291TIP3   OH225067   3.046   3.893   8.386  0.2853  0.4589 -0.1319
  291TIP3    H125068   2.960   3.935   8.382  0.0269  0.5406  3.2119
  291TIP3    H225069   3.026   3.799   8.383  0.2947  0.4860 -1.3855
  292TIP3   OH225070   6.203   2.509   6.496  0.3101  0.2990  0.0574
  292TIP3    H125071   6.184   2.581   6.557  0.3698  1.8915 -1.7279
  292TIP3    H225072   6.233   2.551   6.416  1.0160 -1.7639 -0.8476
  293TIP3   OH225073   1.600   6.351   8.569  0.0662  0.1903  0.1640
  293TIP3    H125074   1.605   6.446   8.574  0.9961  0.1195  0.6217
  293TIP3    H225075   1.537   6.326   8.637 -0.5645  0.5073 -0.2967
  294TIP3   OH225076   5.244   5.147   6.018 -0.9200  0.3700 -0.5731
  294TIP3    H125077   5.237   5.081   6.087 -1.2929  0.5796 -0.4037
  294TIP3    H225078   5.320   5.121   5.967  1.2688  1.8407  1.6844
  295TIP3   OH225079   3.412   4.078   8.112 -0.5160  0.5994  0.3591
  295TIP3    H125080   3.408   4.168   8.080  2.0400  0.6945  0.1607
  295TIP3    H225081   3.413   4.024   8.033  0.8147  0.5698  0.3850
  296TIP3   OH225082   3.934   0.274   6.311  0.4254  0.2267  0.3593
  296TIP3    H125083   4.023   0.278   6.274  0.5534  1.8477  0.7615
  296TIP3    H225084   3.884   0.223   6.248  0.9566  1.7739 -1.4166
  297TIP3   OH225085   2.529   3.440   6.225  0.8595 -0.6357 -0.1547
  297TIP3    H125086   2.499   3.397   6.305  3.4610 -0.3723  1.0496
  297TIP3    H225087   2.601   3.386   6.194  1.3010  0.4436 -1.0814
  298TIP3   OH225088   3.628   4.753   6.128 -0.7352  0.0483  0.5920
  298TIP3    H125089   3.723   4.767   6.137 -0.7685  0.2204  0.6592
  298TIP3    H225090   3.588   4.823   6.179 -0.9112  0.5118 -0.1766
  299TIP3   OH225091   5.118   0.036   7.372 -0.0206  0.1274  0.2465
  299TIP3    H125092   5.085   0.101   7.435  0.6547  0.0031  0.7395
  299TIP3    H225093   5.089  -0.048   7.407  0.6532  0.0302  0.5945
  300TIP3   OH225094   2.201   0.845   5.454 -0.2878 -0.1821 -0.0999
  300TIP3    H125095   2.226   0.755   5.433  0.3719  0.2018 -1.0302
  300TIP3    H225096   2.179   0.843   5.547  0.5780 -1.1300  0.1026
  301TIP3   OH225097   1.193   0.474   8.114 -0.1419 -0.0994  0.5035
  301TIP3    H125098   1.106   0.513   8.106  0.1920  0.3547 -1.2957
  301TIP3    H225099   1.176   0.380   8.125 -0.8775 -0.0946 -0.4160
  302TIP3   OH225100   4.509   5.363   6.464  1.0767  0.4041 -0.3078
  302TIP3    H125101   4.443   5.298   6.441  0.0752  1.5517 -0.7922
  302TIP3    H225102   4.572   5.315   6.519 -0.1312 -0.7271  0.1391
  303TIP3   OH225103   3.867   3.315   8.069 -0.6715 -0.5544  0.0228
  303TIP3    H125104   3.913   3.274   8.143 -2.0582 -0.6795  0.8617
  303TIP3    H225105   3.790   3.356   8.109 -0.4545  1.0379 -1.1128
  304TIP3   OH225106   2.561   2.504   8.167  0.4529 -0.3397 -0.0109
  304TIP3    H125107   2.510   2.584   8.171 -0.1939 -0.6360 -1.6698
  304TIP3    H225108   2.536   2.463   8.084  2.4767 -1.1050 -0.3171
  305TIP3   OH225109   6.661   4.776   7.490  0.1096  0.3009  0.1335
  305TIP3    H125110   6.589   4.834   7.468  1.1723  1.3330 -0.7678
  305TIP3    H225111   6.621   4.708   7.545 -1.3042  1.4730  0.6374
  306TIP3   OH225112   5.194   0.405   8.253  0.2002 -0.0838 -0.3725
  306TIP3    H125113   5.153   0.450   8.179  0.3431  1.0460  0.2139
  306TIP3    H225114   5.124   0.394   8.316  0.1357 -0.8317 -0.5630
  307TIP3   OH225115   1.864   3.146   7.081 -0.1729  0.4092  0.4087
  307TIP3    H125116   1.941   3.090   7.073  1.1009  2.2858 -1.5854
  307TIP3    H225117   1.880   3.198   7.160  0.2647  0.3065  0.3869
  308TIP3   OH225118   2.603   3.923   8.669 -0.4030  0.2354 -0.4271
  308TIP3    H125119   2.547   3.857   8.709  0.8082 -1.0167 -0.7102
  308TIP3    H225120   2.677   3.932   8.729  0.1364  0.2790 -1.0821
  309TIP3   OH225121   0.587   3.984   6.235 -0.2740 -0.3664  0.9956
  309TIP3    H125122   0.595   4.073   6.200  1.2529 -0.7400  0.3187
  309TIP3    H225123   0.670   3.968   6.279 -0.3929 -1.5958  0.8046
  310TIP3   OH225124   1.927   4.589   9.599 -0.3620 -0.2360  0.1443
  310TIP3    H125125   1.988   4.661   9.580 -0.5413 -0.1673 -0.1751
  310TIP3    H225126   1.973   4.536   9.664 -0.8931  1.0580  1.6339
  311TIP3   OH225127   6.491   6.031   6.775 -0.4487 -0.3587 -0.0265
  311TIP3    H125128   6.426   6.059   6.839 -0.7377 -0.0158 -0.4666
  311TIP3    H225129   6.446   5.966   6.721 -0.6900  0.4342 -0.8205
  312TIP3   OH225130   4.713   5.422   7.099 -0.2893  0.2929 -0.1272
  312TIP3    H125131   4.731   5.495   7.157  1.0011  1.3454 -1.7566
  312TIP3    H225132   4.792   5.369   7.101  0.1750  0.8723 -1.5999
  313TIP3   OH225133   0.956   2.938   8.041  0.1357 -0.3755 -0.4274
  313TIP3    H125134   1.016   3.010   8.060 -2.7078  1.6926  1.4420
  313TIP3    H225135   0.985   2.867   8.098 -0.5180  1.4082  2.2888
  314TIP3   OH225136   2.112   5.939   8.642  0.2266  0.2067  0.0388
  314TIP3    H125137   2.151   6.019   8.679  0.1575 -1.1459  3.3833
  314TIP3    H225138   2.018   5.959   8.636  0.4863  1.1647 -1.6210
  315TIP3   OH225139   4.423   5.443   7.807  0.0823 -0.6239 -0.1301
  315TIP3    H125140   4.477   5.513   7.844 -3.0662  0.6783  2.5611
  315TIP3    H225141   4.483   5.369   7.796  2.6905  1.1870  1.0260
  316TIP3   OH225142   4.525   3.298   8.306  0.0153 -0.6501  0.4277
  316TIP3    H125143   4.438   3.281   8.343  0.5618 -0.0032  2.1492
  316TIP3    H225144   4.585   3.247   8.361  0.8417  0.0236  0.1788
  317TIP3   OH225145   6.047   0.498   6.609  0.1794  0.1499  0.3380
  317TIP3    H125146   6.036   0.460   6.696  0.4236  1.3637  0.9155
  317TIP3    H225147   5.961   0.488   6.568 -0.1906  0.3707  1.0470
  318TIP3   OH225148   0.314   4.434   6.789 -0.1066  0.2387  0.2054
  318TIP3    H125149   0.269   4.360   6.748  0.4491  0.0465 -0.0753
  318TIP3    H225150   0.390   4.449   6.733  0.3734  0.3215  0.8605
  319TIP3   OH225151   1.899   5.413   7.405  0.2784  0.3017 -0.9247
  319TIP3    H125152   1.874   5.500   7.375  0.9465  0.6148 -0.5946
  319TIP3    H225153   1.904   5.420   7.500 -1.5664 -0.6173 -0.7137
  320TIP3   OH225154   0.854   3.617   8.221  0.0390 -0.1381 -0.6008
  320TIP3    H125155   0.791   3.689   8.219  2.1693  1.8770  0.5136
  320TIP3    H225156   0.840   3.575   8.305  1.3765  1.5677  0.5552
  321TIP3   OH225157   0.900   3.261   8.436  0.3500  0.1885  0.3915
  321TIP3    H125158   0.906   3.195   8.505 -0.2123 -1.0352 -0.6864
  321TIP3    H225159   0.914   3.344   8.481  0.6382 -0.6223  1.8636
  322TIP3   OH225160   6.263   6.468   7.865  0.4521 -0.1206 -0.1672
  322TIP3    H125161   6.197   6.452   7.932  1.5179  0.4983  1.0697
  322TIP3    H225162   6.318   6.389   7.866 -0.0746 -0.5085 -0.9852
  323TIP3   OH225163   0.455   2.834  13.981  0.1324 -0.6615  0.4569
  323TIP3    H125164   0.496   2.900  14.037 -0.3001  0.1093 -0.1120
  323TIP3    H225165   0.506   2.835  13.900 -0.9773  0.3085 -0.2578
  324TIP3   OH225166   1.772   2.250  15.630 -0.6279  0.0668  0.3249
  324TIP3    H125167   1.705   2.185  15.607 -0.8389  0.4129 -0.0546
  324TIP3    H225168   1.797   2.289  15.546  0.1387 -0.1345  0.4481
  325TIP3   OH225169   6.089   0.281  13.957  0.5391  0.5099 -0.4349
  325TIP3    H125170   6.175   0.323  13.955  1.3469 -1.0802 -0.5043
  325TIP3    H225171   6.034   0.341  14.008  2.4655  0.2358  2.1866
  326TIP3   OH225172   4.873   3.099  15.541  0.4868 -0.1329  0.5583
  326TIP3    H125173   4.937   3.157  15.582  0.7748 -0.7661  1.0095
  326TIP3    H225174   4.912   3.012  15.546  0.6191 -0.2161 -1.2348
  327TIP3   OH225175   5.156   5.017  15.705  0.0627  0.5187 -0.0448
  327TIP3    H125176   5.183   4.964  15.780  1.2226  0.1830 -0.6878
  327TIP3    H225177   5.104   4.958  15.651  3.7965 -1.0304 -2.2948
  328TIP3   OH225178   2.944   0.953  15.406 -0.3171  0.6174  0.1581
  328TIP3    H125179   2.924   0.974  15.315  0.5774 -0.8217 -0.4003
  328TIP3    H225180   2.931   0.858  15.413 -0.3237  0.6920  1.5210
  329TIP3   OH225181   2.031   4.210  14.252  0.0858 -0.3939  0.2317
  329TIP3    H125182   2.083   4.228  14.174  1.4796 -1.4308  0.8843
  329TIP3    H225183   2.087   4.155  14.306 -1.7733 -1.7410  0.8872
  330TIP3   OH225184   4.520   0.492  13.202  0.5240 -0.3308  0.3435
  330TIP3    H125185   4.562   0.567  13.243 -0.9198  0.5224  0.3167
  330TIP3    H225186   4.565   0.416  13.240  2.3188  0.5197  0.0357
  331TIP3   OH225187   2.404   2.926  17.184 -0.2313 -0.2954  0.2419
  331TIP3    H125188   2.339   2.871  17.140  0.4971 -1.3848  0.4673
  331TIP3    H225189   2.483   2.871  17.188  1.1382  1.4346 -1.1694
  332TIP3   OH225190   1.554   5.541  15.038 -0.2649  0.4008  0.1051
  332TIP3    H125191   1.488   5.471  15.036  0.8059 -0.6302 -1.1596
  332TIP3    H225192   1.569   5.562  14.946  0.6915  1.0879  0.4033
  333TIP3   OH225193   6.202   1.391  14.511  0.0089 -0.0800  0.4269
  333TIP3    H125194   6.254   1.458  14.555 -0.1327 -1.1060  2.2538
  333TIP3    H225195   6.266   1.339  14.462  0.4637 -0.1848  1.1222
  334TIP3   OH225196   4.646   6.049  13.695  0.3244 -0.1073  0.3966
  334TIP3    H125197   4.612   6.127  13.740  0.7528  0.4284 -0.1865
  334TIP3    H225198   4.567   6.003  13.664 -0.0015  2.5508 -3.3910
  335TIP3   OH225199   3.882   4.848  15.405 -0.1362  0.8189  0.5068
  335TIP3    H125200   3.803   4.893  15.436 -0.2710  1.3187 -0.5158
  335TIP3    H225201   3.888   4.872  15.313  0.3608 -0.4738  0.1881
  336TIP3   OH225202   5.843   5.178  16.971  0.0223 -0.3249 -0.0669
  336TIP3    H125203   5.906   5.141  17.033  0.4542  0.2431 -0.1505
  336TIP3    H225204   5.789   5.105  16.944  1.4536 -1.0997 -0.9573
  337TIP3   OH225205   1.729   4.638  16.503 -0.0525 -0.3177 -0.0577
  337TIP3    H125206   1.677   4.589  16.565 -0.8910  0.1104 -0.4061
  337TIP3    H225207   1.819   4.609  16.519 -0.3975 -1.1292  0.4900
  338TIP3   OH225208   5.459   5.453  16.758  0.2471 -0.1895  0.4993
  338TIP3    H125209   5.495   5.486  16.841  0.7633 -0.1859  0.2768
  338TIP3    H225210   5.485   5.518  16.693  2.0049 -1.4201 -0.0980
  339TIP3   OH225211   3.433   3.248  15.788 -0.4455  0.3063  0.8052
  339TIP3    H125212   3.481   3.248  15.870 -1.6529 -0.2312  1.5410
  339TIP3    H225213   3.423   3.341  15.766  0.5604  0.4341  0.8258
  340TIP3   OH225214   2.958   0.382  14.412 -0.4778 -0.0579 -0.0256
  340TIP3    H125215   2.868   0.359  14.388 -0.6803  1.4857 -0.8925
  340TIP3    H225216   2.967   0.474  14.385  0.8669  0.2919  1.4779
  341TIP3   OH225217   1.092   3.927  15.545 -0.2086  0.2375  0.2278
  341TIP3    H125218   1.133   3.873  15.477  0.3223  1.4093 -0.4307
  341TIP3    H225219   1.049   3.865  15.603  0.9345 -0.9239 -0.1185
  342TIP3   OH225220   4.731   5.824  13.810 -0.1107 -0.0278 -0.4461
  342TIP3    H125221   4.797   5.813  13.742  0.1954  0.6401 -0.2682
  342TIP3    H225222   4.677   5.897  13.780  2.1704  2.7662  1.6047
  343TIP3   OH225223   5.748   4.974  16.393 -0.5194  0.0637 -0.6579
  343TIP3    H125224   5.707   5.004  16.474 -0.3076  1.2163 -0.9592
  343TIP3    H225225   5.840   4.997  16.402 -0.5276  0.3917 -1.2946
  344TIP3   OH225226   1.195   1.245  15.777 -0.4173  0.0893 -0.4208
  344TIP3    H125227   1.113   1.276  15.817  0.2817 -0.0271  1.1646
  344TIP3    H225228   1.223   1.172  15.832  2.2360  1.9240  0.9049
  345TIP3   OH225229   1.914   2.371  15.444 -0.0033  0.2659 -0.1035
  345TIP3    H125230   1.935   2.413  15.361  1.1092 -0.9100 -0.4688
  345TIP3    H225231   2.000   2.356  15.485 -0.3828 -1.1620  0.2172
  346TIP3   OH225232   2.536   1.046  16.576 -0.1002  0.3179 -0.5469
  346TIP3    H125233   2.507   1.087  16.495 -1.2008  2.0774  0.6650
  346TIP3    H225234   2.618   1.090  16.597 -0.5557  0.9143  0.0195
  347TIP3   OH225235   1.873   4.203  16.680 -0.5991  0.2345  0.4564
  347TIP3    H125236   1.967   4.218  16.683 -0.3967 -1.0767  2.0441
  347TIP3    H225237   1.863   4.123  16.629 -0.9554  0.9026 -0.5486
  348TIP3   OH225238   0.836   0.436  14.068  0.8344  0.0270 -0.1057
  348TIP3    H125239   0.900   0.419  14.137  1.0231  0.4722 -0.1680
  348TIP3    H225240   0.889   0.450  13.989  0.5725 -2.5426 -0.8359
  349TIP3   OH225241   5.499   6.746  15.572 -0.4129  0.6402  0.0250
  349TIP3    H125242   5.569   6.795  15.615 -0.0601  1.7916 -1.7208
  349TIP3    H225243   5.544   6.683  15.516 -0.7815  0.5578 -0.1885
  350TIP3   OH225244   4.227   4.033  16.514 -0.5981  0.1503 -0.6011
  350TIP3    H125245   4.200   4.118  16.549  1.6488  1.0595 -0.9373
  350TIP3    H225246   4.306   4.010  16.563 -0.8569 -1.5231 -0.8949
  351TIP3   OH225247   2.641   3.836  15.549 -0.8029  0.2922 -0.2633
  351TIP3    H125248   2.700   3.776  15.503  0.4841  1.5687 -0.3532
  351TIP3    H225249   2.563   3.841  15.494 -1.4728 -2.2025  0.3581
  352TIP3   OH225250   3.185   2.405  17.261 -0.8005 -0.2029  0.1630
  352TIP3    H125251   3.267   2.425  17.215 -0.4475 -0.4331  0.6691
  352TIP3    H225252   3.153   2.490  17.291 -1.0056 -0.0594 -0.4585
  353TIP3   OH225253   3.497   5.114  16.401  0.1566 -0.2767 -0.2422
  353TIP3    H125254   3.404   5.092  16.406  0.1243 -0.7307 -2.1174
  353TIP3    H225255   3.512   5.173  16.476 -1.9207  0.8512 -0.6405
  354TIP3   OH225256   3.085   2.617  15.007 -0.5312  0.0935  0.2900
  354TIP3    H125257   3.159   2.634  15.064 -0.7171 -0.1370  0.5986
  354TIP3    H225258   3.021   2.572  15.062 -1.2954  1.1526  0.2870
  355TIP3   OH225259   6.372   5.578  15.610 -0.0333 -0.0363 -0.2276
  355TIP3    H125260   6.435   5.644  15.580 -1.0089  1.1337  0.1900
  355TIP3    H225261   6.375   5.510  15.542 -0.5186  1.4399 -1.8186
  356TIP3   OH225262   1.161   5.456  14.834 -0.1356  0.0836  0.4782
  356TIP3    H125263   1.096   5.493  14.774 -0.1930 -0.7120  0.0351
  356TIP3    H225264   1.188   5.529  14.889 -1.1038  0.5087  0.3916
  357TIP3   OH225265   1.134   3.334  14.272 -0.1548 -0.3332 -0.2783
  357TIP3    H125266   1.101   3.310  14.359 -2.6095  1.1629 -0.7076
  357TIP3    H225267   1.075   3.289  14.211  1.0574 -0.7310 -1.1797
  358TIP3   OH225268   1.238   5.336  15.825  0.0477  0.1794 -0.1476
  358TIP3    H125269   1.212   5.247  15.850  0.2479 -0.1972 -1.2290
  358TIP3    H225270   1.328   5.327  15.793  0.4594  0.9675  0.7586
  359TIP3   OH225271   0.336   2.667  16.337 -0.2147  0.5486 -0.1112
  359TIP3    H125272   0.279   2.606  16.386  2.6270 -1.0979  1.4671
  359TIP3    H225273   0.349   2.740  16.397 -1.0607  1.1794 -0.6875
  360TIP3   OH225274   0.881   6.133  16.442  0.7496  0.1224 -0.2344
  360TIP3    H125275   0.972   6.144  16.415  0.1191  3.4356 -1.6099
  360TIP3    H225276   0.858   6.217  16.483 -1.6682 -0.6310  0.1404
  361TIP3   OH225277   4.988   6.356  16.514  0.6302  0.1732  0.7687
  361TIP3    H125278   4.937   6.423  16.467  0.1765  0.2546  1.3670
  361TIP3    H225279   5.072   6.354  16.468  0.3463  0.5481  0.2134
  362TIP3   OH225280   4.397   1.066  15.876 -0.3613  0.5307  0.2331
  362TIP3    H125281   4.367   1.100  15.960 -1.5641  0.4050 -0.1270
  362TIP3    H225282   4.460   0.998  15.899 -1.5977 -0.3820  1.0956
  363TIP3   OH225283   1.217   3.493  17.112  0.1039 -0.0999 -0.4933
  363TIP3    H125284   1.145   3.536  17.066 -0.6657  0.4703  1.1673
  363TIP3    H225285   1.259   3.563  17.162  0.3058 -0.8271  0.3889
  364TIP3   OH225286   2.562   5.902  16.613 -0.0988  0.2470 -0.2910
  364TIP3    H125287   2.604   5.848  16.680 -0.1198 -0.8886 -1.1536
  364TIP3    H225288   2.493   5.949  16.659 -0.2265 -0.6432  0.4522
  365TIP3   OH225289   5.240   5.072  15.445 -0.8391 -0.0977  1.0477
  365TIP3    H125290   5.222   5.064  15.539 -1.3014  0.7285  1.0401
  365TIP3    H225291   5.328   5.109  15.441 -0.0530 -1.8632  1.1150
  366TIP3   OH225292   0.996   0.311  12.926  0.1056 -0.4928 -0.3167
  366TIP3    H125293   0.972   0.219  12.934 -1.2944 -0.3353 -2.1219
  366TIP3    H225294   1.074   0.311  12.870 -1.8076 -0.4857 -3.1764
  367TIP3   OH225295   2.616   3.345  14.992  0.0206  0.2861 -0.2692
  367TIP3    H125296   2.548   3.332  14.926  0.2056 -0.1126 -0.3875
  367TIP3    H225297   2.698   3.337  14.943  0.2154  3.1844 -0.6399
  368TIP3   OH225298   4.849   6.340  14.282  0.3533 -0.3583 -0.2595
  368TIP3    H125299   4.910   6.392  14.231  0.0168 -0.4113 -0.7253
  368TIP3    H225300   4.843   6.257  14.235  1.5570 -1.1575  0.9532
  369TIP3   OH225301   3.849   1.533  14.394 -0.1473 -0.0259  0.3162
  369TIP3    H125302   3.813   1.518  14.481  2.3119 -0.4343  1.3353
  369TIP3    H225303   3.939   1.563  14.409 -0.0588  1.1742 -2.0646
  370TIP3   OH225304   5.751   3.093  15.742 -0.4389 -0.6089  0.1836
  370TIP3    H125305   5.766   3.165  15.680  0.9373 -0.2914  0.8360
  370TIP3    H225306   5.713   3.136  15.818  1.1001 -0.3990  0.8760
  371TIP3   OH225307   4.554   0.023  15.529  0.0806  0.3100 -0.5975
  371TIP3    H125308   4.622   0.087  15.550  0.0448  0.4697 -0.9622
  371TIP3    H225309   4.490   0.032  15.599  0.7322 -0.2771  0.0977
  372TIP3   OH225310   2.838   0.559  14.996  0.0692 -0.4281  0.5861
  372TIP3    H125311   2.823   0.512  15.078 -2.0409  0.2726  0.6656
  372TIP3    H225312   2.902   0.626  15.018  0.1152 -0.7477  1.4568
  373TIP3   OH225313   5.530   1.427  13.554 -0.4782 -0.1628 -0.1326
  373TIP3    H125314   5.442   1.444  13.520 -1.3409 -1.9745  1.0668
  373TIP3    H225315   5.575   1.380  13.483 -0.6736  0.2176 -0.5116
  374TIP3   OH225316   4.607   3.022  14.607 -0.3621  0.1217  0.2050
  374TIP3    H125317   4.532   3.067  14.571 -0.9724  0.2463  1.5721
  374TIP3    H225318   4.578   2.991  14.693  1.2198  0.3972  0.8746
  375TIP3   OH225319   2.838   1.160  15.766 -0.4124  0.5236 -0.8154
  375TIP3    H125320   2.827   1.235  15.707  1.0940 -0.5971 -2.6467
  375TIP3    H225321   2.777   1.094  15.734 -0.5569  0.3732 -0.2480
  376TIP3   OH225322   0.461   0.490  15.026 -0.5391 -0.1349  0.2566
  376TIP3    H125323   0.474   0.395  15.025  0.2734 -0.0298  0.0427
  376TIP3    H225324   0.481   0.518  14.937 -0.2868  0.2890  0.4410
  377TIP3   OH225325   6.387   1.710  14.595  0.4716 -0.5299  0.3687
  377TIP3    H125326   6.421   1.620  14.595 -1.9395 -1.6045 -2.3019
  377TIP3    H225327   6.464   1.764  14.577  1.8794 -2.0803  1.3568
  378TIP3   OH225328   6.628   0.755  14.462 -0.2383 -0.6923 -0.5743
  378TIP3    H125329   6.686   0.810  14.410 -0.1635 -1.0698 -0.8898
  378TIP3    H225330   6.540   0.786  14.441 -0.1799 -0.4848 -0.5116
  379TIP3   OH225331   1.395   5.403  16.068  0.2890  0.6952 -0.3309
  379TIP3    H125332   1.486   5.376  16.054  0.3910  1.1806 -0.6020
  379TIP3    H225333   1.349   5.370  15.991  0.3414  0.9487 -0.4716
  380TIP3   OH225334   1.368   1.065  16.467 -0.4759  0.2835  0.0233
  380TIP3    H125335   1.432   0.998  16.442  0.0140  0.5697  0.4793
  380TIP3    H225336   1.327   1.030  16.546  0.6387  1.0293  0.9804
  381TIP3   OH225337   2.350   0.111  13.171 -0.1696  0.4765  0.4632
  381TIP3    H125338   2.290   0.120  13.097 -0.0605 -0.1556  0.2928
  381TIP3    H225339   2.367   0.017  13.177 -0.8022  0.4141  1.7880
  382TIP3   OH225340   2.804   5.230  13.876  0.2469  0.2700  0.2494
  382TIP3    H125341   2.752   5.233  13.796 -1.2034 -0.8428  1.1074
  382TIP3    H225342   2.745   5.194  13.943  1.8942 -0.3817  1.4391
  383TIP3   OH225343   5.061   1.735  15.690  0.0090 -0.1334 -0.2037
  383TIP3    H125344   4.970   1.736  15.722  0.7304  0.6954  2.0221
  383TIP3    H225345   5.079   1.826  15.667  0.3177 -0.2614 -0.4661
  384TIP3   OH225346   3.601   3.824  16.744  0.5183  0.4358 -0.0966
  384TIP3    H125347   3.631   3.908  16.779 -0.1211  0.2889  0.8355
  384TIP3    H225348   3.567   3.777  16.820  0.2654 -0.4049 -0.7192
  385TIP3   OH225349   0.710   4.121  15.848 -0.5109 -0.0423  0.2115
  385TIP3    H125350   0.741   4.211  15.840 -2.3083  0.8027  1.8512
  385TIP3    H225351   0.739   4.078  15.768 -0.1132  2.1410 -0.8936
  386TIP3   OH225352   1.724   4.695  14.907  0.1332  0.1093  0.3258
  386TIP3    H125353   1.710   4.616  14.854  0.2014  0.0058  0.4607
  386TIP3    H225354   1.715   4.664  14.998 -1.6286  0.5895  0.3581
  387TIP3   OH225355   0.287   0.970  14.982  0.1220 -0.0057 -0.5065
  387TIP3    H125356   0.295   0.878  15.007 -0.0870  0.2375  0.4860
  387TIP3    H225357   0.317   0.973  14.891  2.6752 -0.6121  0.2450
  388TIP3   OH225358   4.317   0.147  16.814 -0.2473  0.2081  0.1682
  388TIP3    H125359   4.305   0.226  16.867 -1.7955  1.0470 -1.3268
  388TIP3    H225360   4.253   0.085  16.849  1.3548 -0.6810  1.7200
  389TIP3   OH225361   6.542   0.749  14.919 -0.1657 -0.3471 -0.1682
  389TIP3    H125362   6.583   0.663  14.933  0.4473  0.2130  1.9655
  389TIP3    H225363   6.526   0.782  15.008 -2.0514  0.9898 -0.9434
  390TIP3   OH225364   3.995   5.114  14.859  0.3703  0.5220 -0.4478
  390TIP3    H125365   4.042   5.054  14.916  0.2716  1.2523  0.4222
  390TIP3    H225366   3.922   5.146  14.912 -1.6137 -1.1265 -1.9756
  391TIP3   OH225367   3.926   6.710  14.517  0.3307  0.0963 -0.7164
  391TIP3    H125368   3.997   6.757  14.474  3.3638 -2.4194  1.0866
  391TIP3    H225369   3.933   6.735  14.609 -1.0307 -0.3401 -0.4753
  392TIP3   OH225370   1.956   3.408  16.823 -0.6807  0.0934 -0.3144
  392TIP3    H125371   1.863   3.429  16.836 -1.3224 -1.1488 -2.5362
  392TIP3    H225372   1.991   3.484  16.777 -1.1927 -0.4464 -1.6203
  393TIP3   OH225373   3.108   0.128  14.397  0.2397 -0.0307 -0.6213
  393TIP3    H125374   3.170   0.137  14.470 -0.9296  2.1173  0.1931
  393TIP3    H225375   3.064   0.213  14.392 -2.2120 -1.2617 -1.5449
  394TIP3   OH225376   0.330   2.546  14.272  0.1405  0.2116  0.0767
  394TIP3    H125377   0.297   2.456  14.264  1.2875 -0.1767 -0.5694
  394TIP3    H225378   0.415   2.543  14.230 -0.3223  1.9011 -1.0614
  395TIP3   OH225379   0.196   3.662  15.229  0.2056 -0.2777 -1.1426
  395TIP3    H125380   0.101   3.654  15.221 -0.0806  1.5148  0.0470
  395TIP3    H225381   0.214   3.645  15.321  0.8974  0.4903 -1.1232
  396TIP3   OH225382   2.466   3.656  14.889  0.1209 -0.0345 -0.2327
  396TIP3    H125383   2.455   3.644  14.795 -1.6203 -1.8061  0.1331
  396TIP3    H225384   2.383   3.627  14.927 -0.1767  2.9547  1.7288
  397TIP3   OH225385   2.905   2.719  14.544 -0.0802 -0.3212  0.1317
  397TIP3    H125386   3.000   2.721  14.556 -0.1482  0.6058  0.5069
  397TIP3    H225387   2.870   2.708  14.632 -0.3599  0.4035  0.1093
  398TIP3   OH225388   1.453   1.188  15.135  0.1042 -0.5473  0.6978
  398TIP3    H125389   1.505   1.108  15.132 -2.5058 -2.3559 -0.3133
  398TIP3    H225390   1.388   1.177  15.065  0.3803  3.0596 -0.3275
  399TIP3   OH225391   5.437   5.609  15.156  0.4855  0.0700 -0.2820
  399TIP3    H125392   5.487   5.608  15.237  0.5683 -0.6816 -0.3345
  399TIP3    H225393   5.346   5.619  15.184  0.6730  1.9408 -0.2073
  400TIP3   OH225394   4.439   4.984  16.154  0.3808 -0.0848 -0.2466
  400TIP3    H125395   4.416   4.892  16.137  0.8143 -0.3557  0.5798
  400TIP3    H225396   4.373   5.034  16.107 -0.0254 -0.8272 -0.4847
  401TIP3   OH225397   4.227   6.356  15.319  0.0200 -0.0007 -0.1039
  401TIP3    H125398   4.289   6.377  15.250 -0.3617 -0.7771 -0.6953
  401TIP3    H225399   4.205   6.441  15.358  0.0603  0.4737 -1.0850
  402TIP3   OH225400   4.912   0.959  14.538 -0.2926  0.3829  0.5554
  402TIP3    H125401   4.838   1.017  14.521  0.4049  1.0068 -0.4980
  402TIP3    H225402   4.931   0.971  14.631 -0.9493  0.8874  0.6340
  403TIP3   OH225403   1.111   1.928  14.234 -0.3047 -0.2486  0.0557
  403TIP3    H125404   1.185   1.893  14.184  0.1198  0.3155  0.2801
  403TIP3    H225405   1.140   2.015  14.262 -1.1865  0.1209 -0.1443
  404TIP3   OH225406   1.003   3.850  15.111 -0.4400 -0.1092 -0.0843
  404TIP3    H125407   0.914   3.817  15.124 -0.3562 -0.5438 -0.5604
  404TIP3    H225408   1.001   3.890  15.024  0.3387 -1.9375 -0.9847
  405TIP3   OH225409   1.486   2.764  13.477  0.0862 -0.4395  0.1805
  405TIP3    H125410   1.518   2.812  13.401  0.4139 -0.5068  0.2751
  405TIP3    H225411   1.513   2.674  13.463 -0.7756 -0.6595 -0.1311
  406TIP3   OH225412   0.495   0.544  14.736  0.4167 -0.2816 -0.0403
  406TIP3    H125413   0.565   0.487  14.705  0.6189  0.2494 -0.5821
  406TIP3    H225414   0.441   0.561  14.659  2.3965  3.1962 -0.9137
  407TIP3   OH225415   6.230   4.380  16.036 -0.0093  0.7892  0.5673
  407TIP3    H125416   6.149   4.335  16.059  1.0914 -1.6199  0.0573
  407TIP3    H225417   6.295   4.344  16.097  1.2963  0.2859 -1.0529
  408TIP3   OH225418   3.578   1.756  16.570  0.0597 -0.3231 -0.1003
  408TIP3    H125419   3.501   1.773  16.625 -0.7678  0.2698 -1.3835
  408TIP3    H225420   3.643   1.720  16.630 -0.4590  1.2147  1.4507
  409TIP3   OH225421   0.944   3.643  16.732 -0.0229 -0.4228  0.0915
  409TIP3    H125422   0.923   3.613  16.644  1.7365 -2.1211  0.2017
  409TIP3    H225423   0.864   3.625  16.782 -0.1076 -2.0792 -0.5590
  410TIP3   OH225424   4.518   0.724  16.535 -0.1914 -0.7258  0.6559
  410TIP3    H125425   4.499   0.817  16.547  3.2622  0.4147 -1.2793
  410TIP3    H225426   4.561   0.698  16.616  1.3352  0.2333  0.2105
  411TIP3   OH225427   5.535   0.384  14.907 -0.4524  0.2957  0.0299
  411TIP3    H125428   5.615   0.353  14.864 -0.6049  0.6511 -0.5200
  411TIP3    H225429   5.526   0.474  14.877 -2.0419 -0.2884 -1.3627
  412TIP3   OH225430   3.321   2.959  16.474  0.2233  0.4779 -0.2281
  412TIP3    H125431   3.392   2.905  16.439 -0.2156 -0.1683 -0.1433
  412TIP3    H225432   3.360   3.005  16.549  0.6981  0.5529 -0.5210
  413TIP3   OH225433   2.367   3.158  15.351 -0.1200  0.3844  0.2430
  413TIP3    H125434   2.389   3.091  15.415 -1.6540  0.2177  0.6430
  413TIP3    H225435   2.451   3.185  15.315  0.5543 -1.5677  0.2392
  414TIP3   OH225436   2.628   0.789  13.592  0.3389  0.2959  0.2145
  414TIP3    H125437   2.646   0.855  13.525  0.0450 -0.6543 -0.8249
  414TIP3    H225438   2.537   0.763  13.577  0.0894  0.4453  1.3362
  415TIP3   OH225439   5.175   4.587  15.180  0.0807  0.6053  0.3455
  415TIP3    H125440   5.217   4.670  15.206  1.0912 -0.2681  1.6633
  415TIP3    H225441   5.092   4.587  15.227  0.4460  0.5112  1.0000
  416TIP3   OH225442   4.328   6.666  15.083  0.5848 -0.0953  0.5407
  416TIP3    H125443   4.295   6.730  15.020  0.5087 -0.1980  0.4759
  416TIP3    H225444   4.311   6.581  15.042 -1.4435 -0.2737  1.6188
  417TIP3   OH225445   3.078   6.663  16.111 -0.2372 -0.4487 -0.2927
  417TIP3    H125446   2.982   6.667  16.106 -0.1665  1.7191 -0.8914
  417TIP3    H225447   3.099   6.698  16.198  0.0197 -0.8512 -0.1891
  418TIP3   OH225448   2.118   2.996  17.026  0.6483  0.1200  0.2425
  418TIP3    H125449   2.159   2.942  17.093  1.4069  0.3972  0.0194
  418TIP3    H225450   2.089   3.075  17.072 -0.1298 -0.3099  0.4997
  419TIP3   OH225451   3.624   0.581  15.621 -0.6613  0.4320  0.1671
  419TIP3    H125452   3.580   0.509  15.575  0.8508 -0.3974 -0.0431
  419TIP3    H225453   3.607   0.564  15.714 -0.7290  0.0990  0.0946
  420TIP3   OH225454   5.385   6.270  15.786 -0.0472 -0.0968 -0.1378
  420TIP3    H125455   5.344   6.189  15.756 -0.0501 -1.0495  2.2114
  420TIP3    H225456   5.312   6.324  15.818  0.2011 -0.4850  1.1416
  421TIP3   OH225457   4.171   3.650  15.188  0.2534  0.5298  0.1999
  421TIP3    H125458   4.129   3.616  15.267 -2.3474  0.8882 -0.9275
  421TIP3    H225459   4.263   3.624  15.197 -0.3236 -1.0664  2.4205
  422TIP3   OH225460   5.663   4.826  14.974  0.3776 -0.3458 -0.0399
  422TIP3    H125461   5.646   4.800  15.065  0.6645 -1.2365 -0.2327
  422TIP3    H225462   5.636   4.751  14.922  0.5628  0.0162 -0.6716
  423TIP3   OH225463   2.845   6.302  16.910  0.0905 -0.0762 -0.1108
  423TIP3    H125464   2.848   6.231  16.974 -1.6532 -0.5931 -0.5539
  423TIP3    H225465   2.935   6.311  16.880  0.5733 -1.1823  0.9266
  424TIP3   OH225466   5.107   4.996  14.381  0.0000  0.2420 -0.0659
  424TIP3    H125467   5.012   4.992  14.389 -0.2014  0.4635 -1.8715
  424TIP3    H225468   5.126   4.952  14.298  1.4576  0.3955  0.1564
  425TIP3   OH225469   5.844   3.574  16.366 -0.0894  0.1149 -0.1689
  425TIP3    H125470   5.913   3.634  16.394  1.0819 -0.4746 -1.6495
  425TIP3    H225471   5.801   3.619  16.293 -0.3294 -0.1235 -0.1757
  426TIP3   OH225472   3.230   3.490  16.902 -0.5376  0.5947 -0.0835
  426TIP3    H125473   3.221   3.433  16.979 -1.8305 -1.0264 -1.3567
  426TIP3    H225474   3.214   3.432  16.827  1.0591  2.0287 -1.6276
  427TIP3   OH225475   3.718   3.920  15.924  0.1418 -0.4842  0.5049
  427TIP3    H125476   3.718   3.966  15.840 -1.5788 -2.4714 -0.6819
  427TIP3    H225477   3.655   3.968  15.978 -0.7979 -0.7543 -0.3241
  428TIP3   OH225478   0.249   6.260  15.204  0.2670 -0.0116  0.1602
  428TIP3    H125479   0.288   6.248  15.117 -0.0201  0.7263 -0.0792
  428TIP3    H225480   0.190   6.186  15.214 -0.3833  0.3769 -0.6633
  429TIP3   OH225481   5.285   1.461  13.866  0.4520 -0.5270  0.0203
  429TIP3    H125482   5.346   1.524  13.827  1.0196 -1.6223 -0.8928
  429TIP3    H225483   5.245   1.416  13.791  1.2730 -2.4042  0.6521
  430TIP3   OH225484   4.258   0.571  16.137  0.7628  0.2726 -0.7169
  430TIP3    H125485   4.333   0.619  16.171  1.9086 -1.5838 -0.5253
  430TIP3    H225486   4.270   0.573  16.042  1.2336 -0.2645 -0.6750
  431TIP3   OH225487   3.521   0.630  16.323 -0.5400  0.7581  0.1275
  431TIP3    H125488   3.600   0.649  16.272  0.0544 -0.2433  0.6317
  431TIP3    H225489   3.462   0.703  16.304 -0.4869  0.2825 -2.2369
  432TIP3   OH225490   4.681   6.682  16.017  0.4448  0.7836 -0.3791
  432TIP3    H125491   4.731   6.738  15.957  1.4307  1.7494  1.2802
  432TIP3    H225492   4.642   6.616  15.960 -0.3072  2.8025 -2.3324
  433TIP3   OH225493   1.625   5.558  15.841 -0.4545  0.2226  0.1834
  433TIP3    H125494   1.634   5.567  15.746  0.4741  1.9042  0.3782
  433TIP3    H225495   1.570   5.632  15.867  2.6445  2.3246  1.3331
  434TIP3   OH225496   1.630   1.189  14.410 -0.2808 -0.8407  0.2828
  434TIP3    H125497   1.692   1.172  14.481 -0.0247  1.3470  0.6790
  434TIP3    H225498   1.647   1.120  14.346  1.4155 -1.2803  1.1383
  435TIP3   OH225499   0.611   2.085  16.312  0.1100  0.0790 -0.5679
  435TIP3    H125500   0.657   2.078  16.396  0.4781 -0.2424 -0.7955
  435TIP3    H225501   0.673   2.130  16.254 -0.3550  0.8065 -0.5166
  436TIP3   OH225502   2.592   3.530  15.660  0.8661  0.1862  0.2970
  436TIP3    H125503   2.517   3.576  15.697  1.9007 -0.2938  3.2484
  436TIP3    H225504   2.637   3.596  15.608  0.6696  1.6831  1.9533
  437TIP3   OH225505   3.415   0.604  14.219  0.1262  0.1416  0.4644
  437TIP3    H125506   3.502   0.565  14.205  0.1715  0.1553  0.7007
  437TIP3    H225507   3.374   0.603  14.132  1.1243  1.9758 -0.0991
  438TIP3   OH225508   4.293   2.828  13.999  0.2773  0.0089 -0.7193
  438TIP3    H125509   4.273   2.868  13.914 -0.5422 -0.6474 -0.8452
  438TIP3    H225510   4.387   2.809  13.996  0.3491  0.4401 -1.2802
  439TIP3   OH225511   6.364   2.286  14.102 -0.0636 -0.0242 -0.1293
  439TIP3    H125512   6.313   2.319  14.027 -1.0268  1.3888  1.1017
  439TIP3    H225513   6.372   2.361  14.161 -0.0695 -1.3192  1.5872
  440TIP3   OH225514   0.696   3.508  15.178 -0.0144  0.2331  0.3991
  440TIP3    H125515   0.652   3.492  15.261  0.2527 -1.7282  0.2092
  440TIP3    H225516   0.641   3.464  15.113  0.1808  1.1012 -0.3762
  441TIP3   OH225517   3.824   3.213  16.161  0.2549 -0.4394 -0.0046
  441TIP3    H125518   3.753   3.266  16.197  1.8264  1.2324  0.8148
  441TIP3    H225519   3.879   3.192  16.237  1.1077 -0.9503 -0.7430
  442TIP3   OH225520   3.099   2.349  15.488 -0.0134 -0.2668  0.0460
  442TIP3    H125521   3.035   2.298  15.537 -0.3710 -0.7758 -0.9237
  442TIP3    H225522   3.047   2.409  15.435  0.3673  0.3377  0.3537
  443TIP3   OH225523   2.191   5.795  16.727 -0.3097 -0.0351 -0.5313
  443TIP3    H125524   2.107   5.800  16.681 -0.3906 -2.1963 -0.7411
  443TIP3    H225525   2.170   5.756  16.812  0.4635 -0.7869 -0.6599
  444TIP3   OH225526   0.514   1.836  15.960  0.6329  0.3921  0.2567
  444TIP3    H125527   0.498   1.747  15.927 -1.3018  0.3141  1.2848
  444TIP3    H225528   0.547   1.884  15.884  0.2406 -0.8038 -0.7032
  445TIP3   OH225529   1.425   4.889  14.715  0.2374  0.1579  0.0171
  445TIP3    H125530   1.476   4.888  14.796  0.2187  2.8495  0.1278
  445TIP3    H225531   1.362   4.960  14.727 -1.2369 -0.8168 -1.5083
  446TIP3   OH225532   0.646   2.467  15.601 -0.1679  0.1783  0.5153
  446TIP3    H125533   0.735   2.489  15.626 -0.5552  1.8222  0.5451
  446TIP3    H225534   0.637   2.375  15.624  1.9193 -0.3953 -0.7083
  447TIP3   OH225535   6.105   0.306  16.133  0.4921 -0.0706  0.1743
  447TIP3    H125536   6.143   0.342  16.053  0.6857  0.5250  0.5297
  447TIP3    H225537   6.083   0.382  16.186  1.3653 -0.4809  1.1521
  448TIP3   OH225538   3.072   1.486  16.253 -0.1105  0.3563  0.4282
  448TIP3    H125539   3.132   1.492  16.178  0.9883  0.7930  1.3189
  448TIP3    H225540   2.989   1.521  16.220  0.6295  1.4883 -0.3187
  449TIP3   OH225541   3.227   5.624  15.972 -0.0447 -0.5119 -0.2798
  449TIP3    H125542   3.163   5.688  15.942 -0.9945 -0.0699  2.4325
  449TIP3    H225543   3.295   5.625  15.905 -0.7831  2.1748 -1.1076
  450TIP3   OH225544   2.327   2.313  16.704 -0.0615 -0.5957 -0.0425
  450TIP3    H125545   2.246   2.332  16.657 -0.3410  0.1814  0.7286
  450TIP3    H225546   2.388   2.380  16.675 -0.8113  1.1090  2.0942
  451TIP3   OH225547   4.709   6.315  15.938  0.3858  0.2196  0.1887
  451TIP3    H125548   4.790   6.266  15.925 -0.9299 -1.7504 -1.2209
  451TIP3    H225549   4.710   6.341  16.030  2.4633  0.0265  0.2609
  452TIP3   OH225550   2.471   3.766  16.575 -0.5727 -0.0638 -0.0851
  452TIP3    H125551   2.422   3.695  16.616  0.1478 -0.9716 -0.7486
  452TIP3    H225552   2.561   3.734  16.570 -0.1400  1.0874  0.0231
  453TIP3   OH225553   3.779   0.366  15.388  0.2780  0.3776 -0.3425
  453TIP3    H125554   3.756   0.331  15.302 -1.7721 -1.6618  0.9336
  453TIP3    H225555   3.695   0.388  15.428  1.2664  2.9398  0.5788
  454TIP3   OH225556   0.078   2.622  14.482 -0.3816  0.4136  0.3839
  454TIP3    H125557   0.004   2.604  14.425 -0.2736  0.5387  0.2053
  454TIP3    H225558   0.123   2.537  14.490 -2.1631 -0.4342  2.8474
  455TIP3   OH225559   5.045   3.259  15.331  0.1021 -0.4354 -0.2826
  455TIP3    H125560   5.060   3.352  15.317 -2.1839  0.1000  0.4342
  455TIP3    H225561   5.032   3.251  15.426  0.1572 -1.4596 -0.3497
  456TIP3   OH225562   6.045   3.403  14.290  0.1622  0.6759 -0.8491
  456TIP3    H125563   6.084   3.382  14.204 -1.0801  1.4966 -1.6410
  456TIP3    H225564   6.065   3.496  14.303  0.9697  0.3861  0.1167
  457TIP3   OH225565   3.391   6.077  16.442 -0.0144 -0.1594 -0.2835
  457TIP3    H125566   3.396   6.171  16.453  1.3379 -0.4395  2.2398
  457TIP3    H225567   3.299   6.060  16.422 -1.2646  1.4628  3.2202
  458TIP3   OH225568   5.540   0.842  16.601  0.1239  0.0208 -0.1305
  458TIP3    H125569   5.633   0.856  16.583  0.1187  1.7086  0.9065
  458TIP3    H225570   5.495   0.886  16.530  0.0620 -2.1536 -1.5178
  459TIP3   OH225571   4.750   1.991  15.061 -0.6297  0.3411  0.7493
  459TIP3    H125572   4.717   2.079  15.076  0.1896  0.4893  1.7806
  459TIP3    H225573   4.773   1.959  15.148 -0.4105 -0.6890  0.3287
  460TIP3   OH225574   1.517   1.785  16.435  0.6184 -0.2968 -0.2627
  460TIP3    H125575   1.448   1.724  16.462 -0.3093  0.5825 -0.5643
  460TIP3    H225576   1.479   1.872  16.452  1.4233  0.2071 -1.0029
  461TIP3   OH225577   1.879   6.131  14.673  0.1751 -0.6805  0.1733
  461TIP3    H125578   1.950   6.173  14.623 -0.2044 -0.7049 -0.3952
  461TIP3    H225579   1.862   6.192  14.745  1.6097 -1.2501  1.0577
  462TIP3   OH225580   2.483   0.585  14.933  0.2179  1.0788 -0.2024
  462TIP3    H125581   2.399   0.556  14.900  0.4648  0.3629 -0.2218
  462TIP3    H225582   2.467   0.673  14.966 -1.3911 -0.2448  2.9883
  463TIP3   OH225583   4.608   5.769  15.482 -0.4338 -0.4227 -0.1300
  463TIP3    H125584   4.678   5.826  15.451  0.2967 -0.7264  0.8907
  463TIP3    H225585   4.531   5.826  15.488  0.1178  0.3045  0.2341
  464TIP3   OH225586   0.467   1.508  15.604  0.2298  0.0522  0.4098
  464TIP3    H125587   0.557   1.537  15.621  1.0559 -2.2897  0.4733
  464TIP3    H225588   0.425   1.583  15.562  1.9653  1.4884  1.0857
  465TIP3   OH225589   1.542   1.972  13.697 -0.1532 -0.1153  0.1858
  465TIP3    H125590   1.461   1.964  13.646  0.0900 -1.4259 -0.0398
  465TIP3    H225591   1.601   2.022  13.641 -0.4311 -0.1280 -0.1255
  466TIP3   OH225592   2.498   1.512  14.784 -0.1849 -0.1213  0.5492
  466TIP3    H125593   2.569   1.573  14.801 -1.1961  0.8228  1.5731
  466TIP3    H225594   2.452   1.549  14.709 -0.9000  0.5309  1.2745
  467TIP3   OH225595   5.999   1.099  15.743 -0.0254  0.0459 -0.2137
  467TIP3    H125596   6.015   1.010  15.712 -0.3623  0.3312 -1.2461
  467TIP3    H225597   5.991   1.151  15.663  0.3728  1.0451  0.3754
  468TIP3   OH225598   1.089   6.738  15.725 -0.2301 -0.5243 -0.5502
  468TIP3    H125599   1.028   6.812  15.731  0.5572  0.1040  0.0074
  468TIP3    H225600   1.168   6.776  15.685  0.1275 -1.1018 -0.3996
  469TIP3   OH225601   6.231   5.345  17.099 -0.3860 -0.2915 -0.0107
  469TIP3    H125602   6.323   5.364  17.085 -0.2228 -1.0926 -0.0574
  469TIP3    H225603   6.193   5.427  17.129  0.2518  0.1587 -0.4319
  470TIP3   OH225604   2.954   2.526  15.275  0.2287  0.0845  0.3320
  470TIP3    H125605   2.863   2.546  15.255  0.1303 -0.8894 -0.2380
  470TIP3    H225606   2.977   2.588  15.344 -0.9185  0.2119  0.6214
  471TIP3   OH225607   5.322   3.650  13.915  0.2430 -0.5185 -0.0746
  471TIP3    H125608   5.342   3.585  13.982  0.9256 -0.4312 -0.1912
  471TIP3    H225609   5.330   3.734  13.959  1.1519 -0.4405 -0.3715
  472TIP3   OH225610   1.215   4.714  14.386  0.0329  0.7479  0.3702
  472TIP3    H125611   1.146   4.676  14.439  1.6103 -0.7168  1.5042
  472TIP3    H225612   1.230   4.800  14.424 -1.8610  1.5530 -0.5975
  473TIP3   OH225613   4.215   5.457  15.637 -0.3607  0.3120  0.5942
  473TIP3    H125614   4.123   5.482  15.630 -0.2915  0.8667  1.4643
  473TIP3    H225615   4.262   5.540  15.643  0.5025  0.1859 -2.5494
  474TIP3   OH225616   4.081   1.895  14.010 -0.1734 -0.7945  0.2524
  474TIP3    H125617   3.997   1.861  14.042 -1.4768  1.5992 -0.3873
  474TIP3    H225618   4.057   1.952  13.938  2.1126 -0.6225 -0.4295
  475TIP3   OH225619   3.880   0.101  13.802 -0.0274 -0.2971  0.0038
  475TIP3    H125620   3.910   0.086  13.712 -1.5218 -1.3544 -0.3459
  475TIP3    H225621   3.785   0.094  13.798 -0.0471 -2.5093  2.0248
  476TIP3   OH225622   1.325   6.258  14.789 -0.0090 -0.1344  0.0446
  476TIP3    H125623   1.341   6.337  14.840 -2.0649  0.1615  0.2941
  476TIP3    H225624   1.327   6.187  14.854 -0.2962 -0.0265  0.1750
  477TIP3   OH225625   4.039   1.089  15.668  0.2126 -0.4702  0.1558
  477TIP3    H125626   3.989   1.009  15.686 -1.3870 -0.1674 -2.3283
  477TIP3    H225627   4.044   1.134  15.752  1.8778 -3.4635  1.8405
  478TIP3   OH225628   3.159   4.791  14.858 -0.0968 -0.3640  0.2351
  478TIP3    H125629   3.157   4.859  14.791 -1.2356 -0.4874  0.1117
  478TIP3    H225630   3.182   4.836  14.939  1.9780 -0.3261 -0.3368
  479TIP3   OH225631   6.476   1.487  16.833  0.4058  0.5255  0.6684
  479TIP3    H125632   6.512   1.478  16.745  0.7914  2.8574  0.5124
  479TIP3    H225633   6.383   1.471  16.823  0.4487  0.7625 -0.1684
  480TIP3   OH225634   0.604   0.881  15.163  0.6438  0.4395 -0.1416
  480TIP3    H125635   0.524   0.859  15.210  1.2254  0.1354  0.7427
  480TIP3    H225636   0.597   0.974  15.144  0.3901  0.5664  0.5496
  481TIP3   OH225637   5.802   3.686  15.213 -0.0842 -0.3686  0.0132
  481TIP3    H125638   5.877   3.734  15.178 -0.3431  0.3976  0.4776
  481TIP3    H225639   5.822   3.595  15.195  0.0771 -0.0482 -1.5432
  482TIP3   OH225640   4.806   0.212  17.083  0.0250 -0.0897  0.3259
  482TIP3    H125641   4.725   0.260  17.103  0.4357  0.5054  0.5590
  482TIP3    H225642   4.876   0.268  17.116  0.7576  1.0613 -2.8379
  483TIP3   OH225643   2.242   6.681  14.293  0.2088  0.4483  0.2085
  483TIP3    H125644   2.208   6.671  14.203 -1.4049 -1.6651  0.9665
  483TIP3    H225645   2.164   6.676  14.348  1.2904  0.5949  1.8112
  484TIP3   OH225646   4.202   3.928  15.644  0.1239 -0.1421 -0.0607
  484TIP3    H125647   4.186   4.020  15.624 -0.3883 -0.2788 -0.2931
  484TIP3    H225648   4.127   3.902  15.699  1.9061  0.4689  2.8794
  485TIP3   OH225649   2.928   5.683  13.892  0.4022 -0.1245  0.1822
  485TIP3    H125650   2.921   5.777  13.876 -0.3268 -0.1868  0.0965
  485TIP3    H225651   2.847   5.647  13.856 -0.4072 -0.5011  2.2449
  486TIP3   OH225652   3.863   4.022  16.430 -0.0527  0.3151  0.0910
  486TIP3    H125653   3.783   3.994  16.386 -1.1146  1.3340  1.2771
  486TIP3    H225654   3.934   3.993  16.373 -1.1516 -2.4729  0.0041
  487TIP3   OH225655   5.176   4.026  16.880  0.2113  0.2873 -0.3834
  487TIP3    H125656   5.237   3.977  16.825  0.1358  0.4124 -0.5797
  487TIP3    H225657   5.164   3.971  16.958  0.7790  0.3836 -0.2226
  488TIP3   OH225658   5.510   4.232  15.822  0.2223  0.3317 -0.5066
  488TIP3    H125659   5.588   4.233  15.767  2.3623  1.0301  2.3158
  488TIP3    H225660   5.509   4.144  15.860 -0.7421  0.1272 -0.9797
  489TIP3   OH225661   1.536   3.593  15.359 -1.0515  0.3805 -0.0782
  489TIP3    H125662   1.553   3.542  15.438 -0.2683  0.9715  0.1349
  489TIP3    H225663   1.549   3.530  15.287 -0.0500  0.2765  0.1804
  490TIP3   OH225664   1.974   6.107  17.031  0.0840  0.1223 -0.3497
  490TIP3    H125665   1.980   6.198  17.061 -0.4659 -0.1514  0.6332
  490TIP3    H225666   1.880   6.093  17.020  0.1952 -0.2118 -0.8782
  491TIP3   OH225667   3.027   5.571  15.305 -0.4456 -0.0944 -0.2334
  491TIP3    H125668   2.936   5.584  15.333 -0.1502  0.9599  0.3283
  491TIP3    H225669   3.077   5.633  15.358  0.6019 -0.6212 -0.5693
  492TIP3   OH225670   5.450   1.930  14.908  0.2924  0.3291 -0.0023
  492TIP3    H125671   5.486   1.847  14.878  1.0325  0.7019 -0.1753
  492TIP3    H225672   5.453   1.925  15.004 -0.5587 -0.2155  0.0046
  493TIP3   OH225673   2.124   5.892  14.378  0.6020  0.4428 -0.3475
  493TIP3    H125674   2.173   5.945  14.441  0.3364  2.0549 -1.4170
  493TIP3    H225675   2.033   5.919  14.391  0.6890  2.1369 -2.4947
  494TIP3   OH225676   1.253   2.104  15.614 -0.4425 -0.3112 -0.0340
  494TIP3    H125677   1.161   2.077  15.615 -0.5927  0.0207 -1.6348
  494TIP3    H225678   1.271   2.131  15.704 -2.9739  3.0599 -0.3408
  495TIP3   OH225679   0.684   3.481  17.210  0.1003  0.4759  0.2412
  495TIP3    H125680   0.596   3.461  17.242  0.1523  0.3006  0.2800
  495TIP3    H225681   0.742   3.453  17.281  0.1205  1.9760  0.8600
  496TIP3   OH225682   2.927   2.209  15.657 -0.4890  1.0402  0.0428
  496TIP3    H125683   2.848   2.256  15.683 -1.4443 -0.0979 -0.6748
  496TIP3    H225684   2.944   2.149  15.730  0.0073  1.6466  0.4221
  497TIP3   OH225685   5.253   5.235  16.418 -0.3073 -0.3176 -0.6978
  497TIP3    H125686   5.334   5.275  16.386 -1.4081  1.7210 -1.1291
  497TIP3    H225687   5.186   5.302  16.404 -1.8859 -1.5156  0.6595
  498TIP3   OH225688   4.213   1.410  13.499  0.3255  0.6293 -0.1493
  498TIP3    H125689   4.159   1.481  13.464 -0.1887  0.4472  0.2510
  498TIP3    H225690   4.245   1.363  13.422  0.3503  1.0656 -0.4047
  499TIP3   OH225691   0.993   2.508  16.442 -0.1431  0.2155  0.5317
  499TIP3    H125692   1.071   2.453  16.439  0.0680  0.5076  0.6136
  499TIP3    H225693   1.022   2.588  16.486 -0.3033  0.6225 -0.0928
  500TIP3   OH225694   5.810   0.425  14.816 -0.0974 -0.7745  0.3802
  500TIP3    H125695   5.834   0.515  14.838  2.1607 -1.6574  1.9136
  500TIP3    H225696   5.824   0.419  14.721 -0.6471  0.5765  0.1971
  501TIP3   OH225697   4.031   1.565  14.070 -0.3560  0.5560 -0.3898
  501TIP3    H125698   4.017   1.628  14.141 -1.7954  1.3612 -1.3396
  501TIP3    H225699   4.118   1.584  14.037 -0.4313  1.4551 -0.0909
  502TIP3   OH225700   1.369   5.695  16.395  0.3077  0.0229 -0.2170
  502TIP3    H125701   1.366   5.602  16.375  0.9995 -0.0154 -0.1658
  502TIP3    H225702   1.298   5.708  16.458 -0.6180 -0.2170 -1.1785
  503TIP3   OH225703   4.260   4.725  16.044  0.8002  0.1836 -0.8299
  503TIP3    H125704   4.193   4.782  16.082 -0.5725 -1.2870 -0.9365
  503TIP3    H225705   4.244   4.729  15.950  0.5759 -0.5117 -0.8228
  504TIP3   OH225706   5.106   6.308  14.813  0.7232 -0.1599  0.7308
  504TIP3    H125707   5.051   6.351  14.747  0.6522  0.7428  1.3558
  504TIP3    H225708   5.158   6.379  14.850  2.7072 -1.0728 -0.1821
  505TIP3   OH225709   4.798   1.762  16.492  0.2145  0.1328 -0.1867
  505TIP3    H125710   4.746   1.838  16.518 -0.8553 -0.3074 -0.9517
  505TIP3    H225711   4.887   1.784  16.517 -0.2987  1.0182  0.9332
  506TIP3   OH225712   6.189   0.943  13.481  0.1423 -0.3393  0.1824
  506TIP3    H125713   6.115   0.914  13.427  1.0599 -0.0826 -1.2613
  506TIP3    H225714   6.258   0.964  13.419  0.7707  1.4012  1.3814
  507TIP3   OH225715   5.391   5.835  17.211 -0.3591 -0.1747  0.3023
  507TIP3    H125716   5.329   5.822  17.140 -2.4248 -1.5626  2.2278
  507TIP3    H225717   5.409   5.747  17.244  1.8790  0.2911  0.4763
  508TIP3   OH225718   0.830   0.460  15.491 -0.0341  0.0381 -0.0028
  508TIP3    H125719   0.775   0.443  15.567 -0.6339  0.1729 -0.4020
  508TIP3    H225720   0.821   0.554  15.474 -1.4027 -0.3055 -1.3641
  509TIP3   OH225721   0.059   1.361  14.994  0.6398 -0.5674 -0.3786
  509TIP3    H125722   0.085   1.323  14.910  0.6222 -0.4077 -0.4574
  509TIP3    H225723   0.122   1.432  15.007 -0.6864  0.8497 -1.3266
  510TIP3   OH225724   2.133   2.932  16.759  0.7544 -0.2030 -0.3896
  510TIP3    H125725   2.065   2.980  16.713  0.6630 -0.3593 -0.4147
  510TIP3    H225726   2.127   2.963  16.850  0.5351 -0.3520 -0.3546
  511TIP3   OH225727   0.303   6.209  14.208  0.6346  0.4984  0.2412
  511TIP3    H125728   0.243   6.252  14.147  1.8546  2.4447  0.3143
  511TIP3    H225729   0.279   6.243  14.294  0.6629 -0.1331  0.5043
  512TIP3   OH225730   4.370   2.527  15.340  0.2790 -0.1676 -0.0473
  512TIP3    H125731   4.348   2.442  15.300  0.6603 -0.0847 -0.4393
  512TIP3    H225732   4.343   2.518  15.431 -0.0432 -0.5756 -0.1777
  513TIP3   OH225733   5.678   1.401  14.485  0.3659  0.2528 -0.0048
  513TIP3    H125734   5.748   1.360  14.435  1.4604  2.5258 -0.4392
  513TIP3    H225735   5.620   1.439  14.418  1.0953  2.1165  0.3765
  514TIP3   OH225736   4.539   0.001  16.703 -0.2897  0.4924  0.0128
  514TIP3    H125737   4.512  -0.072  16.759 -0.5522 -0.9063 -1.8500
  514TIP3    H225738   4.479   0.072  16.726  1.3521  1.0089  3.4692
  515TIP3   OH225739   3.911   0.966  15.871  0.1236 -1.2158 -0.3625
  515TIP3    H125740   3.963   0.909  15.927  0.5949  0.0117  0.5128
  515TIP3    H225741   3.913   1.051  15.915 -0.7695 -0.5813 -1.4724
  516TIP3   OH225742   0.632   2.754  15.224 -0.1105 -0.1557  0.5979
  516TIP3    H125743   0.606   2.844  15.204  0.6616 -0.1390 -0.3753
  516TIP3    H225744   0.675   2.759  15.310  1.6540  0.7495 -0.2916
  517TIP3   OH225745   3.347   2.159  17.232 -0.0371 -0.3824 -0.8114
  517TIP3    H125746   3.334   2.121  17.146  0.9247  0.4289 -1.3330
  517TIP3    H225747   3.266   2.208  17.249 -0.2488 -0.5819 -1.2293
  518TIP3   OH225748   3.977   2.518  16.161 -0.7365  0.1047  0.2413
  518TIP3    H125749   3.992   2.487  16.250 -1.1826 -1.2747 -0.1256
  518TIP3    H225750   4.064   2.526  16.123 -0.5800 -2.5556 -0.1876
  519TIP3   OH225751   5.702   4.583  15.623  0.2772  0.3902 -0.0750
  519TIP3    H125752   5.653   4.505  15.599  0.8941  0.1724 -0.6673
  519TIP3    H225753   5.641   4.635  15.676 -0.2380 -0.3414  0.0580
  520TIP3   OH225754   5.789   2.230  14.277 -0.7843 -0.3397  0.5656
  520TIP3    H125755   5.810   2.268  14.192 -0.2235  0.0026  0.8579
  520TIP3    H225756   5.724   2.289  14.315 -1.4059 -0.7559  0.1741
  521TIP3   OH225757   1.609   0.480  15.500  0.2874  0.4338 -0.3608
  521TIP3    H125758   1.690   0.428  15.500 -0.3334 -0.5595 -0.8060
  521TIP3    H225759   1.634   0.563  15.542  1.1170 -0.4989  1.0928
  522TIP3   OH225760   3.840   0.762  14.176  0.0442  0.5141  0.1120
  522TIP3    H125761   3.875   0.720  14.254 -1.6073 -1.4228 -0.0980
  522TIP3    H225762   3.750   0.785  14.200 -0.7941 -0.9292 -1.4138
  523TIP3   OH225763   4.140   5.868  17.024 -0.0087  0.0309 -0.3533
  523TIP3    H125764   4.219   5.814  17.009  0.9153  0.9986  0.8526
  523TIP3    H225765   4.095   5.866  16.940 -0.2228 -2.8943 -0.3001
  524TIP3   OH225766   2.849   1.586  15.410  0.0763 -0.2685 -0.5647
  524TIP3    H125767   2.853   1.567  15.316 -0.7827  2.2485 -1.1930
  524TIP3    H225768   2.916   1.653  15.423 -2.1175  2.0196 -0.1985
  525TIP3   OH225769   0.977   4.656  16.948  0.5918 -0.0608  0.1131
  525TIP3    H125770   1.053   4.619  16.993 -1.2314 -1.8262  1.9590
  525TIP3    H225771   0.934   4.581  16.906 -1.4013  0.4281  1.1371
  526TIP3   OH225772   0.136   2.825  15.767 -0.0000 -0.4398 -0.0442
  526TIP3    H125773   0.182   2.879  15.832  0.5133 -0.1939 -0.5976
  526TIP3    H225774   0.088   2.760  15.819  1.2736 -0.9398  0.5606
  527TIP3   OH225775   5.149   5.480  14.569 -0.3757 -0.6053 -0.2536
  527TIP3    H125776   5.099   5.525  14.501 -0.8393  0.1776  0.5842
  527TIP3    H225777   5.096   5.488  14.648  0.0014 -1.7833  0.1404
  528TIP3   OH225778   6.171   5.031  15.443  0.2358  0.3065 -0.0536
  528TIP3    H125779   6.226   4.959  15.411  0.0101 -0.0019  0.2414
  528TIP3    H225780   6.218   5.065  15.519 -0.8960 -1.2380  1.4217
  529TIP3   OH225781   5.145   0.863  17.000 -0.0105  0.0754  0.1983
  529TIP3    H125782   5.217   0.884  16.940  0.0071 -2.3056 -0.7433
  529TIP3    H225783   5.082   0.934  16.987  0.7119  0.4650 -1.4681
  530TIP3   OH225784   5.899   0.340  15.775 -0.5949  0.0960  0.2115
  530TIP3    H125785   5.921   0.433  15.767 -1.5342  0.2913 -0.2810
  530TIP3    H225786   5.941   0.298  15.700 -1.0503  0.3095 -0.1719
  531TIP3   OH225787   1.968   3.879  16.859  0.0869  0.4491  0.2389
  531TIP3    H125788   1.957   3.971  16.838 -0.7710  0.1158 -0.8437
  531TIP3    H225789   1.889   3.856  16.908 -0.1758  0.0480 -0.3677
  532TIP3   OH225790   5.301   5.248  16.715  0.9151  0.5483 -0.1326
  532TIP3    H125791   5.261   5.270  16.631 -0.4512  0.1999  0.4087
  532TIP3    H225792   5.361   5.321  16.732  0.1804  1.3129 -0.7494
  533TIP3   OH225793   0.110   4.128  14.971  0.4025 -0.0976  0.5084
  533TIP3    H125794   0.125   4.190  15.042  0.5848 -0.5067  0.8295
  533TIP3    H225795   0.113   4.042  15.013 -1.8070 -0.2760  0.4458
  534TIP3   OH225796   1.335   1.797  16.029 -0.0470 -0.2066  0.0651
  534TIP3    H125797   1.245   1.832  16.032 -0.0886 -0.1648 -1.2411
  534TIP3    H225798   1.339   1.748  15.947  1.3644  0.4628 -0.3021
  535TIP3   OH225799   3.550   1.568  16.018  0.1303 -0.1178 -0.2352
  535TIP3    H125800   3.570   1.561  16.111  1.3132 -1.4521 -0.5640
  535TIP3    H225801   3.567   1.659  15.996  1.2219 -0.1186  0.5577
  536TIP3   OH225802   3.922   5.986  16.244  0.5568  0.1705 -0.6323
  536TIP3    H125803   3.935   5.979  16.150 -0.3830  2.6950 -1.0027
  536TIP3    H225804   3.870   6.065  16.256  0.2245 -0.3535  1.9883
  537TIP3   OH225805   6.483   5.490  15.885 -0.3980  0.0074  0.3503
  537TIP3    H125806   6.534   5.559  15.843 -0.3045  0.3988  1.0817
  537TIP3    H225807   6.429   5.454  15.816  1.3383 -0.8688 -0.6089
  538TIP3   OH225808   3.963   1.707  15.245  0.2009 -0.4899 -0.4861
  538TIP3    H125809   3.894   1.651  15.211 -0.4466 -0.0510  0.0913
  538TIP3    H225810   3.988   1.667  15.328 -1.2633  0.8166  0.6487
  539TIP3   OH225811   5.917   1.510  14.126  0.4104 -0.6349  0.1455
  539TIP3    H125812   5.923   1.459  14.207 -0.5006 -1.9622 -0.5912
  539TIP3    H225813   5.823   1.517  14.108  0.5292  0.8340 -0.0982
  540TIP3   OH225814   6.652   4.113  14.471  0.8124 -0.4138 -0.0013
  540TIP3    H125815   6.619   4.034  14.513 -0.1966 -0.7716 -1.4002
  540TIP3    H225816   6.593   4.183  14.499 -0.2936 -0.7824 -1.3334
  541TIP3   OH225817   6.558   5.969  16.906 -0.1987  0.2456 -0.2811
  541TIP3    H125818   6.599   6.054  16.922 -2.0643  0.7417  2.7864
  541TIP3    H225819   6.470   5.989  16.877 -0.7823 -0.5729  0.8284
  542TIP3   OH225820   5.003   1.906  14.915 -0.0277 -0.2474 -0.2225
  542TIP3    H125821   5.074   1.969  14.923 -0.6640  0.3091  1.8299
  542TIP3    H225822   4.925   1.954  14.946 -0.5423 -1.9642  1.3180
  543TIP3   OH225823   4.510   4.827  15.272 -0.6540  0.0456 -0.3668
  543TIP3    H125824   4.417   4.813  15.258 -0.7924  0.9966 -0.4591
  543TIP3    H225825   4.530   4.780  15.354 -0.9784 -1.0310 -0.8956
  544TIP3   OH225826   3.651   6.722  14.669 -0.0566 -0.6267  0.4411
  544TIP3    H125827   3.719   6.750  14.729 -0.3209  0.5526  0.2166
  544TIP3    H225828   3.660   6.627  14.665  1.3451 -0.5249  0.6816
  545TIP3   OH225829   4.992   2.307  14.167 -0.1648 -0.4132 -0.4712
  545TIP3    H125830   5.059   2.306  14.099  0.7279  0.6566  0.3488
  545TIP3    H225831   4.983   2.216  14.194  2.2380 -0.4019  0.5887
  546TIP3   OH225832   2.419   0.818  15.073 -0.2066 -0.2281 -0.4119
  546TIP3    H125833   2.500   0.837  15.121 -0.1105 -0.2067 -0.5789
  546TIP3    H225834   2.365   0.896  15.087 -0.2556 -0.3019 -0.1844
  547TIP3   OH225835   0.139   4.533  14.495  0.1271  0.3049 -0.5492
  547TIP3    H125836   0.048   4.561  14.495  0.2141  0.6272  0.5208
  547TIP3    H225837   0.136   4.440  14.472 -0.5320  0.1488  0.1383
  548TIP3   OH225838   6.692   1.446  16.534  0.1731 -0.3433 -0.5143
  548TIP3    H125839   6.640   1.505  16.479  0.5751  0.3296 -0.1891
  548TIP3    H225840   6.742   1.392  16.473  1.1747  0.9007 -0.8259
  549TIP3   OH225841   6.050   4.923  14.514  0.9038  0.4443  0.1655
  549TIP3    H125842   6.135   4.894  14.480  0.2498 -1.1823 -0.2011
  549TIP3    H225843   6.002   4.949  14.436  0.4613 -0.3509  0.1653
  550TIP3   OH225844   1.676   0.214  15.434 -0.0402 -0.2769  0.1235
  550TIP3    H125845   1.589   0.175  15.424  0.1371 -0.9874  1.2634
  550TIP3    H225846   1.727   0.149  15.482  1.5028 -0.3853 -1.5179
  551TIP3   OH225847   3.886   3.982  14.532  0.1356  0.2328  0.1158
  551TIP3    H125848   3.904   3.911  14.471 -0.9794  0.2030 -0.1952
  551TIP3    H225849   3.868   4.058  14.477  2.6460  1.1730  0.4286
  552TIP3   OH225850   4.259   6.630  14.623 -0.0712  0.0335 -0.1098
  552TIP3    H125851   4.286   6.543  14.593 -1.8577 -1.0523  1.2571
  552TIP3    H225852   4.248   6.680  14.542 -1.3399 -1.7385 -1.1065
  553TIP3   OH225853   6.399   5.565  14.010 -0.3137 -0.1171 -0.2531
  553TIP3    H125854   6.409   5.650  13.967 -1.5596 -0.5045 -1.3524
  553TIP3    H225855   6.461   5.568  14.084 -1.0740  2.1269  0.3559
  554TIP3   OH225856   3.514   2.681  16.256 -0.2298  0.6145 -0.1068
  554TIP3    H125857   3.533   2.725  16.173 -2.1879  1.0535 -0.3656
  554TIP3    H225858   3.524   2.750  16.321 -0.7457  0.8014 -0.2220
  555TIP3   OH225859   2.297   0.936  14.819  0.0208 -0.4704 -0.6409
  555TIP3    H125860   2.308   1.006  14.755  1.9555 -1.4506 -1.4718
  555TIP3    H225861   2.239   0.872  14.775 -0.3613 -0.1804 -0.5619
  556TIP3   OH225862   3.600   2.852  16.073 -0.0159 -0.0456 -0.4297
  556TIP3    H125863   3.527   2.911  16.090  0.1224  0.2467 -0.8319
  556TIP3    H225864   3.619   2.864  15.980  0.9850  0.3967 -0.1868
  557TIP3   OH225865   1.117   2.138  16.415 -0.4859  0.1515 -0.2299
  557TIP3    H125866   1.131   2.190  16.494  2.5935 -0.2972 -0.3804
  557TIP3    H225867   1.051   2.187  16.366 -0.2961  2.0148  1.2553
  558TIP3   OH225868   0.667   3.058  14.455 -0.1626 -0.8799 -0.3007
  558TIP3    H125869   0.645   3.141  14.497  0.0864 -0.8828 -0.1623
  558TIP3    H225870   0.724   3.013  14.518  0.7466 -0.6127 -0.8991
  559TIP3   OH225871   2.609   1.677  16.016 -0.5073 -0.0819 -0.1302
  559TIP3    H125872   2.519   1.702  15.995 -0.2745  0.8670 -0.0375
  559TIP3    H225873   2.615   1.689  16.111 -0.3281 -0.3169 -0.1100
  560TIP3   OH225874   1.209   2.936  15.655  0.4182 -0.4983  0.3796
  560TIP3    H125875   1.249   2.863  15.607 -0.6266 -2.3108  2.1155
  560TIP3    H225876   1.211   2.908  15.746 -1.6488  0.8556  0.8978
  561TIP3   OH225877   5.863   6.662  15.316 -0.2354  0.0301  0.5396
  561TIP3    H125878   5.781   6.613  15.326 -1.1249  1.3715  0.0820
  561TIP3    H225879   5.853   6.711  15.235  1.0817  0.1264  0.4116
  562TIP3   OH225880   4.353   2.866  15.472  0.0656  0.2775  0.2010
  562TIP3    H125881   4.270   2.895  15.511  0.7685  2.2099  0.3494
  562TIP3    H225882   4.327   2.807  15.401 -1.3978  0.1217  0.8423
  563TIP3   OH225883   5.128   0.074  15.363 -0.1162 -0.3401 -0.1717
  563TIP3    H125884   5.175   0.063  15.446  2.1845  0.2468 -1.3456
  563TIP3    H225885   5.036   0.060  15.387  0.5017 -0.5632  2.4023
  564TIP3   OH225886   2.332   6.020  16.701  0.5318  0.0545  0.1372
  564TIP3    H125887   2.278   5.943  16.717  0.2530  0.3891  0.8168
  564TIP3    H225888   2.269   6.090  16.681  0.8317 -0.3319 -2.5748
  565TIP3   OH225889   0.394   2.805  14.360 -0.0991  0.1505 -0.3981
  565TIP3    H125890   0.452   2.866  14.313 -0.2395 -0.7090 -1.7273
  565TIP3    H225891   0.377   2.735  14.298 -0.5871 -0.8676  0.8320
  566TIP3   OH225892   4.880   3.205  16.923 -0.6421 -0.3400 -0.0376
  566TIP3    H125893   4.945   3.255  16.972  0.2405 -1.7718  0.3240
  566TIP3    H225894   4.928   3.172  16.847 -1.4494  0.1109 -0.7568
  567TIP3   OH225895   4.281   1.384  15.147  0.4354 -0.4066 -0.1910
  567TIP3    H125896   4.301   1.291  15.145 -0.0400 -0.5474  0.9273
  567TIP3    H225897   4.210   1.395  15.084  0.4557 -0.8065 -0.2818
  568TIP3   OH225898   1.675   2.246  14.099  0.8047 -0.2786  0.4341
  568TIP3    H125899   1.642   2.157  14.088  1.4039 -0.5883  1.0682
  568TIP3    H225900   1.627   2.298  14.035 -0.6056 -0.7906  1.0415
  569TIP3   OH225901   5.060   1.467  15.974  0.9846 -0.0596  0.0229
  569TIP3    H125902   5.022   1.406  16.037 -0.0236 -0.2611 -0.7357
  569TIP3    H225903   5.009   1.547  15.985  1.5011  0.2431  0.1902
  570TIP3   OH225904   1.735   1.124  15.626  0.4748  0.4668 -0.2199
  570TIP3    H125905   1.793   1.073  15.569 -0.0480 -1.7143  1.0590
  570TIP3    H225906   1.654   1.132  15.575  1.3368  2.1780 -1.3894
  571TIP3   OH225907   0.681   3.064  16.891 -0.7429 -0.0322 -0.3113
  571TIP3    H125908   0.680   3.016  16.808  0.7932 -0.1870 -0.2660
  571TIP3    H225909   0.774   3.078  16.909 -0.8646 -2.0014  2.5107
  572TIP3   OH225910   1.758   4.673  15.313  0.1936  0.0181 -0.3111
  572TIP3    H125911   1.702   4.688  15.237 -2.6288 -1.2812  1.3178
  572TIP3    H225912   1.732   4.587  15.345  0.3177  0.9858  2.7816
  573TIP3   OH225913   2.552   2.336  14.593 -0.0571 -0.3698  0.2311
  573TIP3    H125914   2.615   2.277  14.634 -0.4164 -1.4736 -0.7621
  573TIP3    H225915   2.604   2.389  14.533  0.1552 -0.1715  0.5867
  574TIP3   OH225916   1.362   2.007  13.024  0.7000  0.2161  0.5302
  574TIP3    H125917   1.324   2.087  13.060 -0.8479 -0.8640  1.4448
  574TIP3    H225918   1.348   2.014  12.930 -0.2446  0.6421  0.6921
  575TIP3   OH225919   0.325   0.076  14.668  0.2475 -0.1387  0.1032
  575TIP3    H125920   0.360   0.120  14.590  1.4456 -0.0157  0.6935
  575TIP3    H225921   0.272   0.143  14.710  0.6105  0.1860  0.0504
  576TIP3   OH225922   6.340   1.253  14.298  0.3154 -0.1458  0.6886
  576TIP3    H125923   6.305   1.334  14.261  1.0211 -0.4505 -0.7043
  576TIP3    H225924   6.386   1.211  14.226  1.9970 -0.6516  1.9759
  577TIP3   OH225925   1.111   0.870  13.947  0.0283 -0.3168 -0.3896
  577TIP3    H125926   1.127   0.816  13.869 -1.6709 -0.8298 -0.4130
  577TIP3    H225927   1.055   0.940  13.917  0.0290 -0.0512  0.2100
  578TIP3   OH225928   4.157   6.064  16.417 -0.1516 -0.1061  0.0319
  578TIP3    H125929   4.088   6.010  16.378 -0.7700  0.6694  0.0091
  578TIP3    H225930   4.192   6.115  16.344 -0.1407  0.1150  0.1914
  579TIP3   OH225931   2.478   1.711  14.167  0.3219 -0.8705  0.1357
  579TIP3    H125932   2.499   1.700  14.074 -0.2798  0.4291 -0.1709
  579TIP3    H225933   2.520   1.794  14.192  0.7003 -1.3332  1.1044
  580TIP3   OH225934   4.424   4.169  14.692  0.2010 -0.4017  0.2183
  580TIP3    H125935   4.371   4.168  14.612  0.0406 -0.2506  0.3195
  580TIP3    H225936   4.370   4.125  14.757 -0.2441  0.6584  0.5877
  581TIP3   OH225937   2.228   5.220  16.494 -0.3167  0.0121 -0.4493
  581TIP3    H125938   2.230   5.129  16.466 -1.3754  0.0411 -0.6706
  581TIP3    H225939   2.277   5.268  16.426 -0.9065 -0.2196 -1.0466
  582TIP3   OH225940   4.445   1.061  14.535 -0.2867 -0.3715 -0.5613
  582TIP3    H125941   4.399   0.977  14.533 -2.0231  0.5537 -0.6924
  582TIP3    H225942   4.408   1.107  14.610  0.3865  0.4280 -0.7087
  583TIP3   OH225943   6.692   4.155  16.484 -0.0048 -0.2122 -0.1846
  583TIP3    H125944   6.610   4.198  16.506  0.0727 -0.8927  1.6283
  583TIP3    H225945   6.668   4.065  16.464  0.3401 -0.5922  1.0280
  584TIP3   OH225946   1.729   1.161  13.662 -0.4872  0.2842 -0.0875
  584TIP3    H125947   1.635   1.157  13.682 -0.8721 -0.9814 -1.9209
  584TIP3    H225948   1.748   1.078  13.618  1.6196  0.3222  0.6422
  585TIP3   OH225949   0.028   3.919  16.749 -0.8507  0.0157  0.2137
  585TIP3    H125950   0.002   3.977  16.821  1.1258  0.6545  0.4691
  585TIP3    H225951   0.071   3.977  16.686  2.2827 -1.2081  1.0082
  586TIP3   OH225952   5.697   0.998  16.918  0.4096 -0.0931  0.3984
  586TIP3    H125953   5.782   1.012  16.875  0.6976  0.5893  1.1668
  586TIP3    H225954   5.697   0.905  16.941  2.4263  0.4893  3.3527
  587TIP3   OH225955   1.852   5.077  15.514  0.1553 -0.0383  0.0936
  587TIP3    H125956   1.783   5.011  15.507 -0.2793  0.4176  0.0456
  587TIP3    H225957   1.899   5.070  15.431 -0.0581 -0.0980 -0.0241
  588TIP3   OH225958   5.046   1.808  16.637  0.2676 -0.2285 -0.5133
  588TIP3    H125959   4.995   1.735  16.672 -0.4707  0.4235 -0.1892
  588TIP3    H225960   5.136   1.777  16.639  0.1797 -0.4921  1.3235
  589TIP3   OH225961   5.446   1.858  15.839 -0.0417  0.2522  0.0890
  589TIP3    H125962   5.388   1.783  15.843 -2.0650  1.6401 -1.3320
  589TIP3    H225963   5.516   1.831  15.779 -0.6158 -0.5683 -0.2230
  590TIP3   OH225964   0.905   5.938  14.934  0.2220  0.5029 -0.2544
  590TIP3    H125965   0.924   6.027  14.906  1.7137 -0.2483 -1.8235
  590TIP3    H225966   0.867   5.896  14.857  1.4207 -0.7614 -0.1821
  591TIP3   OH225967   4.823   0.032  16.843 -0.2922 -0.4864 -0.2829
  591TIP3    H125968   4.806   0.110  16.896 -0.0212  0.5786 -1.6917
  591TIP3    H225969   4.738   0.012  16.802  0.0462  0.2690 -1.4188
  592TIP3   OH225970   5.718   5.316  16.728 -0.0881 -0.4097  0.2215
  592TIP3    H125971   5.786   5.383  16.720 -0.6505  0.0662 -0.6437
  592TIP3    H225972   5.709   5.303  16.823 -0.5259  1.3114  0.4553
  593TIP3   OH225973   2.341   0.843  16.612 -0.0746 -0.1419 -0.6137
  593TIP3    H125974   2.408   0.911  16.601  1.1830 -1.0745  0.8551
  593TIP3    H225975   2.258   0.891  16.617  0.7870  1.3086  0.4961
  594TIP3   OH225976   6.065   4.753  15.370  0.3905 -0.6779  0.1340
  594TIP3    H125977   6.060   4.745  15.465 -0.6397 -0.8205  0.0894
  594TIP3    H225978   5.998   4.818  15.349  2.1939  1.1360 -0.3137
  595TIP3   OH225979   3.566   4.153  14.326  0.5608  0.3246  0.3418
  595TIP3    H125980   3.552   4.207  14.248 -0.5208  1.5930  1.3528
  595TIP3    H225981   3.660   4.137  14.329  0.3624 -2.3952 -2.8761
  596TIP3   OH225982   1.741   5.214  16.554  0.2935 -0.1451 -0.0650
  596TIP3    H125983   1.692   5.164  16.619 -0.0967 -0.8532 -0.9036
  596TIP3    H225984   1.830   5.178  16.558 -0.0708 -1.1471 -0.9137
  597TIP3   OH225985   5.703   1.670  15.230 -0.0222  0.3142  0.0780
  597TIP3    H125986   5.677   1.591  15.181 -0.7600  0.5683  0.0462
  597TIP3    H225987   5.621   1.715  15.247  0.2757  0.4663  1.1640
  598TIP3   OH225988   3.247   6.445  14.916 -0.0536 -0.0588  0.3496
  598TIP3    H125989   3.323   6.500  14.899 -0.6318  1.0691  1.3002
  598TIP3    H225990   3.172   6.500  14.893 -0.6065 -1.3458 -1.1215
  599TIP3   OH225991   0.599   2.556  15.054 -0.0731  0.5119  0.1307
  599TIP3    H125992   0.515   2.572  15.012  0.0534 -0.5950 -0.5708
  599TIP3    H225993   0.603   2.621  15.125 -1.1845  1.0499 -0.2777
  600TIP3   OH225994   3.685   3.850  14.154 -0.2209 -0.0201  0.0243
  600TIP3    H125995   3.752   3.812  14.097 -0.0261  0.0476  0.2054
  600TIP3    H225996   3.643   3.917  14.100  0.0601  0.1419  0.0054
  601TIP3   OH225997   1.196   1.259  17.024  0.4055 -0.3700 -0.2423
  601TIP3    H125998   1.191   1.340  16.972  1.0271  0.1288  0.4540
  601TIP3    H225999   1.127   1.269  17.090 -0.1390 -0.8394 -0.7260
  602TIP3   OH226000   3.548   1.356  14.491  0.0733  0.0266 -0.5813
  602TIP3    H126001   3.484   1.389  14.428 -1.0182 -0.4633  0.2361
  602TIP3    H226002   3.500   1.354  14.575  0.3776 -2.5702 -0.3786
  603TIP3   OH226003   5.887   2.369  14.043 -0.0730 -0.1576 -0.1551
  603TIP3    H126004   5.839   2.392  13.963  2.2510  3.2165 -0.7964
  603TIP3    H226005   5.932   2.288  14.021 -1.7697 -0.8862 -1.1583
  604TIP3   OH226006   3.125   5.006  14.690 -0.7251  0.4989  0.3040
  604TIP3    H126007   3.186   5.075  14.667 -0.1185 -0.0354  0.2916
  604TIP3    H226008   3.044   5.052  14.712 -0.1966  1.2414  0.7495
  605TIP3   OH226009   3.799   5.025  16.706  0.3703  0.6153  0.3193
  605TIP3    H126010   3.834   5.110  16.732  1.9990  0.6521 -1.6618
  605TIP3    H226011   3.877   4.974  16.680 -0.5520 -1.4802  1.3970
  606TIP3   OH226012   3.437   5.098  15.902 -0.1920 -0.0203  0.5602
  606TIP3    H126013   3.342   5.091  15.889 -0.1373 -2.4182  1.0827
  606TIP3    H226014   3.458   5.187  15.873 -2.1235 -0.4362 -2.6080
  607TIP3   OH226015   1.737   1.543  13.652 -0.2930  0.2201  0.1313
  607TIP3    H126016   1.747   1.495  13.734  0.2978  0.2091  0.0561
  607TIP3    H226017   1.800   1.615  13.658  0.0259  0.0055 -0.4636
  608TIP3   OH226018   4.604   5.702  15.046 -0.1385  0.1392  0.4139
  608TIP3    H126019   4.578   5.674  15.134 -1.7111  1.4829  0.4323
  608TIP3    H226020   4.626   5.621  15.000 -1.3946 -0.8080  1.4117
  609TIP3   OH226021   6.550   2.224  14.326  0.2008 -0.3944 -0.3314
  609TIP3    H126022   6.486   2.212  14.255 -1.2143 -0.7847  0.9613
  609TIP3    H226023   6.617   2.158  14.310 -1.0571 -1.7215 -0.3038
  610TIP3   OH226024   2.110   6.683  13.641 -0.2727 -0.5211 -0.0365
  610TIP3    H126025   2.033   6.627  13.634  0.5695 -2.1429  2.2405
  610TIP3    H226026   2.178   6.636  13.592  0.0177 -0.7336  0.5469
  611TIP3   OH226027   2.796   5.911  15.536 -0.0588 -0.6115 -0.1331
  611TIP3    H126028   2.785   5.998  15.499  1.1748 -0.9670 -1.3992
  611TIP3    H226029   2.722   5.902  15.597  0.5596  1.8362  1.1122
  612TIP3   OH226030   1.718   2.602  14.528  0.1849 -0.1992 -0.0153
  612TIP3    H126031   1.678   2.576  14.444 -0.3242  0.1623  0.1122
  612TIP3    H226032   1.762   2.684  14.509  0.4491 -0.3435 -0.0319
  613TIP3   OH226033   4.921   0.428  17.196  0.2553 -0.4324  0.3372
  613TIP3    H126034   4.841   0.480  17.205 -0.7513 -1.6815 -0.8946
  613TIP3    H226035   4.988   0.491  17.170 -0.7971  0.3380 -0.5866
  614TIP3   OH226036   3.940   0.057  14.794  0.4228  0.3239 -0.1612
  614TIP3    H126037   4.027   0.029  14.824  0.3409  0.7999  0.5371
  614TIP3    H226038   3.918   0.131  14.851 -1.4186 -1.1618  1.1778
  615TIP3   OH226039   2.799   0.066  13.673  0.1861 -0.3876  0.2055
  615TIP3    H126040   2.884   0.109  13.662 -0.2169  0.2250 -0.5648
  615TIP3    H226041   2.766   0.055  13.584 -0.1890 -1.3632  0.4506
  616TIP3   OH226042   4.154   2.848  14.839  0.6367  0.0284 -0.2667
  616TIP3    H126043   4.113   2.767  14.808  0.6105  0.2277 -0.7679
  616TIP3    H226044   4.104   2.871  14.917  1.1237 -0.8318  0.3124
  617TIP3   OH226045   1.052   6.506  15.878  0.2753 -0.2659  0.0887
  617TIP3    H126046   1.055   6.436  15.813  1.6765 -0.4618  0.3396
  617TIP3    H226047   1.056   6.586  15.827  1.2797 -0.4175 -0.0785
  618TIP3   OH226048   0.309   2.612  16.005  0.2274 -0.3703 -0.2979
  618TIP3    H126049   0.266   2.544  16.056 -0.3978 -0.3009 -0.7230
  618TIP3    H226050   0.288   2.693  16.051  0.2877 -0.3816 -0.2490
  619TIP3   OH226051   3.126   0.477  16.079 -0.4849 -0.7662 -0.1068
  619TIP3    H126052   3.159   0.517  15.998 -0.0061 -1.0324 -0.0473
  619TIP3    H226053   3.127   0.548  16.143  0.2261 -0.8266 -0.0397
  620TIP3   OH226054   5.630   1.268  13.316 -0.0452  0.7015  0.0109
  620TIP3    H126055   5.711   1.283  13.267 -0.1129 -0.5554 -0.5235
  620TIP3    H226056   5.586   1.197  13.269 -1.3547  1.2118  0.4245
  621TIP3   OH226057   2.630   1.860  14.685 -0.7322 -0.3341  0.4621
  621TIP3    H126058   2.565   1.906  14.738  0.5537 -0.4293  2.2220
  621TIP3    H226059   2.592   1.857  14.597 -1.9340  1.8983  0.8389
  622TIP3   OH226060   1.102   0.472  16.305  0.2205  0.3812  0.0213
  622TIP3    H126061   1.166   0.438  16.242 -1.4056  0.8808 -2.0112
  622TIP3    H226062   1.133   0.560  16.326  1.0549  0.0186  0.3571
  623TIP3   OH226063   0.473   5.913  15.793  0.0290 -0.6837  0.4935
  623TIP3    H126064   0.561   5.876  15.791  0.7306  0.9105  0.0234
  623TIP3    H226065   0.432   5.881  15.712  1.6544  1.8146 -1.4833
  624TIP3   OH226066   3.861   3.237  15.018 -0.3058  0.1958 -0.4675
  624TIP3    H126067   3.921   3.310  15.031 -1.3407  1.3476 -1.8190
  624TIP3    H226068   3.787   3.255  15.076 -0.3612 -0.0309 -0.4655
  625TIP3   OH226069   5.134   4.031  16.001  0.2167 -0.3358 -0.2769
  625TIP3    H126070   5.094   4.024  15.914  1.5499 -1.2966 -0.8387
  625TIP3    H226071   5.183   3.949  16.011 -1.2886 -1.0544  2.1080
  626TIP3   OH226072   0.352   2.704  15.190 -0.0658  0.0733  0.1443
  626TIP3    H126073   0.355   2.614  15.223 -1.1452 -0.0181  0.0268
  626TIP3    H226074   0.425   2.748  15.233 -1.6544  0.0925  3.0566
  627TIP3   OH226075   5.502   0.167  16.688 -0.2772  0.0248 -0.3454
  627TIP3    H126076   5.478   0.130  16.603  0.9703  0.5547 -0.9432
  627TIP3    H226077   5.579   0.117  16.715  0.6168  1.2817 -0.5391
  628TIP3   OH226078   3.960   5.534  15.602 -0.3531  0.5443 -0.3051
  628TIP3    H126079   3.940   5.483  15.523 -1.1342  0.1503  0.1299
  628TIP3    H226080   3.880   5.585  15.618  0.3389  1.7480 -0.6002
  629TIP3   OH226081   0.324   0.976  15.503 -0.3643 -0.2321  0.2006
  629TIP3    H126082   0.346   0.923  15.580 -0.9419 -1.0443 -0.1790
  629TIP3    H226083   0.342   1.066  15.530 -1.1297 -0.4380  1.5002
  630TIP3   OH226084   4.466   1.005  16.548 -0.1895  0.8761 -0.1290
  630TIP3    H126085   4.519   0.991  16.469 -2.4902  2.2065 -2.0520
  630TIP3    H226086   4.501   1.086  16.586  0.2898  0.7746 -0.3480
  631TIP3   OH226087   1.724   1.750  13.447 -0.5570 -0.4838 -0.2889
  631TIP3    H126088   1.730   1.814  13.376  0.1393 -0.2378 -0.0188
  631TIP3    H226089   1.784   1.783  13.514 -0.1966 -1.4116 -0.1396
  632TIP3   OH226090   0.230   4.180  15.827 -0.0586  0.3056 -0.1866
  632TIP3    H126091   0.313   4.143  15.858  0.2104 -0.3166 -1.5446
  632TIP3    H226092   0.163   4.137  15.880  0.5316  2.0917  2.1378
  633TIP3   OH226093   5.233   1.926  14.419 -0.1107  0.2271  0.2642
  633TIP3    H126094   5.242   1.845  14.368 -1.4291 -0.2885  0.8088
  633TIP3    H226095   5.287   1.912  14.497  0.4968  0.3070 -0.1341
  634TIP3   OH226096   0.183   1.407  14.441 -0.1521 -0.2565 -0.6552
  634TIP3    H126097   0.129   1.472  14.396 -0.5080  1.0588  1.5436
  634TIP3    H226098   0.211   1.450  14.521  1.8760 -1.9068 -0.4012
  635TIP3   OH226099   0.349   1.931  16.977  0.5093 -0.3773 -0.7183
  635TIP3    H126100   0.353   1.837  16.991  0.3409 -0.5150 -1.5575
  635TIP3    H226101   0.269   1.959  17.023  0.9181 -0.5295  0.0993
  636TIP3   OH226102   1.700   2.376  16.707  0.2013 -0.4978 -0.5524
  636TIP3    H126103   1.777   2.321  16.713  1.1834  0.6305 -2.1147
  636TIP3    H226104   1.701   2.410  16.618 -0.3184  2.0371  0.3190
  637TIP3   OH226105   1.670   1.443  15.569 -0.0709  0.5311  0.0441
  637TIP3    H126106   1.620   1.382  15.622  0.5022 -0.0919 -0.1219
  637TIP3    H226107   1.651   1.417  15.478 -0.7959  1.3861 -0.0667
  638TIP3   OH226108   4.455   3.645  15.061 -0.0358  0.3897 -0.7661
  638TIP3    H126109   4.438   3.564  15.012  0.8478  0.9611 -2.0657
  638TIP3    H226110   4.440   3.715  14.998 -0.8864  1.2832  0.3706
  639TIP3   OH226111   5.393   1.591  14.386 -0.0106 -0.2392 -0.3889
  639TIP3    H126112   5.420   1.504  14.358 -1.0876 -0.9450  0.7094
  639TIP3    H226113   5.325   1.616  14.323 -1.2152 -1.1092  0.5252
  640TIP3   OH226114   2.133   2.939  16.388 -0.2735  0.0260  0.0576
  640TIP3    H126115   2.052   2.925  16.437 -0.0582 -1.6440  0.0237
  640TIP3    H226116   2.181   3.004  16.438 -0.1327 -1.4860  2.0025
  641TIP3   OH226117   5.649   3.499  15.559  0.6345  0.6461  0.4254
  641TIP3    H126118   5.667   3.483  15.652  0.3057 -0.5999  0.2940
  641TIP3    H226119   5.735   3.519  15.522  1.1818 -1.2284  0.5752
  642TIP3   OH226120   2.055   0.572  14.407 -0.4488 -0.6866 -0.2727
  642TIP3    H126121   1.968   0.535  14.417 -1.1348  0.4567 -1.6602
  642TIP3    H226122   2.053   0.655  14.455  0.4030 -1.3860  1.0251
  643TIP3   OH226123   6.628   5.610  15.037 -0.4402 -0.0191  0.2106
  643TIP3    H126124   6.723   5.613  15.027 -0.5348 -0.6795 -1.0501
  643TIP3    H226125   6.603   5.702  15.050  0.3696  0.1371  0.7825
  644TIP3   OH226126   2.455   1.819  14.443 -0.5497  0.2481  0.4564
  644TIP3    H126127   2.410   1.903  14.428  1.4384  1.3120  0.0637
  644TIP3    H226128   2.423   1.762  14.374 -1.5025  0.8649  0.3654
  645TIP3   OH226129   0.735   4.007  16.767  0.2507  0.0742 -0.4631
  645TIP3    H126130   0.689   4.050  16.695  0.1717  1.3307  0.2984
  645TIP3    H226131   0.671   4.004  16.838  1.4655  2.5784  0.8929
  646TIP3   OH226132   0.342   0.220  15.015  0.0647  0.4790  0.2364
  646TIP3    H126133   0.427   0.205  14.975 -0.0215  0.6718 -0.0204
  646TIP3    H226134   0.354   0.195  15.107  0.2019 -0.1720  0.0430
  647TIP3   OH226135   5.742   2.895  15.333  0.2638  1.2090  0.0257
  647TIP3    H126136   5.696   2.875  15.415 -0.9867  0.5404 -0.8121
  647TIP3    H226137   5.808   2.826  15.326 -0.8366  0.1689 -0.4182
  648TIP3   OH226138   6.632   5.442  14.835 -0.5600 -0.3513  0.1429
  648TIP3    H126139   6.622   5.494  14.756  2.7645  1.9322  1.0161
  648TIP3    H226140   6.611   5.503  14.906 -1.2879 -1.6844  1.1215
  649TIP3   OH226141   1.255   1.552  16.933 -0.1846 -0.0534  0.1376
  649TIP3    H126142   1.205   1.610  16.876 -1.2506 -1.3304 -0.2940
  649TIP3    H226143   1.201   1.544  17.012  0.2177 -0.0192  0.4186
  650TIP3   OH226144   5.941   3.436  15.183  0.3362  0.0241 -0.2090
  650TIP3    H126145   5.934   3.440  15.087 -1.1994 -0.6320 -0.1635
  650TIP3    H226146   5.961   3.344  15.201  0.3493  0.0891  0.0990
  651TIP3   OH226147   1.696   5.533  14.502 -0.7369  0.0808 -0.2772
  651TIP3    H126148   1.730   5.576  14.424 -0.9401  0.9701  0.1166
  651TIP3    H226149   1.603   5.557  14.504 -0.4606  1.1449  0.9257
  652TIP3   OH226150   0.864   2.617  16.225  0.3202 -0.3520 -0.2624
  652TIP3    H126151   0.952   2.646  16.251 -0.5823  3.6150 -1.0211
  652TIP3    H226152   0.824   2.585  16.305  1.8513 -0.4950  0.4728
  653TIP3   OH226153   2.656   3.209  15.392  0.2919  0.0871 -0.5846
  653TIP3    H126154   2.642   3.214  15.487  0.7029  0.2973 -0.5324
  653TIP3    H226155   2.686   3.297  15.368  0.1263  0.0512 -0.9205
  654TIP3   OH226156   4.762   0.586  15.202  0.2941 -0.0777 -0.0427
  654TIP3    H126157   4.716   0.528  15.263 -0.6464  0.1666 -0.5073
  654TIP3    H226158   4.772   0.533  15.122  1.1325 -0.2441  0.1587
  655TIP3   OH226159   0.473   5.175  15.091  0.4831 -0.5505 -0.5637
  655TIP3    H126160   0.551   5.218  15.057 -1.3290  1.9096 -1.8851
  655TIP3    H226161   0.442   5.232  15.162  0.9226 -2.5550  1.3718
  656TIP3   OH226162   3.031   1.305  14.074  0.1401 -0.6805 -0.3599
  656TIP3    H126163   3.126   1.312  14.084  0.1349 -0.1372 -0.6227
  656TIP3    H226164   3.011   1.213  14.090  0.5381 -0.5460  1.0595
  657TIP3   OH226165   6.236   6.495  16.994  0.3924 -0.2201 -0.2175
  657TIP3    H126166   6.301   6.431  17.022  1.8399  0.4763 -1.7932
  657TIP3    H226167   6.287   6.564  16.951 -1.2666  1.1341 -0.1322
  658TIP3   OH226168   5.173   1.096  16.147 -0.2898  0.2068 -0.5122
  658TIP3    H126169   5.089   1.142  16.158  1.3363  3.1404  0.6990
  658TIP3    H226170   5.194   1.064  16.234 -0.3483 -0.9447 -0.9122
  659TIP3   OH226171   5.145   2.846  14.119 -0.5628 -0.1072 -0.1419
  659TIP3    H126172   5.085   2.867  14.191 -1.8847 -1.4668 -0.7785
  659TIP3    H226173   5.094   2.866  14.040  0.6029  0.6648 -0.7293
  660TIP3   OH226174   4.045   3.957  16.907 -0.1554  0.2336 -0.3902
  660TIP3    H126175   4.129   3.943  16.950 -0.2997  1.7298  0.4276
  660TIP3    H226176   4.029   3.876  16.859 -0.0348 -1.6445  2.4682
  661TIP3   OH226177   6.562   2.042  16.500 -0.2651  0.0557 -0.2120
  661TIP3    H126178   6.642   1.994  16.482 -0.8722 -1.0153 -0.1627
  661TIP3    H226179   6.549   2.098  16.424  0.0568 -0.4337 -0.6296
  662TIP3   OH226180   3.685   2.735  14.834  0.0546  0.7327  0.0277
  662TIP3    H126181   3.608   2.706  14.882  1.8134 -1.5928  1.6842
  662TIP3    H226182   3.685   2.830  14.843 -2.3124  0.7518  0.3594
  663TIP3   OH226183   4.730   0.402  13.492  0.9672 -0.6796  0.1251
  663TIP3    H126184   4.715   0.490  13.460 -1.1291 -0.8814  0.4429
  663TIP3    H226185   4.690   0.345  13.427  2.4987 -1.4547 -0.1943
  664TIP3   OH226186   6.325   0.344  14.199 -0.2345  0.0689  0.1117
  664TIP3    H126187   6.416   0.327  14.221 -0.6481 -0.3329  1.6616
  664TIP3    H226188   6.281   0.260  14.214 -0.5749 -0.2792 -2.4553
  665TIP3   OH226189   2.008   1.053  16.905 -0.6541 -0.0241  0.3106
  665TIP3    H126190   2.003   1.146  16.927  1.1873  0.1357  0.1946
  665TIP3    H226191   2.023   1.052  16.810  0.2262 -0.3956  0.4488
  666TIP3   OH226192   5.695   0.882  15.626  0.2441  0.1320 -0.0684
  666TIP3    H126193   5.648   0.816  15.575  1.2582  1.0008 -2.2177
  666TIP3    H226194   5.627   0.947  15.648  0.1222  0.7098 -2.0038
  667TIP3   OH226195   1.251   6.287  14.500 -0.3210  0.0779  0.2224
  667TIP3    H126196   1.239   6.277  14.594  1.1345  0.1883  0.4358
  667TIP3    H226197   1.260   6.197  14.468 -0.0029  0.0815  0.3035
  668TIP3   OH226198   0.647   2.198  15.697 -0.3587  0.7062 -0.2399
  668TIP3    H126199   0.632   2.106  15.676  0.2572  0.7369 -0.8257
  668TIP3    H226200   0.725   2.197  15.753 -1.7186  0.6609  1.7655
  669TIP3   OH226201   0.522   0.199  14.271  0.0781  0.0967 -0.1154
  669TIP3    H126202   0.617   0.187  14.267  0.3208  1.7286 -0.1952
  669TIP3    H226203   0.491   0.177  14.183  0.3828 -0.3765 -0.1096
  670TIP3   OH226204   5.111   2.728  13.759  0.2467 -0.2551  0.2788
  670TIP3    H126205   5.183   2.701  13.702  0.2367 -0.3757  0.3231
  670TIP3    H226206   5.147   2.800  13.811  0.7205 -1.1008  1.1584
  671TIP3   OH226207   5.699   0.131  14.462 -0.4822  0.0470  0.5426
  671TIP3    H126208   5.793   0.116  14.450 -0.9409 -3.6689  0.3700
  671TIP3    H226209   5.660   0.102  14.380 -1.8926 -0.2784  1.3051
  672TIP3   OH226210   2.709   3.255  16.545  0.4967 -0.4184  0.2796
  672TIP3    H126211   2.678   3.242  16.455  0.3977 -2.2314  0.5287
  672TIP3    H226212   2.643   3.313  16.584 -0.0088 -0.4197 -0.5302
  673TIP3   OH226213   5.584   2.757  15.152  0.6661  0.1064  0.0174
  673TIP3    H126214   5.627   2.817  15.213 -1.6296  2.7754 -0.7514
  673TIP3    H226215   5.491   2.780  15.157 -0.0212 -1.7693 -2.1352
  674TIP3   OH226216   2.773   0.893  14.290  0.1278  0.4193 -0.0193
  674TIP3    H126217   2.737   0.883  14.378  0.3832  1.5862  0.2340
  674TIP3    H226218   2.704   0.860  14.232 -0.3493  0.3602  0.5736
  675TIP3   OH226219   3.812   5.823  15.170  0.1303 -0.1539 -0.0994
  675TIP3    H126220   3.902   5.852  15.155  0.1395  0.2987  0.7820
  675TIP3    H226221   3.769   5.834  15.086  1.0608 -0.9904 -0.7113
  676TIP3   OH226222   5.049   3.849  17.060 -0.1936  0.4512 -0.6439
  676TIP3    H126223   4.965   3.871  17.021 -0.3966 -1.0418 -1.1203
  676TIP3    H226224   5.031   3.772  17.114  0.5466  1.1154  0.5997
  677TIP3   OH226225   4.988   3.785  13.887  0.5632  0.4848 -0.1806
  677TIP3    H126226   5.015   3.699  13.855 -0.8615 -1.1450  2.5544
  677TIP3    H226227   4.941   3.824  13.814  2.0088 -0.6307 -1.7987
  678TIP3   OH226228   4.691   6.527  15.543 -0.3428  0.1062  0.5678
  678TIP3    H126229   4.612   6.473  15.543 -0.4592  0.2552 -0.4715
  678TIP3    H226230   4.660   6.616  15.525  0.1621 -0.0355 -1.1368
  679TIP3   OH226231   5.059   1.355  15.314  0.1225  0.2226  0.0714
  679TIP3    H126232   5.039   1.267  15.346 -0.4331  0.0925 -0.5830
  679TIP3    H226233   5.021   1.413  15.379  1.4145 -0.0005  1.0579
  680TIP3   OH226234   5.210   0.824  13.126  0.0881 -0.1398  0.3583
  680TIP3    H126235   5.243   0.780  13.047 -0.2579 -0.4379  0.3758
  680TIP3    H226236   5.238   0.769  13.198  0.8473  0.4028  0.4919
  681TIP3   OH226237   4.455   2.498  14.973  0.2839 -0.2089 -0.3382
  681TIP3    H126238   4.421   2.476  14.886 -0.2547 -1.0586  0.0675
  681TIP3    H226239   4.387   2.467  15.033  0.9593 -0.2545  0.4112
  682TIP3   OH226240   6.238   1.817  14.373 -0.5751 -0.7468  0.2310
  682TIP3    H126241   6.282   1.746  14.419 -1.8821 -2.2544 -0.7236
  682TIP3    H226242   6.240   1.891  14.434  2.2660 -1.0280  0.6243
  683TIP3   OH226243   2.904   4.915  16.209 -0.4792  0.4181 -0.7597
  683TIP3    H126244   2.886   4.891  16.300  1.8924 -1.2208 -0.6295
  683TIP3    H226245   2.913   5.010  16.210  0.5195  0.3370  0.9568
  684TIP3   OH226246   4.100   4.131  15.434  0.1003 -0.3438  0.2579
  684TIP3    H126247   4.078   4.224  15.434 -2.3914 -0.7982  2.8684
  684TIP3    H226248   4.067   4.098  15.350 -0.7103  0.8039  0.1045
  685TIP3   OH226249   4.986   0.961  14.050  0.1174  0.0812 -0.4764
  685TIP3    H126250   4.962   0.869  14.037 -0.9759  0.4979 -1.6563
  685TIP3    H226251   4.950   1.006  13.974  1.8588  1.2982 -0.6564
  686TIP3   OH226252   4.283   1.245  14.693  0.0291 -0.2853 -0.1785
  686TIP3    H126253   4.208   1.226  14.637  0.2294 -0.9622 -0.2193
  686TIP3    H226254   4.284   1.341  14.699 -1.2851 -0.2932  0.4471
  687TIP3   OH226255   6.713   0.204  15.710 -0.7609 -0.1788 -0.0379
  687TIP3    H126256   6.666   0.274  15.756 -0.5031 -0.2900  0.4040
  687TIP3    H226257   6.710   0.130  15.770 -0.7712 -0.4554 -0.3776
  688TIP3   OH226258   4.792   3.701  15.701 -0.0377  0.1336 -0.0026
  688TIP3    H126259   4.714   3.652  15.677  0.3075 -0.6136  0.3589
  688TIP3    H226260   4.800   3.769  15.634 -0.3951 -0.4478 -0.6420
  689TIP3   OH226261   2.552   4.701  14.303  0.5882 -0.3022  0.5289
  689TIP3    H126262   2.576   4.790  14.276  2.3116 -0.8914  0.0038
  689TIP3    H226263   2.606   4.684  14.380  0.8617 -1.1804  0.1523
  690TIP3   OH226264   3.680   6.335  15.514  0.0772  0.0701 -0.0138
  690TIP3    H126265   3.664   6.338  15.608  0.2320  1.6458 -0.0107
  690TIP3    H226266   3.599   6.368  15.474  0.2489  0.0539 -0.3869
  691TIP3   OH226267   4.344   1.677  16.807  0.1068 -0.1332 -0.0845
  691TIP3    H126268   4.283   1.629  16.752  1.1765 -1.0275 -0.5416
  691TIP3    H226269   4.312   1.666  16.896 -0.2463 -0.8040 -0.2939
  692TIP3   OH226270   1.505   3.385  14.488 -0.1258 -0.3626 -0.4700
  692TIP3    H126271   1.449   3.462  14.477 -0.7168 -0.4918  1.2821
  692TIP3    H226272   1.456   3.314  14.445 -0.9526 -0.3143  0.3708
  693TIP3   OH226273   5.836   6.389  16.303  0.0565 -0.2297 -0.0820
  693TIP3    H126274   5.777   6.455  16.265 -0.1460 -0.0090  0.6125
  693TIP3    H226275   5.786   6.308  16.300 -0.1000 -0.1392  0.0514
  694TIP3   OH226276   3.141   4.602  14.324 -0.6735  0.8033  0.1810
  694TIP3    H126277   3.161   4.636  14.237 -2.0839 -0.4618 -0.6836
  694TIP3    H226278   3.121   4.680  14.376 -2.4567  1.4424 -1.3607
  695TIP3   OH226279   4.655   1.202  15.025 -0.2059 -0.4006 -0.9457
  695TIP3    H126280   4.640   1.147  15.102  1.9609 -0.6296 -0.6334
  695TIP3    H226281   4.568   1.232  15.001 -0.9982 -0.5162  1.4470
  696TIP3   OH226282   4.962   5.769  14.699 -0.5318 -0.1391 -0.4149
  696TIP3    H126283   5.058   5.772  14.701 -0.5712  1.5687  0.7976
  696TIP3    H226284   4.938   5.721  14.779 -0.6975  2.2029  1.0227
  697TIP3   OH226285   0.009   6.235  16.173 -0.0072 -0.8648  0.2383
  697TIP3    H126286  -0.038   6.169  16.122 -1.7098  0.7732 -0.4079
  697TIP3    H226287   0.051   6.291  16.108 -0.1306 -0.2190  0.7041
  698TIP3   OH226288   6.705   2.229  15.180 -0.0832 -0.1261  0.9454
  698TIP3    H126289   6.757   2.171  15.235 -1.3568 -1.4445  0.8486
  698TIP3    H226290   6.617   2.189  15.181 -0.6342  0.9914 -0.3419
  699TIP3   OH226291   0.115   6.230  16.681 -0.8030  0.2795  0.2608
  699TIP3    H126292   0.154   6.144  16.669 -0.0482  0.5603  0.6718
  699TIP3    H226293   0.063   6.244  16.601  0.0183 -0.0557 -0.3436
  700TIP3   OH226294   5.891   5.029  15.400 -0.0698 -0.0959 -0.0483
  700TIP3    H126295   5.874   5.107  15.347  0.3055  2.1474  2.8627
  700TIP3    H226296   5.983   5.035  15.424 -0.0679 -1.4009  0.3542
  701TIP3   OH226297   1.907   4.475  16.838  0.2742 -0.0708  0.2545
  701TIP3    H126298   1.873   4.561  16.813 -2.6542 -1.3101 -0.4217
  701TIP3    H226299   1.926   4.433  16.754 -1.3594 -1.1858  0.4212
  702TIP3   OH226300   0.248   0.492  15.536 -0.3310  0.0302 -0.7916
  702TIP3    H126301   0.337   0.501  15.569  0.2800  0.8648 -2.5589
  702TIP3    H226302   0.227   0.400  15.550  0.6160 -0.0712  0.1015
  703TIP3   OH226303   4.632   3.491  16.762 -0.4480  0.3049 -0.2364
  703TIP3    H126304   4.574   3.567  16.761 -1.2669 -0.3134 -0.1031
  703TIP3    H226305   4.684   3.500  16.681  0.7940  1.9893  0.6719
  704TIP3   OH226306   0.425   3.440  16.092  0.0172  0.2476 -0.0542
  704TIP3    H126307   0.465   3.356  16.115  1.0710  0.8055  0.2296
  704TIP3    H226308   0.444   3.451  15.999 -0.0878  0.1894 -0.0819
  705TIP3   OH226309   6.008   5.780  16.433 -0.0978 -0.3206  0.4397
  705TIP3    H126310   5.958   5.706  16.398 -1.4066  0.3637  0.7895
  705TIP3    H226311   5.982   5.854  16.377  0.3785  0.0903  0.7560
  706TIP3   OH226312   3.651   2.692  16.723  0.0537 -0.3168  0.1120
  706TIP3    H126313   3.708   2.759  16.760 -0.6571  2.1532 -2.8971
  706TIP3    H226314   3.563   2.730  16.730 -0.5019 -1.4254 -0.6889
  707TIP3   OH226315   1.333   1.549  15.308  0.4170 -0.0651  0.2862
  707TIP3    H126316   1.287   1.475  15.349 -0.2276 -0.0888 -0.4621
  707TIP3    H226317   1.339   1.614  15.378 -0.0645 -0.3718  0.6230
  708TIP3   OH226318   3.805   6.346  16.635 -0.2875 -0.0165  0.4962
  708TIP3    H126319   3.805   6.371  16.727  0.2350 -0.6194  0.6674
  708TIP3    H226320   3.897   6.340  16.611 -0.3646 -1.6489  0.4513
  709TIP3   OH226321   0.473   3.312  17.124 -0.0052  0.2694 -0.5377
  709TIP3    H126322   0.440   3.223  17.136  1.2984 -0.2659 -0.6969
  709TIP3    H226323   0.507   3.314  17.034 -1.6808  1.5135 -1.1900
  710TIP3   OH226324   5.633   6.044  15.549 -0.0026 -0.6267 -0.3612
  710TIP3    H126325   5.659   5.953  15.561  0.6956 -0.3332  0.5020
  710TIP3    H226326   5.537   6.042  15.551  0.0157 -1.2242  0.7008
  711TIP3   OH226327   3.285   1.052  16.585 -0.6462  0.1942 -0.0116
  711TIP3    H126328   3.227   1.058  16.510 -1.3452  1.3323  0.5879
  711TIP3    H226329   3.263   0.968  16.626 -2.3313  0.8559  0.5375
  712TIP3   OH226330   0.435   1.461  16.767  0.4573 -0.1095 -0.2309
  712TIP3    H126331   0.524   1.486  16.742  0.1801 -1.3650 -2.8900
  712TIP3    H226332   0.401   1.537  16.813  2.7222  0.5892  0.4160
  713TIP3   OH226333   6.734   4.396  17.008  0.3902  0.2305  0.2664
  713TIP3    H126334   6.727   4.323  16.947  1.4086  0.8332 -0.5910
  713TIP3    H226335   6.645   4.408  17.040 -0.0268 -0.5600 -0.5441
  714TIP3   OH226336   4.626   2.419  15.564 -0.4919  0.3507  0.2288
  714TIP3    H126337   4.687   2.450  15.498 -0.6798  1.4299  0.5386
  714TIP3    H226338   4.673   2.350  15.611  0.0197  0.3146 -0.3326
  715TIP3   OH226339   3.195   1.753  15.838 -0.5944 -0.0169 -0.5018
  715TIP3    H126340   3.244   1.806  15.901  0.2329  1.1105 -2.0416
  715TIP3    H226341   3.104   1.779  15.850 -0.6144 -0.6022  0.9267
  716TIP3   OH226342   6.297   0.073  15.913 -0.0276  0.1449 -0.4876
  716TIP3    H126343   6.269   0.164  15.909  0.8835  0.6079  2.0166
  716TIP3    H226344   6.233   0.026  15.860 -2.7260  1.7628  1.1564
  717TIP3   OH226345   4.063   1.792  13.018 -0.3507  0.2590  0.6006
  717TIP3    H126346   4.125   1.837  12.961 -0.7376  0.3248  0.2264
  717TIP3    H226347   4.069   1.839  13.101  1.3203 -0.7728  1.1199
  718TIP3   OH226348   4.381   2.765  14.471  0.3585  0.2302  0.1723
  718TIP3    H126349   4.323   2.802  14.406 -0.7006  1.8087  1.9165
  718TIP3    H226350   4.469   2.786  14.439  0.0427 -1.5414 -2.1181
  719TIP3   OH226351   1.147   5.843  16.229 -0.2064  0.0916 -0.0653
  719TIP3    H126352   1.204   5.771  16.203 -0.6946 -0.5730  0.6470
  719TIP3    H226353   1.108   5.814  16.311  0.9069  1.9111  1.1748
  720TIP3   OH226354   3.929   5.649  14.959  0.8266 -0.0579 -0.0417
  720TIP3    H126355   3.989   5.574  14.953  0.8353 -0.1971  1.3706
  720TIP3    H226356   3.960   5.698  15.035 -1.2346 -0.5104  1.1762
  721TIP3   OH226357   2.536   1.996  14.127 -0.2564 -0.4720  0.1843
  721TIP3    H126358   2.561   2.068  14.069  0.8926 -1.9955 -1.3140
  721TIP3    H226359   2.440   1.996  14.125 -0.4909  2.9715  2.8294
  722TIP3   OH226360   1.467   6.440  13.976  0.0833  0.4633  0.0928
  722TIP3    H126361   1.490   6.474  13.889  2.0945 -2.5985 -0.7085
  722TIP3    H226362   1.374   6.420  13.970 -0.2230  1.9579 -0.6942
  723TIP3   OH226363   4.760   0.190  15.571 -0.7756  0.0062  1.1447
  723TIP3    H126364   4.832   0.135  15.601 -0.2021 -0.3540 -0.7378
  723TIP3    H226365   4.791   0.280  15.583  1.4484 -0.0486 -2.4526
  724TIP3   OH226366   3.291   3.482  13.886 -0.5250 -0.2638  0.5235
  724TIP3    H126367   3.371   3.533  13.873 -1.4487  0.7013 -2.0359
  724TIP3    H226368   3.245   3.528  13.956 -1.0664  2.2255 -1.3287
  725TIP3   OH226369   2.539   4.583  15.376 -0.2567 -0.2861 -0.0355
  725TIP3    H126370   2.460   4.550  15.333 -0.6596 -0.5899  0.9021
  725TIP3    H226371   2.507   4.652  15.434  0.2677  0.0811 -0.1768
  726TIP3   OH226372   0.417   3.151  15.369 -0.9425 -0.2089 -0.5771
  726TIP3    H126373   0.443   3.208  15.440 -0.5086 -0.3205 -0.6440
  726TIP3    H226374   0.359   3.205  15.315 -0.4218  0.2132 -0.7185
  727TIP3   OH226375   0.558   6.712  15.382  0.4827  0.3585  0.1443
  727TIP3    H126376   0.544   6.739  15.292  0.7674 -0.3986 -0.1353
  727TIP3    H226377   0.640   6.662  15.380  1.0460  1.2222  1.0092
  728TIP3   OH226378   1.368   4.043  15.633  0.1740 -0.3058  0.0314
  728TIP3    H126379   1.289   4.020  15.584  0.0657 -1.5203  0.7418
  728TIP3    H226380   1.434   3.981  15.603  1.0145  0.9648 -0.8676
  729TIP3   OH226381   3.163   1.092  15.517  0.1985  0.1935  0.2440
  729TIP3    H126382   3.076   1.054  15.500  0.6612 -0.2831 -1.2599
  729TIP3    H226383   3.152   1.186  15.503  0.2589 -0.0422 -1.5972
  730TIP3   OH226384   2.603   3.034  14.979  0.3838  0.0916  0.0726
  730TIP3    H126385   2.602   3.035  14.883  0.8043  0.8548  0.0665
  730TIP3    H226386   2.623   3.125  15.003 -0.5515  0.0935  0.8994
  731TIP3   OH226387   2.330   2.519  17.100  0.0347  0.2307 -0.1414
  731TIP3    H126388   2.273   2.462  17.152  0.2161 -0.1621 -0.3667
  731TIP3    H226389   2.360   2.463  17.029 -0.6206  0.8996 -0.9709
  732TIP3   OH226390   3.231   3.397  15.534  0.4772 -0.2562 -0.1460
  732TIP3    H126391   3.190   3.372  15.617 -1.4015  2.6991 -0.0595
  732TIP3    H226392   3.317   3.432  15.559  0.4729 -0.5948  0.3655
  733TIP3   OH226393   3.932   1.330  14.164 -0.7579  0.0826 -0.2771
  733TIP3    H126394   3.956   1.421  14.142 -0.0337  0.5081  2.0609
  733TIP3    H226395   3.905   1.334  14.255  0.1581 -2.2267  0.1478
  734TIP3   OH226396   4.145   4.103  14.351  0.0902 -0.5128  0.3195
  734TIP3    H126397   4.131   4.158  14.428 -0.3523  0.3524 -0.3594
  734TIP3    H226398   4.234   4.071  14.360  0.2039 -0.0323  0.9491
  735TIP3   OH226399   3.059   3.033  16.221 -0.2379 -0.2091  0.0206
  735TIP3    H126400   3.135   3.042  16.278 -1.0452 -0.4014  1.1588
  735TIP3    H226401   3.065   2.943  16.188 -0.9961 -0.9307  1.6913
  736TIP3   OH226402   5.916   3.502  15.468 -0.2727  0.2234 -0.4968
  736TIP3    H126403   5.941   3.484  15.377  1.6755 -1.8187  0.3204
  736TIP3    H226404   5.989   3.554  15.502  0.9352 -2.1460  0.7954
  737TIP3   OH226405   4.148   0.236  15.024 -0.3757  0.0352  0.5886
  737TIP3    H126406   4.241   0.222  15.044  0.1893  2.8796  0.2854
  737TIP3    H226407   4.123   0.310  15.078 -2.2094 -0.0237 -0.1249
  738TIP3   OH226408   1.438   5.058  15.715  0.4541 -0.4117  0.3177
  738TIP3    H126409   1.439   5.149  15.684 -0.3257 -0.5968 -0.2771
  738TIP3    H226410   1.514   5.017  15.673  0.0208 -0.3842 -0.5041
  739TIP3   OH226411   5.511   1.577  16.914 -0.0077  0.1442 -0.2813
  739TIP3    H126412   5.498   1.510  16.982  3.6973  0.4110  0.9111
  739TIP3    H226413   5.563   1.533  16.846 -2.0282  0.4372 -2.1241
  740TIP3   OH226414   2.124   4.731  16.348 -0.0919  0.5841  0.1176
  740TIP3    H126415   2.092   4.671  16.282 -0.2327  2.1910 -1.3514
  740TIP3    H226416   2.141   4.677  16.425 -1.1371 -1.1332 -0.8229
  741TIP3   OH226417   3.602   2.470  17.366 -0.4897  0.1406  0.2933
  741TIP3    H126418   3.641   2.478  17.279  0.0905 -1.6208  0.3622
  741TIP3    H226419   3.515   2.510  17.357  0.1282  1.3372 -0.6746
  742TIP3   OH226420   6.000   0.154  14.597  0.2965  0.1409 -0.4908
  742TIP3    H126421   6.033   0.083  14.652 -0.8204 -0.5093 -0.6289
  742TIP3    H226422   6.023   0.128  14.508  0.5139  0.3012 -0.4817
  743TIP3   OH226423   0.158   2.553  16.524 -0.5380 -0.1424 -0.4697
  743TIP3    H126424   0.063   2.553  16.541 -0.2114 -0.9057  1.5839
  743TIP3    H226425   0.197   2.573  16.609  1.1943 -1.1330 -1.0063
  744TIP3   OH226426   2.554   3.452  16.641  0.1689 -0.0682 -0.3754
  744TIP3    H126427   2.602   3.503  16.706 -0.6951  0.3827 -0.0782
  744TIP3    H226428   2.462   3.468  16.661 -0.1431 -1.7243 -0.2881
  745TIP3   OH226429   6.025   0.572  16.178 -0.2930  0.0099  0.0106
  745TIP3    H126430   5.984   0.559  16.092  0.0939 -0.1736 -0.1470
  745TIP3    H226431   6.054   0.663  16.177 -1.4056  0.3838  0.4342
  746TIP3   OH226432   5.089   2.999  17.323 -0.0488  0.1980  0.2964
  746TIP3    H126433   5.114   2.962  17.238 -0.1893 -1.1710  0.8172
  746TIP3    H226434   4.997   2.975  17.333  0.2410 -0.5730  1.2800
  747TIP3   OH226435   1.104   1.444  14.375 -0.2398  0.3012 -0.2360
  747TIP3    H126436   1.132   1.370  14.321  0.5329  1.9959 -2.3423
  747TIP3    H226437   1.172   1.452  14.442  1.0521  0.5758 -1.5168
  748TIP3   OH226438   1.662   6.512  16.477 -0.8655  0.4534  0.1443
  748TIP3    H126439   1.666   6.454  16.553  2.9084  0.3235  0.0779
  748TIP3    H226440   1.648   6.599  16.514 -0.1975  0.2505  0.9110
  749TIP3   OH226441   5.905   2.682  15.388 -0.0971 -0.0362  0.8268
  749TIP3    H126442   5.855   2.622  15.333  0.0352  1.5150 -1.1132
  749TIP3    H226443   5.996   2.656  15.375 -0.1631 -0.7339  1.6886
  750TIP3   OH226444   1.098   6.469  14.295 -0.1667 -0.1553 -0.4190
  750TIP3    H126445   1.117   6.398  14.357 -0.1148  1.2614  1.2792
  750TIP3    H226446   1.007   6.493  14.314 -0.8652 -1.0510 -2.3784
  751TIP3   OH226447   1.077   2.100  15.272  0.0191 -0.0265  0.7217
  751TIP3    H126448   1.029   2.182  15.285  0.5980  0.2645  1.1370
  751TIP3    H226449   1.015   2.041  15.230 -0.6450  0.3843  1.1126
  752TIP3   OH226450   5.925   6.735  13.892  0.3810 -0.2075 -0.1808
  752TIP3    H126451   5.844   6.689  13.870  0.4021  0.2356 -1.2927
  752TIP3    H226452   5.988   6.666  13.911 -0.2597 -0.5530  0.7097
  753TIP3   OH226453   2.647   2.175  15.720 -0.0310  0.0257  0.2209
  753TIP3    H126454   2.606   2.228  15.652 -1.1803  0.0818  0.9313
  753TIP3    H226455   2.580   2.112  15.745  1.3705 -1.9526 -0.7482
  754TIP3   OH226456   2.576   5.847  14.898  0.0407  0.0345 -0.0146
  754TIP3    H126457   2.583   5.753  14.877  0.2215 -0.1862  0.9761
  754TIP3    H226458   2.644   5.861  14.964  1.0063  1.1934 -1.2281
  755TIP3   OH226459   4.575   4.648  14.160 -0.2170  0.4838  0.5126
  755TIP3    H126460   4.509   4.702  14.203 -0.4483 -1.0329  2.1719
  755TIP3    H226461   4.530   4.568  14.136  0.4605  0.4065 -0.5737
  756TIP3   OH226462   5.675   1.540  13.950 -0.3009 -0.0757 -0.0624
  756TIP3    H126463   5.662   1.612  13.888  1.5602 -0.2985 -0.7734
  756TIP3    H226464   5.689   1.463  13.895  0.5588 -0.4359  0.6331
  757TIP3   OH226465   2.733   4.491  15.560 -0.5822  0.2923  0.1326
  757TIP3    H126466   2.650   4.508  15.516 -0.9304  0.9930  1.0293
  757TIP3    H226467   2.760   4.575  15.595 -1.0551 -0.4569  2.4774
  758TIP3   OH226468   0.450   4.675  16.841 -0.2822 -0.1457 -0.5308
  758TIP3    H126469   0.385   4.741  16.816  0.1731 -0.3599 -2.4641
  758TIP3    H226470   0.399   4.605  16.880 -1.1758 -0.0723 -1.5075
  759TIP3   OH226471   5.448   6.420  15.221 -0.8209  0.5430 -0.6299
  759TIP3    H126472   5.499   6.473  15.159 -0.1650  0.2525 -0.3486
  759TIP3    H226473   5.357   6.448  15.207 -0.9373 -0.6836 -2.9072
  760TIP3   OH226474   1.827   5.898  15.436  0.4769  0.3621 -0.1386
  760TIP3    H126475   1.899   5.961  15.438  0.8359  0.0332 -1.6177
  760TIP3    H226476   1.778   5.915  15.516 -0.0697  3.2246 -0.9705
  761TIP3   OH226477   5.022   1.693  15.214  0.1442  0.0419 -0.2383
  761TIP3    H126478   4.989   1.606  15.237  0.0009  0.8012  2.8452
  761TIP3    H226479   5.102   1.676  15.164 -1.5137 -1.7960 -2.4489
  762TIP3   OH226480   5.199   1.012  16.418 -0.3521  0.4229 -0.3485
  762TIP3    H126481   5.149   1.072  16.473 -0.3922  0.1723 -0.1098
  762TIP3    H226482   5.203   0.931  16.469 -1.0879 -0.0757 -1.0664
  763TIP3   OH226483   3.632   6.002  15.322  0.2899 -0.8366 -0.7109
  763TIP3    H126484   3.679   5.956  15.253  1.0726 -1.2466  0.0732
  763TIP3    H226485   3.700   6.038  15.378 -0.3230 -0.9085  0.1074
  764TIP3   OH226486   3.490   3.582  15.126  0.2295  0.4148 -0.5948
  764TIP3    H126487   3.563   3.620  15.077 -0.0464  0.4762 -0.9610
  764TIP3    H226488   3.523   3.497  15.155  0.6787  0.7149 -0.1887
  765TIP3   OH226489   0.002   5.952  14.118  0.0555  0.3161  0.4286
  765TIP3    H126490  -0.089   5.945  14.092 -0.5908 -0.0043  2.5361
  765TIP3    H226491  -0.001   5.960  14.214  2.1919  1.2259  0.4920
  766TIP3   OH226492   1.008   5.618  16.401 -0.8690 -0.2469  0.4970
  766TIP3    H126493   0.915   5.609  16.422 -0.5174 -0.6769  1.9714
  766TIP3    H226494   1.033   5.534  16.364 -0.7059 -0.6840  1.5909
  767TIP3   OH226495   5.569   0.666  14.768  0.1995 -0.2166 -0.2694
  767TIP3    H126496   5.521   0.618  14.701  0.2743  0.8092 -1.0764
  767TIP3    H226497   5.510   0.736  14.796  0.4231 -0.2267  0.2510
  768TIP3   OH226498   3.926   3.109  17.293  0.6506 -0.2412 -0.0576
  768TIP3    H126499   3.846   3.146  17.255  0.3579  1.3288  1.9163
  768TIP3    H226500   3.997   3.151  17.245  0.3036  0.2133 -0.1753
  769TIP3   OH226501   1.718   0.212  16.495 -0.4132 -0.2186 -0.1336
  769TIP3    H126502   1.732   0.155  16.419  1.1663  1.0937 -0.8769
  769TIP3    H226503   1.651   0.274  16.465 -1.0577 -0.7498  0.1719
  770TIP3   OH226504   1.092   3.878  16.830  0.0319  0.1234  0.9748
  770TIP3    H126505   1.069   3.969  16.811  1.0609 -0.1124 -1.8847
  770TIP3    H226506   1.028   3.826  16.782 -0.7082 -0.7190  2.8018
  771TIP3   OH226507   6.426   0.853  14.290  0.0162  0.3033  0.5634
  771TIP3    H126508   6.454   0.907  14.216  0.3817  1.2660  1.3821
  771TIP3    H226509   6.390   0.774  14.249  0.2158  0.8023 -0.6372
  772TIP3   OH226510   5.463   2.079  17.180  0.0862 -0.1238 -0.2281
  772TIP3    H126511   5.503   2.051  17.262 -0.6658 -0.3819  0.0582
  772TIP3    H226512   5.471   2.003  17.122 -1.2221 -0.6849  0.2841
  773TIP3   OH226513   2.237   0.486  16.853 -0.0203 -0.2894 -0.1587
  773TIP3    H126514   2.206   0.550  16.789 -0.4057  1.0381  1.2945
  773TIP3    H226515   2.157   0.456  16.896  0.1466 -1.8426 -0.8581
  774TIP3   OH226516   1.151   0.038  16.911  0.2369  0.1504  0.3848
  774TIP3    H126517   1.145   0.134  16.912 -0.0292  0.1421  1.7690
  774TIP3    H226518   1.244   0.019  16.918  0.3308  0.2975 -0.3857
  775TIP3   OH226519   4.379   1.090  17.005 -0.0140 -0.6026  0.4491
  775TIP3    H126520   4.368   1.183  17.025 -0.8519 -0.5763 -0.1152
  775TIP3    H226521   4.454   1.063  17.059  0.1388  0.3560  0.7348
  776TIP3   OH226522   1.178   1.052  15.226 -0.2581  0.1358  0.3771
  776TIP3    H126523   1.153   1.111  15.155  0.5708 -0.1890 -0.1939
  776TIP3    H226524   1.236   0.988  15.186  1.1402  0.5935  1.5299
  777TIP3   OH226525   5.271   6.178  17.082 -0.3228 -0.3235  0.1042
  777TIP3    H126526   5.314   6.201  17.000  1.3765  0.5137  1.1629
  777TIP3    H226527   5.343   6.152  17.140 -1.3076  0.4604  1.7509
  778TIP3   OH226528   3.779   1.518  15.120 -0.3037  0.0365 -0.6698
  778TIP3    H126529   3.716   1.542  15.188  0.3897  0.6727 -0.2376
  778TIP3    H226530   3.728   1.466  15.057 -0.8917 -0.8201  0.4725
  779TIP3   OH226531   3.622   4.086  14.990 -0.5182 -0.2197 -0.0308
  779TIP3    H126532   3.653   4.034  15.064 -0.9391  0.5831  0.7166
  779TIP3    H226533   3.652   4.037  14.913 -0.2792 -1.1842  0.6557
  780TIP3   OH226534   1.889   0.799  15.692  0.2863  0.1145  0.1078
  780TIP3    H126535   1.895   0.831  15.602  2.2576 -0.2635  0.0585
  780TIP3    H226536   1.890   0.703  15.684 -0.9841  0.0578  0.4723
  781TIP3   OH226537   0.872   6.029  13.757  0.0681  0.1303 -0.0415
  781TIP3    H126538   0.893   6.076  13.837 -1.2095 -0.2740  0.5685
  781TIP3    H226539   0.956   5.998  13.724  0.5409 -0.8291  1.8814
  782TIP3   OH226540   3.324   3.352  16.100 -0.1837 -0.0561  0.2956
  782TIP3    H126541   3.287   3.385  16.182 -1.0323 -0.2705  0.0077
  782TIP3    H226542   3.339   3.431  16.048 -0.4925  0.0176  0.3136
  783TIP3   OH226543   4.722   3.102  14.181  0.0285  0.3157  0.2091
  783TIP3    H126544   4.792   3.048  14.217 -0.0431  0.2120  0.1947
  783TIP3    H226545   4.699   3.162  14.251 -0.2582 -0.0298  0.4105
  784TIP3   OH226546   0.667   1.491  14.112  0.3269 -0.2645  0.2159
  784TIP3    H126547   0.637   1.468  14.200  0.5025  2.8096  1.1689
  784TIP3    H226548   0.587   1.502  14.062  0.2279 -3.4516 -0.5442
  785TIP3   OH226549   4.503   2.909  15.007  0.3622 -0.1547 -0.0074
  785TIP3    H126550   4.458   2.834  15.045  1.5732 -1.5282 -1.1882
  785TIP3    H226551   4.477   2.909  14.915  0.9847  0.4131 -0.1942
  786TIP3   OH226552   6.259   1.907  17.054 -0.1549 -0.7149  0.2439
  786TIP3    H126553   6.203   1.977  17.087 -0.5688 -0.7825 -0.3076
  786TIP3    H226554   6.255   1.916  16.959 -0.1368 -1.4248  0.1735
  787TIP3   OH226555   5.326   0.591  14.601  0.2554  0.0181 -0.2835
  787TIP3    H126556   5.342   0.511  14.551  2.2109  0.9741 -1.3006
  787TIP3    H226557   5.289   0.652  14.538  2.5330  1.1637 -0.6408
  788TIP3   OH226558   3.316   2.526  15.532 -0.2574  0.1581  0.2138
  788TIP3    H126559   3.230   2.488  15.512  0.6246 -1.3366 -1.0146
  788TIP3    H226560   3.363   2.456  15.578  0.4604  0.7911  0.4612
  789TIP3   OH226561   0.375   2.868  16.529  0.0561 -0.3587  0.0775
  789TIP3    H126562   0.295   2.900  16.489 -0.0239 -1.8049 -1.0193
  789TIP3    H226563   0.363   2.882  16.623 -1.0016  0.4170 -0.1522
  790TIP3   OH226564   6.120   1.629  14.682 -0.3425 -0.2468 -0.0653
  790TIP3    H126565   6.082   1.662  14.763 -0.3151 -0.4879  0.0488
  790TIP3    H226566   6.210   1.662  14.682 -0.8000  1.0915 -0.7820
  791TIP3   OH226567   5.050   2.014  16.460 -0.1985 -0.4216 -0.0608
  791TIP3    H126568   4.970   1.986  16.416 -1.0539  0.3257  0.9540
  791TIP3    H226569   5.068   1.944  16.523  0.6732 -1.1875 -1.1189
  792TIP3   OH226570   4.834   6.650  15.302 -0.7941 -0.5204  0.8246
  792TIP3    H126571   4.757   6.625  15.250 -1.6316  2.3727  0.5111
  792TIP3    H226572   4.817   6.613  15.388 -2.7228  0.2463  0.8327
  793TIP3   OH226573   5.564   2.831  16.964 -0.2255 -0.5264  0.4827
  793TIP3    H126574   5.567   2.914  17.011 -1.5624 -0.7305  0.9457
  793TIP3    H226575   5.471   2.812  16.952  0.0524 -0.9884 -1.3772
  794TIP3   OH226576   0.061   1.684  14.707  0.3044  0.0808  0.0488
  794TIP3    H126577  -0.019   1.674  14.656  0.4040 -1.6735  0.1611
  794TIP3    H226578   0.108   1.755  14.665 -0.1594 -0.5324 -1.5735
  795TIP3   OH226579   5.967   2.608  13.535 -0.0133  0.0137  0.0216
  795TIP3    H126580   5.923   2.558  13.466  0.0744 -1.0228  0.6995
  795TIP3    H226581   5.939   2.698  13.520 -0.0292 -0.1886 -1.3410
  796TIP3   OH226582   5.659   2.158  16.010  0.6811  0.3616  0.0254
  796TIP3    H126583   5.690   2.217  15.941 -0.0074  1.1970  0.4116
  796TIP3    H226584   5.724   2.088  16.013  0.5042  0.0764 -1.7642
  797TIP3   OH226585   4.794   1.775  16.958 -0.3291  0.1819  0.0173
  797TIP3    H126586   4.884   1.765  16.989 -0.6773  0.1385  1.0640
  797TIP3    H226587   4.780   1.870  16.958  0.0356  0.2437 -1.1200
  798TIP3   OH226588   0.771   2.375  15.229 -0.0157  0.0809 -0.8993
  798TIP3    H126589   0.691   2.420  15.201 -0.7403 -1.6579 -1.8222
  798TIP3    H226590   0.747   2.282  15.228  1.7048 -0.4077 -0.0764
  799TIP3   OH226591   4.796   4.057  17.097  0.3634 -0.2161 -0.0017
  799TIP3    H126592   4.710   4.049  17.138  0.5686  1.8581  0.9902
  799TIP3    H226593   4.779   4.104  17.015  0.6413  1.3041  0.7784
  800TIP3   OH226594   2.291   2.672  16.833  0.0573  0.9212 -0.1712
  800TIP3    H126595   2.250   2.753  16.861  0.4003  1.3436 -0.8546
  800TIP3    H226596   2.230   2.603  16.861 -0.4863  1.4462 -0.0369
  801TIP3   OH226597   3.184   4.854  13.867  0.7985  0.0133  0.4667
  801TIP3    H126598   3.106   4.849  13.811  0.7793  1.9164  0.2759
  801TIP3    H226599   3.255   4.878  13.808  1.3640 -0.7832  0.8023
  802TIP3   OH226600   1.314   0.158  13.638  0.0368 -0.1890 -0.0666
  802TIP3    H126601   1.308   0.139  13.732  0.7395 -1.1985 -0.2136
  802TIP3    H226602   1.223   0.170  13.611 -0.1083  1.4626  0.9833
  803TIP3   OH226603   4.752   1.013  14.195 -0.0681  1.0422 -0.3096
  803TIP3    H126604   4.725   1.086  14.140  0.3964 -0.2642 -2.3735
  803TIP3    H226605   4.840   0.992  14.164  0.2982  0.3826  1.1135
  804TIP3   OH226606   3.980   3.873  15.146  0.2305  0.6497 -0.0808
  804TIP3    H126607   4.040   3.802  15.169  0.9517  1.5789  0.9738
  804TIP3    H226608   3.974   3.868  15.050  1.3607  0.0391 -0.1419
  805TIP3   OH226609   3.400   2.769  14.388 -0.2172 -0.2759 -0.7246
  805TIP3    H126610   3.466   2.722  14.336 -0.0448 -0.4235 -0.3756
  805TIP3    H226611   3.444   2.849  14.416 -0.3729 -0.1068 -0.9682
  806TIP3   OH226612   0.288   2.292  16.219 -0.0484  0.0775  0.7055
  806TIP3    H126613   0.253   2.271  16.132  2.6584 -0.6196 -0.3416
  806TIP3    H226614   0.261   2.219  16.274  2.4071 -2.2476 -0.9057
  807TIP3   OH226615   3.187   2.716  14.563  0.6524  0.2550 -0.6113
  807TIP3    H126616   3.269   2.719  14.513  0.2188 -0.2052 -1.3652
  807TIP3    H226617   3.165   2.623  14.567 -0.8714  0.5161 -2.1399
  808TIP3   OH226618   1.086   4.263  15.599  0.1155  0.0913  0.2425
  808TIP3    H126619   1.105   4.332  15.536  0.4197 -0.9767 -0.8717
  808TIP3    H226620   1.145   4.192  15.575  0.0621 -0.4436  1.5863
  809TIP3   OH226621   0.722   2.342  16.127 -0.8019 -0.5345 -0.1149
  809TIP3    H126622   0.639   2.315  16.089 -0.7162 -0.3421 -0.4389
  809TIP3    H226623   0.757   2.407  16.067  0.4433 -1.8967 -0.9516
  810TIP3   OH226624   6.239   5.054   8.644  0.5231 -0.0661 -0.1631
  810TIP3    H126625   6.255   4.972   8.690 -2.7265 -0.3498  0.6935
  810TIP3    H226626   6.150   5.078   8.668  1.0709  3.3322 -1.0197
  811TIP3   OH226627   0.750   0.630  14.420 -0.0254 -0.4637 -0.1350
  811TIP3    H126628   0.699   0.558  14.457  0.1425 -0.3406  0.3541
  811TIP3    H226629   0.708   0.650  14.337 -1.1747  0.0644  0.5427
  812TIP3   OH226630   5.779   1.347  15.335 -0.0881  0.2789  0.9506
  812TIP3    H126631   5.727   1.266  15.334  1.2535 -0.6586 -1.2461
  812TIP3    H226632   5.749   1.395  15.258 -0.0950  1.3832  1.6243
  813TIP3   OH226633   4.684   6.389  16.685 -0.6382 -0.2252  0.1816
  813TIP3    H126634   4.628   6.447  16.735 -0.9950 -0.9530  0.6408
  813TIP3    H226635   4.767   6.436  16.677 -1.0899  0.5627  0.0863
  814TIP3   OH226636   0.370   2.199  14.110  0.2261 -0.2086  0.4304
  814TIP3    H126637   0.409   2.146  14.180 -0.1245 -0.6728  0.2809
  814TIP3    H226638   0.276   2.183  14.118  0.1941 -0.3596 -0.2183
  815TIP3   OH226639   4.193   4.898  14.545 -0.3441  0.2953  0.1350
  815TIP3    H126640   4.129   4.850  14.598 -0.0813 -1.5207 -1.1128
  815TIP3    H226641   4.147   4.919  14.464  0.0523  0.7505  0.0219
  816TIP3   OH226642   3.488   1.609  15.116 -0.0432 -0.0977  0.0390
  816TIP3    H126643   3.430   1.533  15.109 -1.3918  1.0618 -2.9034
  816TIP3    H226644   3.528   1.600  15.203  0.1801 -4.3220 -0.2594
  817TIP3   OH226645   6.003   1.034  14.589  0.6179  0.3746  0.1462
  817TIP3    H126646   6.029   1.124  14.609 -1.2570  1.3361 -1.3384
  817TIP3    H226647   6.078   0.996  14.544  0.9003  1.7238 -0.5780
  818TIP3   OH226648   5.402   5.271  15.120 -0.2728 -0.5335  0.4447
  818TIP3    H126649   5.442   5.323  15.189  1.2398 -1.7689  0.5666
  818TIP3    H226650   5.378   5.189  15.163 -0.9716 -0.6279 -0.1150
  819TIP3   OH226651   0.729   4.711  15.125 -0.0284 -0.3650 -0.0725
  819TIP3    H126652   0.795   4.665  15.072 -0.5402 -1.6272  0.3501
  819TIP3    H226653   0.648   4.702  15.075 -0.0600  0.4776 -0.1903
  820TIP3   OH226654   6.186   6.235  16.842  0.3776  0.3769  0.2456
  820TIP3    H126655   6.270   6.267  16.809  0.5006  1.1086  1.2109
  820TIP3    H226656   6.175   6.149  16.802  0.8984  0.8731 -1.0190
  821TIP3   OH226657   6.186   3.099  13.885  0.2489  0.1804 -0.0703
  821TIP3    H126658   6.240   3.039  13.936 -1.6415 -0.1673  1.6907
  821TIP3    H226659   6.110   3.047  13.859  0.1312  0.9615 -1.4132
  822TIP3   OH226660   1.662   2.952  16.900  0.6028  0.3391  0.7693
  822TIP3    H126661   1.696   3.023  16.846 -0.7932  0.7676  0.4163
  822TIP3    H226662   1.626   2.889  16.838  2.3663 -1.0382  1.0377
  823TIP3   OH226663   1.738   1.342  13.120 -0.7735 -0.0591 -0.3911
  823TIP3    H126664   1.688   1.424  13.117  1.8805  1.7236  0.3703
  823TIP3    H226665   1.716   1.303  13.205 -2.5016 -0.4971 -1.0080
  824TIP3   OH226666   3.844   6.099  16.779  0.4472 -0.0211  0.5364
  824TIP3    H126667   3.846   6.155  16.856 -0.8400  0.5904  0.1526
  824TIP3    H226668   3.813   6.156  16.708  1.6125 -0.5623 -0.4588
  825TIP3   OH226669   1.913   0.227  13.455 -0.1868 -0.0834  0.3888
  825TIP3    H126670   1.932   0.193  13.368 -1.0574 -1.0122  0.5497
  825TIP3    H226671   1.927   0.152  13.514 -2.7322 -0.4251  0.6837
  826TIP3   OH226672   1.558   4.686  15.138 -0.1978  0.0857  0.7830
  826TIP3    H126673   1.530   4.596  15.158 -1.1317  0.0895 -0.4429
  826TIP3    H226674   1.480   4.728  15.103  0.3937  1.2232  0.8071
  827TIP3   OH226675   1.798   0.163  14.560  0.2514  0.2513 -0.2162
  827TIP3    H126676   1.769   0.244  14.602 -0.3923  0.4837 -1.0700
  827TIP3    H226677   1.845   0.115  14.628  1.6771  1.8648  0.0007
  828TIP3   OH226678   2.141   5.940  14.995  0.1529 -0.1568  0.3691
  828TIP3    H126679   2.198   5.874  15.035  0.1636 -0.8083 -0.6888
  828TIP3    H226680   2.103   5.896  14.919  1.4710  1.5544 -1.3798
  829TIP3   OH226681   3.103   1.050  15.825  0.4112  0.0467 -0.2008
  829TIP3    H126682   3.020   1.010  15.853 -0.4508  0.6525 -1.8000
  829TIP3    H226683   3.092   1.065  15.732  1.6527  1.7998 -0.0972
  830TIP3   OH226684   1.486   3.040  14.589  0.0994 -0.3651 -0.2400
  830TIP3    H126685   1.507   2.947  14.597 -0.8791 -0.4241  2.6584
  830TIP3    H226686   1.420   3.056  14.657  1.5623  2.8265  0.6107
  831TIP3   OH226687   1.927   3.075  15.196  0.2415  0.6402  0.1743
  831TIP3    H126688   1.927   2.993  15.147 -1.3474  0.8451 -0.1985
  831TIP3    H226689   1.955   3.141  15.133  2.4340  0.3027  0.7082
  832TIP3   OH226690   1.320   1.777  15.471  0.2586 -0.0588  0.3926
  832TIP3    H126691   1.310   1.858  15.421 -1.2893 -0.0625  0.6382
  832TIP3    H226692   1.234   1.763  15.510  0.9595 -0.9617  1.6838
  833TIP3   OH226693   1.572   2.022  14.906 -0.0905  0.6252 -0.2021
  833TIP3    H126694   1.493   1.998  14.954  0.2106 -1.5104 -0.6495
  833TIP3    H226695   1.641   1.968  14.945  0.9651  1.7200 -0.4762
  834TIP3   OH226696   1.732   5.004  13.961  0.3070  0.0704  0.0265
  834TIP3    H126697   1.776   5.076  14.005 -0.7959  0.5879  0.3096
  834TIP3    H226698   1.655   5.043  13.920  0.4783 -0.6836 -1.0691
  835TIP3   OH226699   0.925   5.698  17.396  0.0456  0.2806  0.1831
  835TIP3    H126700   0.943   5.652  17.478  2.3130  1.0003  0.1736
  835TIP3    H226701   1.001   5.679  17.341 -1.8210 -0.9109 -2.1549
  836TIP3   OH226702   5.729   4.211  15.609 -0.0124 -0.0972 -0.2196
  836TIP3    H126703   5.679   4.254  15.539 -0.3676 -0.5817 -0.2691
  836TIP3    H226704   5.814   4.254  15.608  0.8090 -1.6250 -2.4698
  837TIP3   OH226705   5.136   4.997  14.656 -0.5725 -0.1139 -0.3953
  837TIP3    H126706   5.142   5.009  14.561 -0.5585  1.8047 -0.1950
  837TIP3    H226707   5.167   5.080  14.692  0.6692 -1.2614  1.3317
  838TIP3   OH226708   3.470   0.331  16.405  0.6426 -0.0778  0.3123
  838TIP3    H126709   3.564   0.326  16.390  0.7805  0.4373  0.9421
  838TIP3    H226710   3.438   0.394  16.340  0.6277 -0.7219 -0.3142
  839TIP3   OH226711   4.368   2.491  15.677  0.5967  1.1608 -0.5914
  839TIP3    H126712   4.390   2.517  15.766 -0.4320 -0.5681  0.2084
  839TIP3    H226713   4.453   2.474  15.636  1.0467  0.5044  0.5490
  840TIP3   OH226714   6.083   3.335  13.806 -0.1854  0.2261 -0.5134
  840TIP3    H126715   6.003   3.295  13.771  0.1000 -0.4357 -0.4222
  840TIP3    H226716   6.138   3.261  13.832  0.2227  0.6852 -0.0417
  841TIP3   OH226717   0.942   0.736  14.855  0.2387  0.6796 -0.1343
  841TIP3    H126718   0.847   0.749  14.852  0.1823  0.5546  0.8713
  841TIP3    H226719   0.973   0.774  14.773 -0.6484  1.0141 -0.3347
  842TIP3   OH226720   0.638   4.696  16.400 -0.2473 -0.1433  0.2733
  842TIP3    H126721   0.711   4.708  16.339  1.0064 -0.1790  1.6937
  842TIP3    H226722   0.599   4.782  16.408 -0.2321 -0.0736 -0.3372
  843TIP3   OH226723   4.217   1.171  13.862  0.0797 -0.4328  0.8337
  843TIP3    H126724   4.246   1.149  13.951 -0.0603  2.2899  1.6305
  843TIP3    H226725   4.126   1.196  13.872  0.1940  0.3574  0.0031
  844TIP3   OH226726   6.449   3.412  15.147 -0.0299 -0.4902 -0.5320
  844TIP3    H126727   6.529   3.395  15.097 -0.0005  0.8041 -0.9479
  844TIP3    H226728   6.457   3.355  15.224  1.2417 -0.4631 -0.6148
  845TIP3   OH226729   0.155   3.358  15.809  0.5685 -0.1436  0.2463
  845TIP3    H126730   0.073   3.320  15.779  0.6842  0.3267 -0.7172
  845TIP3    H226731   0.157   3.340  15.903 -0.6598 -0.1088  0.2994
  846TIP3   OH226732   2.821   6.622  15.797  0.0907  0.5602  0.1914
  846TIP3    H126733   2.766   6.586  15.728  0.2064  0.8978 -0.0780
  846TIP3    H226734   2.906   6.580  15.784 -0.5682 -1.4189  1.7574
  847TIP3   OH226735   2.909   1.833  16.056  0.1088 -0.2970  0.1730
  847TIP3    H126736   2.912   1.738  16.044 -0.4554 -0.4096  0.8918
  847TIP3    H226737   2.817   1.856  16.048  0.1351  0.0698  0.8932
  848TIP3   OH226738   5.979   0.856  15.554  0.1780  0.7379 -0.1327
  848TIP3    H126739   5.887   0.874  15.570 -0.1002 -0.9285  0.2210
  848TIP3    H226740   5.990   0.870  15.460 -0.3459  1.2585 -0.1227
  849TIP3   OH226741   4.409   0.668  14.097  0.3795  0.1508  0.3070
  849TIP3    H126742   4.387   0.749  14.143  0.4137 -0.3980  1.3245
  849TIP3    H226743   4.374   0.680  14.009 -1.9941  0.2222  1.1975
  850TIP3   OH226744   3.113   3.278  15.044 -0.3110 -0.1082 -0.3161
  850TIP3    H126745   3.067   3.289  15.127  1.7329  1.5299  0.6676
  850TIP3    H226746   3.192   3.230  15.066 -0.1277 -0.3842 -1.4780
  851TIP3   OH226747   3.286   3.999  15.475 -0.0757  0.3051  0.2385
  851TIP3    H126748   3.345   4.023  15.404 -0.7985  2.7809  0.3734
  851TIP3    H226749   3.344   3.974  15.547  0.6874 -0.9332 -0.7771
  852TIP3   OH226750   0.482   2.240  14.907  0.5785 -0.4288  0.0325
  852TIP3    H126751   0.515   2.156  14.877  0.8225 -0.8619  1.4103
  852TIP3    H226752   0.405   2.218  14.960 -0.8482  0.4232 -1.5754
  853TIP3   OH226753   2.070   1.822  17.060  0.1680 -0.5895  0.0311
  853TIP3    H126754   2.116   1.745  17.094  0.2534  0.7629  3.3372
  853TIP3    H226755   1.998   1.837  17.121  0.1441  1.9338 -0.5002
  854TIP3   OH226756   4.078   0.435  15.256 -0.7115 -0.3014  0.6481
  854TIP3    H126757   4.144   0.401  15.317  0.5660  1.2884  0.2335
  854TIP3    H226758   4.017   0.484  15.311  0.1596  0.7115  0.7614
  855TIP3   OH226759   5.489   6.366  16.060  0.3529  0.4718 -0.5514
  855TIP3    H126760   5.548   6.298  16.093  0.6545 -0.1852 -2.3190
  855TIP3    H226761   5.401   6.330  16.073  0.2768  1.3336  1.8287
  856TIP3   OH226762   3.102   0.195  14.737 -0.0492  0.3982  0.5182
  856TIP3    H126763   3.120   0.157  14.823  0.0010  2.0942  1.3191
  856TIP3    H226764   3.009   0.178  14.723  0.5814 -2.5961 -0.5712
  857TIP3   OH226765   6.123   3.607  13.769 -0.0347  0.0708 -0.0019
  857TIP3    H126766   6.127   3.518  13.803 -1.8884  0.3056  0.9268
  857TIP3    H226767   6.106   3.596  13.675  2.4527 -0.5338 -0.4638
  858TIP3   OH226768   1.120   2.668  16.922  0.0344  0.1655  0.0060
  858TIP3    H126769   1.031   2.692  16.897 -0.3825  0.5987  1.7671
  858TIP3    H226770   1.170   2.748  16.913  0.4207 -0.2251 -1.5942
  859TIP3   OH226771   1.817   3.308  14.996 -0.4763 -0.1356  0.7000
  859TIP3    H126772   1.780   3.223  14.971  0.1905 -0.6675  1.4494
  859TIP3    H226773   1.895   3.318  14.941  1.0328 -1.3408  2.4805
  860TIP3   OH226774   3.594   1.810  13.880  0.0953  0.4956  0.2778
  860TIP3    H126775   3.544   1.794  13.960 -0.1666  1.6860  0.3773
  860TIP3    H226776   3.683   1.827  13.909 -0.3415  2.6775  0.5253
  861TIP3   OH226777   4.650   0.949  16.358 -0.1825 -0.1407  0.4940
  861TIP3    H126778   4.713   0.907  16.415  0.7592  2.1933  1.2929
  861TIP3    H226779   4.703   1.000  16.296 -1.2426 -0.1557 -0.4666
  862TIP3   OH226780   0.890   4.820  14.477  0.2630  0.7767  0.4260
  862TIP3    H126781   0.959   4.772  14.523  0.4522  0.2681 -0.3741
  862TIP3    H226782   0.871   4.895  14.534  1.9184  1.2701  0.3823
  863TIP3   OH226783   4.526   5.342  16.642  0.0621 -0.2063  0.5263
  863TIP3    H126784   4.599   5.376  16.590 -0.8204  0.0100 -0.6206
  863TIP3    H226785   4.517   5.404  16.714 -0.5625  1.1969 -0.7068
  864TIP3   OH226786   3.121   6.525  15.176  0.9401  0.2769 -0.5185
  864TIP3    H126787   3.212   6.500  15.187  1.2492  1.2971 -0.7173
  864TIP3    H226788   3.109   6.537  15.082  0.2175 -1.2142 -0.6499
  865TIP3   OH226789   1.408   5.576  15.629 -0.3710  0.0409 -0.3086
  865TIP3    H126790   1.312   5.575  15.632 -0.3505 -0.1255  0.5227
  865TIP3    H226791   1.433   5.647  15.688 -0.0064  1.1088 -1.6884
  866TIP3   OH226792   2.362   1.547  16.353  0.1057  0.2248  0.0473
  866TIP3    H126793   2.399   1.600  16.424  1.0224 -1.3431  0.7791
  866TIP3    H226794   2.437   1.516  16.304 -0.4261 -0.2970 -0.4541
  867TIP3   OH226795   1.998   0.452  14.707 -0.6821  0.3708  0.0228
  867TIP3    H126796   2.000   0.395  14.784  2.3489  0.0797 -0.1708
  867TIP3    H226797   2.012   0.393  14.633 -0.4278  1.0332 -0.4656
  868TIP3   OH226798   1.406   3.603  14.950  0.1623  0.2770  0.2314
  868TIP3    H126799   1.405   3.697  14.969 -1.4976  0.3528 -0.0802
  868TIP3    H226800   1.353   3.564  15.020  0.9048 -0.4546  0.4034
  869TIP3   OH226801   5.181   2.878  16.566  0.4691  0.0735  0.2007
  869TIP3    H126802   5.207   2.810  16.627  0.8756  0.2933  0.2752
  869TIP3    H226803   5.113   2.838  16.512  0.0663 -0.1028  0.8356
  870TIP3   OH226804   5.697   3.377  16.479  0.4429 -0.2768 -0.0035
  870TIP3    H126805   5.629   3.439  16.453 -1.1748 -2.2777 -0.8129
  870TIP3    H226806   5.779   3.419  16.453 -0.5682  1.5528 -0.4080
  871TIP3   OH226807   0.722   0.195  15.878  0.0601 -0.1754  0.0771
  871TIP3    H126808   0.712   0.104  15.849  3.1357 -1.1911  1.7699
  871TIP3    H226809   0.689   0.195  15.968  3.5772 -0.7225  1.4974
  872TIP3   OH226810   5.341   5.946  16.559  0.7119  0.0438 -0.3106
  872TIP3    H126811   5.253   5.965  16.591  1.0605  1.7396 -0.2617
  872TIP3    H226812   5.332   5.863  16.512 -1.0687  0.5450 -0.9457
  873TIP3   OH226813   3.997   3.748  15.507 -0.0884 -0.0513 -0.3980
  873TIP3    H126814   3.957   3.834  15.501  0.3589  0.1182 -1.0041
  873TIP3    H226815   4.086   3.765  15.535  0.2195 -0.2545 -1.2283
  874TIP3   OH226816   5.840   0.864  16.611  0.0227  0.0750  0.3491
  874TIP3    H126817   5.866   0.817  16.690 -0.3020 -3.0192 -1.2300
  874TIP3    H226818   5.896   0.828  16.542 -2.5167 -0.4955 -1.5596
  875TIP3   OH226819   3.475   6.547  14.247  0.3868 -0.0016  0.4837
  875TIP3    H126820   3.539   6.618  14.254  0.0928  0.3102  0.0520
  875TIP3    H226821   3.512   6.488  14.181  0.5433 -0.1573  0.7095
  876TIP3   OH226822   0.943   3.126  16.873  0.5387 -0.1466 -0.2306
  876TIP3    H126823   0.969   3.150  16.784 -0.7134  0.5329 -0.4312
  876TIP3    H226824   1.019   3.149  16.927  0.9831  0.2496 -1.0107
  877TIP3   OH226825   6.030   6.662  15.988  0.2345  0.3156  0.1168
  877TIP3    H126826   6.055   6.653  15.896  0.9334 -0.2332  0.3554
  877TIP3    H226827   5.974   6.739  15.990  1.0211  0.9227 -0.6042
  878TIP3   OH226828   6.297   0.832  15.727  0.2718  0.5228  0.1036
  878TIP3    H126829   6.375   0.803  15.680  0.3359 -0.4129  0.7565
  878TIP3    H226830   6.239   0.866  15.658 -0.1779 -2.0154 -0.8872
  879TIP3   OH226831   4.735   3.191  16.449  0.0929 -0.8420 -0.0130
  879TIP3    H126832   4.768   3.276  16.479 -0.2686 -0.6710 -0.1022
  879TIP3    H226833   4.645   3.208  16.422  0.4919 -0.9045 -1.5265
  880TIP3   OH226834   0.434   6.424  17.169 -0.0209  0.3105  0.1871
  880TIP3    H126835   0.525   6.449  17.154 -0.4588  1.4437 -0.7340
  880TIP3    H226836   0.418   6.444  17.261  0.3345  1.2183  0.0583
  881TIP3   OH226837   4.844   3.470  13.917 -0.2213 -0.1130 -0.1443
  881TIP3    H126838   4.862   3.378  13.934  1.7869  0.5889  2.1845
  881TIP3    H226839   4.924   3.504  13.877 -0.7978  0.6985 -0.6452
  882TIP3   OH226840   3.973   0.305  16.984  0.1344 -0.2699  0.8355
  882TIP3    H126841   3.913   0.352  17.042  0.8378  1.1275  0.4647
  882TIP3    H226842   3.918   0.238  16.943 -0.7904 -0.0854  1.7267
  883TIP3   OH226843   5.493   3.573  16.397  0.2864  0.0703  0.0540
  883TIP3    H126844   5.543   3.647  16.430  2.4619 -0.9682 -0.6788
  883TIP3    H226845   5.428   3.612  16.338  0.8408  1.4324  0.3026
  884TIP3   OH226846   5.211   0.255  16.634 -0.8684  0.0560  0.3796
  884TIP3    H126847   5.194   0.166  16.602  0.2781  0.6479 -2.0789
  884TIP3    H226848   5.303   0.253  16.660 -0.9788  0.4121  0.8045
  885TIP3   OH226849   1.935   6.488  14.248 -0.4841  0.1585  0.1815
  885TIP3    H126850   1.847   6.497  14.212 -0.8403  0.1937  1.0357
  885TIP3    H226851   1.929   6.413  14.306  0.3071 -0.4363 -0.4896
  886TIP3   OH226852   1.788   5.056  14.556 -0.3113  0.3722 -0.4554
  886TIP3    H126853   1.805   5.126  14.491 -0.2461 -0.4184 -1.3123
  886TIP3    H226854   1.697   5.031  14.541 -0.2676  0.1233 -0.2992
  887TIP3   OH226855   3.254   6.196  14.452 -0.3875 -0.0388 -0.2759
  887TIP3    H126856   3.300   6.244  14.522 -2.0347 -0.7923  1.4141
  887TIP3    H226857   3.323   6.147  14.408  0.6146 -0.3100  1.4759
  888TIP3   OH226858   5.375   1.119  16.687 -0.2210  0.1314  0.4060
  888TIP3    H126859   5.280   1.103  16.683 -0.2425  0.3075  0.2213
  888TIP3    H226860   5.407   1.056  16.752 -0.3797 -0.3274  0.0384
  889TIP3   OH226861   6.360   5.864  14.864  0.2929  0.1238  0.3552
  889TIP3    H126862   6.434   5.859  14.804 -0.0097 -2.5623  0.0758
  889TIP3    H226863   6.304   5.933  14.829  2.4003  1.8990  0.3281
  890TIP3   OH226864   4.531   0.252  17.106 -0.3800  0.3312  0.6822
  890TIP3    H126865   4.536   0.158  17.086  1.3190  0.4406  0.4836
  890TIP3    H226866   4.452   0.281  17.060 -0.7069 -0.9084  0.4025
  891TIP3   OH226867   4.734   0.285  14.179  0.0543  0.0327  0.3562
  891TIP3    H126868   4.761   0.289  14.087 -0.2771  0.2827  0.2665
  891TIP3    H226869   4.673   0.358  14.188 -3.8864 -2.8261 -0.5115
  892TIP3   OH226870   1.224   2.917  14.360  0.0946  0.3988  0.3032
  892TIP3    H126871   1.165   2.871  14.300  1.7570 -0.3242 -0.8941
  892TIP3    H226872   1.213   2.872  14.444  0.9353 -1.6336 -0.5923
  893TIP3   OH226873   5.645   6.191  16.270  0.3008 -0.3552  0.1403
  893TIP3    H126874   5.617   6.170  16.359  1.3339  1.3187  0.8997
  893TIP3    H226875   5.652   6.106  16.227 -4.6275 -1.1023  0.1730
  894TIP3   OH226876   4.180   2.477  15.093 -0.2011  0.1759  0.4723
  894TIP3    H126877   4.093   2.491  15.055  0.6919 -1.2645 -2.4581
  894TIP3    H226878   4.174   2.391  15.135 -0.1131 -0.0883 -0.0502
  895TIP3   OH226879   2.522   6.405  13.044 -0.3887 -0.3923  0.3855
  895TIP3    H126880   2.507   6.336  12.980 -3.1631 -0.6134  1.1360
  895TIP3    H226881   2.541   6.359  13.125  0.8640 -0.1575  0.2477
  896TIP3   OH226882   5.190   4.302  16.055  0.3261 -0.5143  0.1162
  896TIP3    H126883   5.140   4.291  16.137 -0.9027 -0.5911 -0.6133
  896TIP3    H226884   5.170   4.223  16.005  1.8509 -0.9248  0.1167
  897TIP3   OH226885   6.598   3.444  16.892  0.0039 -0.4820  0.2372
  897TIP3    H126886   6.556   3.413  16.973 -1.0233 -0.8821 -0.4369
  897TIP3    H226887   6.644   3.523  16.918  0.0126 -0.8184  1.3048
  898TIP3   OH226888   0.548   3.062  15.832 -0.2869  0.1108 -0.0176
  898TIP3    H126889   0.562   2.972  15.860 -1.4109  0.0138  0.2993
  898TIP3    H226890   0.538   3.056  15.736 -0.9363 -0.1986  0.0599
  899TIP3   OH226891   4.474   2.217  16.719 -0.3597 -0.0675  0.1487
  899TIP3    H126892   4.506   2.306  16.704 -1.0209 -0.1794 -2.2909
  899TIP3    H226893   4.422   2.223  16.799 -1.0777  1.9490 -0.4163
  900TIP3   OH226894   6.611   6.063  15.376 -0.1224 -0.2368  0.1669
  900TIP3    H126895   6.624   6.100  15.463  0.6904  0.6197 -0.3032
  900TIP3    H226896   6.516   6.063  15.364 -0.2352 -0.2771  1.0132
  901TIP3   OH226897   4.760   4.397  14.392 -0.1609 -0.3207 -0.7404
  901TIP3    H126898   4.768   4.490  14.371  2.2068 -0.6332 -1.5126
  901TIP3    H226899   4.692   4.365  14.333 -2.2997  1.2006  0.7498
  902TIP3   OH226900   2.335   2.384  15.882 -0.8072 -0.4573 -0.1246
  902TIP3    H126901   2.269   2.449  15.905 -2.2457 -1.1728 -1.8580
  902TIP3    H226902   2.361   2.344  15.965  0.4791  2.5554  1.0402
  903TIP3   OH226903   3.856   6.678  16.703 -0.3875 -0.3834  0.3996
  903TIP3    H126904   3.782   6.704  16.757  0.1821  0.8891  0.6150
  903TIP3    H226905   3.900   6.760  16.683  1.5523 -1.1974  1.1288
  904TIP3   OH226906   6.351   4.599  15.677 -0.1368  0.5745  0.3898
  904TIP3    H126907   6.336   4.641  15.761 -0.7188  0.2388  0.4565
  904TIP3    H226908   6.442   4.568  15.681 -0.1014  0.7356  0.8139
  905TIP3   OH226909   2.187   6.659  12.895 -0.2478  0.3657  0.0507
  905TIP3    H126910   2.266   6.664  12.841  0.9301  2.6708  1.8389
  905TIP3    H226911   2.132   6.731  12.864 -1.6721 -1.1197 -1.0737
  906TIP3   OH226912   0.567   4.417  14.704 -0.1324 -0.4208 -0.4122
  906TIP3    H126913   0.494   4.461  14.749  0.1312 -0.4032  0.0049
  906TIP3    H226914   0.538   4.326  14.696  0.0037 -0.5179  0.1915
  907TIP3   OH226915   5.253   4.304  15.737  0.7950 -0.4344  0.4788
  907TIP3    H126916   5.299   4.233  15.692  2.9446  1.0968  0.0628
  907TIP3    H226917   5.312   4.328  15.808 -0.9775 -0.5492  2.0460
  908TIP3   OH226918   0.476   1.135  14.436 -0.1022  0.1198 -0.0505
  908TIP3    H126919   0.461   1.099  14.349 -0.0118  1.4014 -0.6202
  908TIP3    H226920   0.571   1.131  14.448 -0.1685 -0.6423  0.2613
  909TIP3   OH226921   0.404   6.135  15.933 -0.7209  0.9859  0.2687
  909TIP3    H126922   0.312   6.155  15.916 -1.3885 -0.3059  2.1400
  909TIP3    H226923   0.417   6.049  15.892 -0.8087  0.4271  1.3963
  910TIP3   OH226924   2.574   0.905  14.776  0.1278 -0.0096 -0.2544
  910TIP3    H126925   2.487   0.895  14.814  0.2433  0.9568  0.2938
  910TIP3    H226926   2.599   0.816  14.750 -0.1239 -0.6529  1.5493
  911TIP3   OH226927   1.778   0.026  14.062  0.2191 -0.1302 -0.2212
  911TIP3    H126928   1.726  -0.054  14.073  0.7551 -0.5365 -0.6517
  911TIP3    H226929   1.716   0.090  14.026 -0.6141  0.1249  1.5381
  912TIP3   OH226930   5.372   2.133  15.805 -0.2094  0.0393 -0.1717
  912TIP3    H126931   5.430   2.208  15.794 -0.1175 -0.0691 -0.4382
  912TIP3    H226932   5.428   2.056  15.792 -0.8070 -0.0768 -2.8025
  913TIP3   OH226933   2.847   0.308  14.141  0.3171  0.1337  0.1763
  913TIP3    H126934   2.767   0.359  14.155 -0.9026 -1.6956  0.2498
  913TIP3    H226935   2.877   0.334  14.054 -0.7625  0.3480 -0.1499
  914TIP3   OH226936   1.687   4.771  14.077  0.0622  0.3234 -0.1463
  914TIP3    H126937   1.612   4.729  14.035  1.0441 -0.6505 -0.9732
  914TIP3    H226938   1.709   4.844  14.019 -0.4141  0.8033  0.2598
  915TIP3   OH226939   5.780   0.504  16.633 -0.3698 -0.0863  0.2417
  915TIP3    H126940   5.686   0.486  16.641 -0.4833 -0.3434 -1.3499
  915TIP3    H226941   5.785   0.582  16.578  0.3248  1.2525  2.0623
  916TIP3   OH226942   2.706   2.657  15.229  0.1722 -0.1382  0.3622
  916TIP3    H126943   2.637   2.671  15.165  0.8563 -2.2704 -0.9426
  916TIP3    H226944   2.737   2.745  15.250 -0.3311  0.6729 -1.9783
  917TIP3   OH226945   2.418   1.030  15.344  0.6678 -0.9760  0.4106
  917TIP3    H126946   2.447   1.060  15.258 -0.1205 -2.0816 -0.2518
  917TIP3    H226947   2.499   1.023  15.395  1.0447  0.5732  0.0690
  918TIP3   OH226948   3.869   0.454  14.157 -0.0707 -0.5570 -0.3292
  918TIP3    H126949   3.812   0.400  14.102 -2.5645  2.7870 -1.3219
  918TIP3    H226950   3.813   0.483  14.229  0.7321  1.6874 -0.5439
  919TIP3   OH226951   5.740   4.282  15.307 -0.3084  0.2155 -0.3589
  919TIP3    H126952   5.753   4.364  15.353 -0.4848  0.3024 -0.4618
  919TIP3    H226953   5.665   4.241  15.350 -0.9916  0.6743 -1.0775
  920TIP3   OH226954   0.992   0.545  14.549  0.2623  0.1755 -0.6550
  920TIP3    H126955   0.921   0.482  14.534  0.5354 -0.8042  1.6266
  920TIP3    H226956   0.948   0.628  14.564 -0.3069 -0.1082 -0.7347
  921TIP3   OH226957   6.128   3.595  15.653  0.3253  0.8789  0.1545
  921TIP3    H126958   6.174   3.642  15.723 -1.6142  1.5344  1.0399
  921TIP3    H226959   6.113   3.507  15.689  1.5479  0.3840 -0.4631
  922TIP3   OH226960   3.338   1.217  13.756  0.8354 -0.0782 -0.0545
  922TIP3    H126961   3.271   1.285  13.757 -0.1047 -0.9735  0.2342
  922TIP3    H226962   3.326   1.172  13.672  0.2509 -1.0114  0.5124
  923TIP3   OH226963   1.731   3.182  16.747 -0.4434 -0.4408  0.2952
  923TIP3    H126964   1.713   3.240  16.821  1.3679  0.6808 -0.0923
  923TIP3    H226965   1.726   3.238  16.670  0.5044 -0.9749 -0.1758
  924TIP3   OH226966   0.879   0.590  16.700 -0.4737 -0.4249  0.4932
  924TIP3    H126967   0.860   0.666  16.645  2.3415 -0.6221 -0.9319
  924TIP3    H226968   0.894   0.627  16.787 -0.8035  0.4527  0.1851
  925TIP3   OH226969   3.769   0.909  15.072 -0.0547  0.0628 -0.0688
  925TIP3    H126970   3.722   0.950  14.999  0.3703 -1.0925 -1.0323
  925TIP3    H226971   3.705   0.905  15.142 -0.9862 -0.2399 -0.9085
  926TIP3   OH226972   6.615   3.518  15.591  0.1761 -0.0849  0.3566
  926TIP3    H126973   6.621   3.428  15.625 -1.7459 -0.5532 -0.4169
  926TIP3    H226974   6.521   3.535  15.585  0.5029  1.9636  0.3785
  927TIP3   OH226975   1.258   2.494  16.765 -0.3049  0.2635  0.3941
  927TIP3    H126976   1.203   2.540  16.829 -1.0591  0.5229 -0.4193
  927TIP3    H226977   1.344   2.489  16.806 -0.4860  1.4449  0.9517
  928TIP3   OH226978   5.137   5.520  15.233  0.8031  0.2023  0.3333
  928TIP3    H126979   5.205   5.505  15.298  1.1847 -1.1429 -0.3427
  928TIP3    H226980   5.127   5.615  15.231  1.1198  0.3099  1.9902
  929TIP3   OH226981   3.564   0.159  15.998  0.8394  0.4254  0.8582
  929TIP3    H126982   3.561   0.120  16.086 -0.3929 -1.5490  0.0148
  929TIP3    H226983   3.646   0.127  15.961  0.0435 -1.1226  0.3329
  930TIP3   OH226984   3.262   2.613  13.949  0.0536  0.0065 -0.1287
  930TIP3    H126985   3.247   2.696  13.903  0.6220 -0.3033 -0.8898
  930TIP3    H226986   3.355   2.596  13.938  0.2523  0.0284  1.3539
  931TIP3   OH226987   4.611   4.794  15.035 -0.0379 -0.6348 -0.5893
  931TIP3    H126988   4.565   4.712  15.019 -1.0524 -0.3386  0.6338
  931TIP3    H226989   4.592   4.815  15.127  2.6161 -0.5089 -0.0025
  932TIP3   OH226990   3.921   2.342  17.153  0.3724  0.1029 -0.2418
  932TIP3    H126991   3.880   2.285  17.218 -0.7037 -0.4607 -1.3737
  932TIP3    H226992   3.856   2.411  17.137 -0.2775 -0.9003 -2.1861
  933TIP3   OH226993   4.986   1.974  14.283  0.9911  0.0926  0.5072
  933TIP3    H126994   5.045   1.941  14.351  2.8663 -0.5330 -1.3260
  933TIP3    H226995   5.041   1.983  14.205 -0.9578  1.2484 -0.8368
  934TIP3   OH226996   3.428   0.381  16.677 -0.3252  0.2887  0.0508
  934TIP3    H126997   3.458   0.350  16.592 -0.2764  0.8271 -0.1366
  934TIP3    H226998   3.495   0.444  16.704 -0.4458  0.2710  0.3933
  935TIP3   OH226999   2.377   3.816  15.300 -0.2392 -0.0323 -0.6474
  935TIP3    H127000   2.306   3.752  15.295  0.6329 -1.1429  0.4849
  935TIP3    H227001   2.444   3.781  15.241 -0.6124  1.0469 -1.7679
  936TIP3   OH227002   1.974   3.663  15.076  0.3178 -0.7626 -0.1941
  936TIP3    H127003   1.907   3.621  15.129 -0.0240 -0.7583 -0.6115
  936TIP3    H227004   1.953   3.756  15.080 -2.1373 -0.9851 -3.4565
  937TIP3   OH227005   0.008   6.660  15.825  0.0972  0.5380 -0.0556
  937TIP3    H127006  -0.083   6.636  15.808  0.3872 -0.3588 -0.4191
  937TIP3    H227007   0.013   6.668  15.920 -0.4270  0.8819 -0.0538
  938TIP3   OH227008   3.067   5.829  15.862 -0.5330  0.3169  0.0992
  938TIP3    H127009   3.039   5.911  15.902 -1.4763 -0.4515  1.0989
  938TIP3    H227010   3.084   5.851  15.771 -1.4282  1.4774  0.1874
  939TIP3   OH227011   2.240   4.577  15.330  0.7135  0.3678 -0.5185
  939TIP3    H127012   2.247   4.537  15.417  1.7907 -1.0591 -1.2306
  939TIP3    H227013   2.168   4.640  15.339  1.0585  0.5472  1.5049
  940TIP3   OH227014   5.569   1.293  16.382  0.4202 -0.1141 -0.0968
  940TIP3    H127015   5.594   1.385  16.389  1.4621 -0.3866 -0.0836
  940TIP3    H227016   5.586   1.256  16.468  2.3721 -0.8678 -0.7631
  941TIP3   OH227017   5.081   1.387  15.712  0.3402  0.3737  0.1207
  941TIP3    H127018   5.098   1.424  15.799 -1.6147 -0.0023  0.7080
  941TIP3    H227019   4.992   1.416  15.690  0.3683 -0.4832 -1.2696
  942TIP3   OH227020   0.323   0.157  15.304  0.1532 -0.9317  0.1283
  942TIP3    H127021   0.250   0.195  15.353 -1.0224 -4.0987  1.1076
  942TIP3    H227022   0.399   0.168  15.361 -0.1794 -0.2126  0.4413
  943TIP3   OH227023   3.435   3.525  15.649 -0.2339  0.2031 -0.4371
  943TIP3    H127024   3.514   3.566  15.612  0.2422  0.6523  1.0020
  943TIP3    H227025   3.436   3.551  15.741 -1.9960  0.0776 -0.3506
  944TIP3   OH227026   2.061   4.993  16.207  0.3377  0.5606  0.3122
  944TIP3    H127027   2.061   4.978  16.301 -1.2044 -1.0802  0.1100
  944TIP3    H227028   2.139   4.947  16.175 -0.7909 -1.6455  0.5010
  945TIP3   OH227029   3.188   3.585  14.116 -0.0044 -0.1637  0.2514
  945TIP3    H127030   3.221   3.608  14.203  0.0195  1.1805 -0.0986
  945TIP3    H227031   3.100   3.552  14.131 -0.4145  1.0778  0.7060
  946TIP3   OH227032   5.067   3.554  13.779 -0.8038  0.3566 -0.4710
  946TIP3    H127033   5.125   3.481  13.801 -0.7882  0.4340 -0.2538
  946TIP3    H227034   5.022   3.526  13.699 -3.0876 -1.2077  1.2449
  947TIP3   OH227035   1.131   0.678  13.769  0.3645 -0.3444 -0.6005
  947TIP3    H127036   1.222   0.672  13.798 -0.4062 -1.0084  1.9121
  947TIP3    H227037   1.112   0.593  13.730 -0.2213 -1.7320  2.4381
  948TIP3   OH227038   4.593   1.158  16.115 -0.4446  0.7709  0.1330
  948TIP3    H127039   4.639   1.212  16.179 -0.7071  2.1025 -0.7852
  948TIP3    H227040   4.660   1.102  16.077 -0.1818  0.3928  1.1112
  949TIP3   OH227041   6.720   5.719  16.261  0.4231 -0.0223  0.1695
  949TIP3    H127042   6.653   5.758  16.318  0.3031 -0.0507  0.0490
  949TIP3    H227043   6.717   5.626  16.282 -1.5826 -0.5076 -1.8448
  950TIP3   OH227044   0.998   6.070  17.061 -0.5183  0.4281  0.6007
  950TIP3    H127045   0.933   6.097  17.126  0.1695 -1.4709  2.1705
  950TIP3    H227046   0.978   5.978  17.045 -1.5274  1.1364 -3.0185
  951TIP3   OH227047   3.973   2.246  16.706  0.5719 -0.1022 -0.4381
  951TIP3    H127048   4.060   2.238  16.667 -0.3828  0.1746 -2.8439
  951TIP3    H227049   3.952   2.339  16.698 -0.4945 -0.3887 -1.2828
  952TIP3   OH227050   2.985   1.710  14.401 -0.2488 -0.4718 -0.7137
  952TIP3    H127051   2.953   1.659  14.326 -2.0920 -0.9168  0.3106
  952TIP3    H227052   2.924   1.784  14.406  0.2377 -0.1082 -0.0300
  953TIP3   OH227053   3.155   3.785  13.885  0.0467 -0.0379  0.1932
  953TIP3    H127054   3.172   3.821  13.972 -1.1698 -1.8676  1.2413
  953TIP3    H227055   3.239   3.747  13.858  0.5917  1.0697  0.2595
  954TIP3   OH227056   4.945   3.148  16.223 -0.4931  0.1357 -0.5100
  954TIP3    H127057   4.886   3.073  16.210 -0.6586 -0.2009  1.7274
  954TIP3    H227058   5.030   3.109  16.241 -0.8544  0.3513  2.0168
  955TIP3   OH227059   4.296   6.023  15.729 -0.3315 -0.1094  1.1221
  955TIP3    H127060   4.374   6.022  15.785  0.2713 -0.3068  0.3111
  955TIP3    H227061   4.263   6.113  15.735  1.0439  0.5183  0.0632
  956TIP3   OH227062   4.582   2.847  14.064  0.3713 -0.2404  0.5658
  956TIP3    H127063   4.672   2.819  14.080  0.5845  0.5357  0.7894
  956TIP3    H227064   4.590   2.939  14.039 -0.4636  0.2204  1.8871
  957TIP3   OH227065   6.471   0.544  15.309 -0.4247 -0.6027 -0.1728
  957TIP3    H127066   6.530   0.591  15.250 -0.8370 -0.6197 -0.6045
  957TIP3    H227067   6.432   0.476  15.254 -0.1943 -1.1487  0.3233
  958TIP3   OH227068   1.674   0.698  15.978  0.2958 -0.0998  0.4067
  958TIP3    H127069   1.747   0.642  15.953  2.1143  1.9705  0.6837
  958TIP3    H227070   1.671   0.766  15.911 -1.4129 -0.1232  0.4047
  959TIP3   OH227071   4.998   1.649  14.832 -0.0877 -0.3070 -0.7635
  959TIP3    H127072   4.930   1.605  14.882 -0.5501  0.9616 -0.2395
  959TIP3    H227073   4.986   1.742  14.851  1.3691 -0.0041 -1.1851
  960TIP3   OH227074   4.200   4.404  16.005 -0.0502 -0.0211  0.4218
  960TIP3    H127075   4.172   4.367  16.089  2.2411 -0.9265  0.8780
  960TIP3    H227076   4.255   4.479  16.028  1.0251 -0.5852 -0.2102
  961TIP3   OH227077   1.485   5.955  16.432  0.5163  0.1378 -0.2067
  961TIP3    H127078   1.439   5.872  16.417 -0.1128  0.5332 -0.5117
  961TIP3    H227079   1.451   6.014  16.365 -0.7125  1.3034  1.3469
  962TIP3   OH227080   5.028   4.221  16.520  0.2234  0.6245 -0.2928
  962TIP3    H127081   5.110   4.232  16.473  1.5502 -1.7553  1.2884
  962TIP3    H227082   4.994   4.137  16.490  0.8976 -0.7706  2.4980
  963TIP3   OH227083   3.389   6.286  15.943  0.2952  0.4526 -0.2484
  963TIP3    H127084   3.331   6.279  15.867 -0.2600  0.7179  0.1472
  963TIP3    H227085   3.361   6.365  15.988 -0.7288 -0.7650  1.3522
  964TIP3   OH227086   5.144   6.592  15.580 -0.0806 -0.2022 -0.0017
  964TIP3    H127087   5.228   6.546  15.575 -0.7705 -1.3862 -1.3423
  964TIP3    H227088   5.079   6.526  15.556 -1.4823  0.5241  1.6110
  965TIP3   OH227089   3.921   3.230  15.358  0.3961  0.4049  0.2146
  965TIP3    H127090   3.906   3.214  15.451  2.9303  0.1070  0.6428
  965TIP3    H227091   3.880   3.156  15.314 -0.0386  0.0592  1.1664
  966TIP3   OH227092   2.574   1.658  13.163  0.5260 -0.0973 -0.0116
  966TIP3    H127093   2.517   1.612  13.102 -2.1399  2.6531  0.1818
  966TIP3    H227094   2.576   1.748  13.130  2.6956  0.4790  1.5009
  967TIP3   OH227095   1.671   4.531  16.199  0.0932 -0.3636  0.7004
  967TIP3    H127096   1.609   4.459  16.185 -0.2743 -0.2704  1.7595
  967TIP3    H227097   1.743   4.491  16.249  1.6504 -0.8255 -1.7160
  968TIP3   OH227098   2.088   0.242  14.530  0.1081 -0.5164  0.2691
  968TIP3    H127099   2.091   0.265  14.437  0.0898 -2.3627 -0.2245
  968TIP3    H227100   2.045   0.157  14.532 -1.7886  0.3967  2.1763
  969TIP3   OH227101   1.443   5.985  16.951  0.3460  0.3953  0.0174
  969TIP3    H127102   1.350   5.987  16.926  0.5426 -0.2301 -0.8291
  969TIP3    H227103   1.485   5.935  16.881  1.2030 -0.0054  0.8067
  970TIP3   OH227104   2.666   1.512  16.461 -0.6958  0.0001 -0.5528
  970TIP3    H127105   2.693   1.435  16.411  0.8252  0.8700 -1.1556
  970TIP3    H227106   2.748   1.551  16.492 -1.5015  0.5826  0.9915
  971TIP3   OH227107   0.480   4.364  15.988  0.2449 -0.1702 -0.0826
  971TIP3    H127108   0.494   4.295  15.923 -0.2150 -0.5905  0.2578
  971TIP3    H227109   0.463   4.316  16.070 -1.2821  0.3372 -0.0897
  972TIP3   OH227110   3.828   6.676  17.111 -0.3789  0.5655  0.1333
  972TIP3    H127111   3.738   6.671  17.078 -0.8958 -0.3860  1.5813
  972TIP3    H227112   3.879   6.710  17.037 -1.9527  1.3334 -0.6481
  973TIP3   OH227113   6.601   2.410  16.971  0.3944 -0.0239 -0.5729
  973TIP3    H127114   6.629   2.331  17.016  0.3120 -0.0026 -0.4837
  973TIP3    H227115   6.670   2.428  16.907  0.2578 -0.3473 -0.8135
  974TIP3   OH227116   3.590   0.649  14.419  0.1527 -0.0577 -0.3557
  974TIP3    H127117   3.509   0.662  14.370 -0.1759 -1.2450 -0.1664
  974TIP3    H227118   3.611   0.556  14.406  1.9015  0.3912 -1.0199
  975TIP3   OH227119   6.726   1.988  14.350 -1.0438  0.6065  0.3917
  975TIP3    H127120   6.753   1.948  14.267 -2.7412 -1.3735  0.7222
  975TIP3    H227121   6.804   1.982  14.406 -0.4345  0.2706 -0.4799
  976TIP3   OH227122   4.718   3.540  14.158  0.5351 -0.0307 -0.3406
  976TIP3    H127123   4.643   3.570  14.107  1.5208  1.1434 -1.1783
  976TIP3    H227124   4.785   3.521  14.093  0.7158 -1.8913  0.3383
  977TIP3   OH227125   4.566   4.236  14.250 -0.5487  0.2455  0.0336
  977TIP3    H127126   4.500   4.305  14.242 -0.5533  0.2589  0.1869
  977TIP3    H227127   4.548   4.177  14.177  0.1730  1.0168 -0.7883
  978TIP3   OH227128   2.214   5.371  13.406 -0.2011  0.2209  0.1920
  978TIP3    H127129   2.138   5.390  13.350  0.4065  0.9840 -0.3951
  978TIP3    H227130   2.219   5.447  13.465  1.6582  1.5387 -1.5199
  979TIP3   OH227131   2.435   4.425  15.923  0.1263 -0.0037 -0.0985
  979TIP3    H127132   2.475   4.357  15.867 -0.6062 -0.8171  0.3451
  979TIP3    H227133   2.470   4.507  15.889  0.9603 -0.5936 -0.7160
  980TIP3   OH227134   1.961   1.031  15.469  0.1888  0.2266  0.2985
  980TIP3    H127135   1.923   1.110  15.429  0.2564 -0.5706 -1.4274
  980TIP3    H227136   1.937   0.960  15.409  1.6272 -0.8005  0.8826
  981TIP3   OH227137   3.670   4.602  13.969  0.3206  0.4333 -0.1263
  981TIP3    H127138   3.762   4.607  13.945  0.2001 -0.3002 -0.7347
  981TIP3    H227139   3.645   4.511  13.955 -0.7491  0.8210 -0.8840
  982TIP3   OH227140   5.597   4.712  16.872 -0.5116  0.3528 -0.3202
  982TIP3    H127141   5.591   4.645  16.939  0.9402  2.2058  1.8282
  982TIP3    H227142   5.517   4.702  16.819 -1.0465 -2.0171  0.8360
  983TIP3   OH227143   1.586   0.953  15.780  0.0357 -0.0617  0.1094
  983TIP3    H127144   1.551   0.980  15.865 -2.0695  1.6242 -1.2022
  983TIP3    H227145   1.622   1.033  15.742 -0.8767 -0.3100 -1.3719
  984TIP3   OH227146   1.540   1.804  13.121  0.0171 -0.3398 -0.1881
  984TIP3    H127147   1.458   1.843  13.091 -1.1949  0.1858  3.2583
  984TIP3    H227148   1.584   1.874  13.169  2.7157 -0.5486 -2.1224
  985TIP3   OH227149   1.322   1.335  16.613  0.7134  0.2919  0.2652
  985TIP3    H127150   1.361   1.275  16.549  0.0435 -0.8562  0.9001
  985TIP3    H227151   1.341   1.296  16.698 -3.2491 -1.3795  0.6051
  986TIP3   OH227152   6.622   5.780  15.448  0.6169  0.2475 -0.7924
  986TIP3    H127153   6.622   5.854  15.387  0.2897  0.1946 -0.8571
  986TIP3    H227154   6.693   5.724  15.418  1.3551  0.9007 -0.3052
  987TIP3   OH227155   5.272   0.757  14.905 -0.1210 -0.4522 -0.3377
  987TIP3    H127156   5.289   0.763  14.811 -1.7099  1.3056 -0.5735
  987TIP3    H227157   5.338   0.813  14.945 -0.4346  0.1075 -0.5801
  988TIP3   OH227158   0.001   2.648  15.489  0.0802 -0.0362  0.0264
  988TIP3    H127159   0.045   2.580  15.439 -1.4757 -1.5495  0.5726
  988TIP3    H227160   0.028   2.632  15.580 -1.1221 -0.6761  0.3007
  989TIP3   OH227161   5.281   2.821  16.965 -0.1842  0.2936 -0.4084
  989TIP3    H127162   5.207   2.876  16.988 -0.5857  0.0780 -1.1439
  989TIP3    H227163   5.247   2.760  16.900  0.0605 -1.3041  0.8864
  990TIP3   OH227164   3.928   6.319  16.194  0.0370 -0.2452  0.2837
  990TIP3    H127165   3.989   6.269  16.141  0.8127 -0.5564  1.4301
  990TIP3    H227166   3.980   6.347  16.270 -0.7519  1.0852  0.3614
  991TIP3   OH227167   6.651   6.527  14.690  0.4678  0.5749 -0.2162
  991TIP3    H127168   6.745   6.532  14.671  0.7779  4.3921  1.4117
  991TIP3    H227169   6.646   6.474  14.770  0.7019 -2.8364 -2.3014
  992TIP3   OH227170   6.077   1.789  16.634  0.0500 -0.0059  0.4731
  992TIP3    H127171   6.092   1.739  16.553 -0.5534  1.0544 -0.3255
  992TIP3    H227172   6.156   1.842  16.644 -0.3322  0.6932 -0.0707
  993TIP3   OH227173   4.436   1.268  16.358 -0.1054 -0.6937  0.4291
  993TIP3    H127174   4.503   1.265  16.427 -0.6634 -0.6938  0.9852
  993TIP3    H227175   4.356   1.236  16.401 -0.6351  0.0093 -0.0175
  994TIP3   OH227176   2.303   6.684  14.598  0.0723  0.5378 -0.7653
  994TIP3    H127177   2.387   6.644  14.621 -0.5904  0.2066  1.2985
  994TIP3    H227178   2.300   6.681  14.503  2.7318  1.2708 -0.9618
  995TIP3   OH227179   1.620   5.866  14.471  0.5549  0.5855  0.2117
  995TIP3    H127180   1.593   5.929  14.537 -0.3533  1.0766 -0.5976
  995TIP3    H227181   1.637   5.919  14.392  1.0959 -0.0404 -0.1058
  996TIP3   OH227182   5.651   3.602  16.780  0.2589 -0.0533 -0.5357
  996TIP3    H127183   5.559   3.575  16.783 -0.3706  1.8777 -1.1675
  996TIP3    H227184   5.679   3.603  16.871 -0.8076  0.7816 -0.2004
  997TIP3   OH227185   4.552   1.385  14.659  0.6178 -0.1566 -0.2382
  997TIP3    H127186   4.485   1.454  14.660  0.8403  0.0596 -0.0695
  997TIP3    H227187   4.506   1.308  14.692  0.3991 -0.0579 -0.3057
  998TIP3   OH227188   6.004   4.299  15.527 -0.6610  0.7221 -0.4897
  998TIP3    H127189   6.095   4.317  15.551 -0.9956  0.0357  1.5197
  998TIP3    H227190   6.010   4.242  15.450  0.8606 -3.2116  2.2302
  999TIP3   OH227191   3.127   5.441  16.147 -0.3782 -0.4886  1.0266
  999TIP3    H127192   3.177   5.405  16.220  0.0719 -0.0661  0.9372
  999TIP3    H227193   3.185   5.507  16.109 -0.3203 -1.1792 -0.1407
 1000TIP3   OH227194   2.111   1.449  15.504  0.2562  0.2020  0.3985
 1000TIP3    H127195   2.197   1.478  15.535 -0.1596  2.0790 -0.0980
 1000TIP3    H227196   2.062   1.430  15.584  1.4095 -1.8677  0.6725
 1001TIP3   OH227197   3.538   2.540  13.907  0.3897 -0.4313  0.2763
 1001TIP3    H127198   3.523   2.541  13.812 -1.9761 -0.0477  0.5871
 1001TIP3    H227199   3.620   2.493  13.918  0.8190 -0.3342 -1.9693
 1002TIP3   OH227200   6.138   0.055  15.411  0.3389  0.0831 -0.1997
 1002TIP3    H127201   6.172   0.087  15.327  0.2756  0.3326 -0.1315
 1002TIP3    H227202   6.043   0.056  15.400  0.3376 -0.0834 -0.1981
 1003TIP3   OH227203   2.773   4.764  14.687 -0.0377  0.4353 -0.4812
 1003TIP3    H127204   2.682   4.791  14.698 -0.6822 -0.7063 -2.5436
 1003TIP3    H227205   2.789   4.705  14.761 -1.2833 -0.0862 -0.6146
 1004TIP3   OH227206   2.806   3.540  16.053 -0.0940 -0.5142  0.1849
 1004TIP3    H127207   2.768   3.575  16.134  0.6277 -0.6880  0.6113
 1004TIP3    H227208   2.875   3.481  16.083 -1.1592 -2.1916 -0.5108
 1005TIP3   OH227209   2.594   6.287  13.265 -0.0755  0.2636 -0.2384
 1005TIP3    H127210   2.527   6.268  13.330  1.1599 -0.0805  0.9723
 1005TIP3    H227211   2.613   6.380  13.276  3.7842 -0.6940  3.6350
 1006TIP3   OH227212   6.390   4.685  14.605 -0.6010 -0.5412  0.4767
 1006TIP3    H127213   6.354   4.662  14.519 -0.8270 -2.0470  0.9296
 1006TIP3    H227214   6.353   4.618  14.664  3.4740 -2.7370  0.8630
 1007TIP3   OH227215   1.628   6.487  14.191 -0.3083  0.2711 -0.1645
 1007TIP3    H127216   1.574   6.461  14.266 -0.5771  2.7787  0.5916
 1007TIP3    H227217   1.566   6.487  14.117 -1.0602  1.7313  0.4258
 1008TIP3   OH227218   1.175   4.027  14.384 -0.0202  0.3514 -0.2906
 1008TIP3    H127219   1.265   3.995  14.384  0.7444  2.3024 -0.6967
 1008TIP3    H227220   1.165   4.070  14.298 -0.9339  1.1528  0.1946
 1009TIP3   OH227221   6.573   5.812  14.670  0.1989 -0.2120  0.4573
 1009TIP3    H127222   6.546   5.839  14.582  0.5919  0.7189  0.6193
 1009TIP3    H227223   6.592   5.718  14.661 -1.1382 -0.4518 -0.1099
 1010TIP3   OH227224   1.786   2.400  16.419 -0.6360  0.0644  0.0565
 1010TIP3    H127225   1.738   2.455  16.358  1.5055  0.6262 -1.1995
 1010TIP3    H227226   1.873   2.390  16.381 -0.0317 -1.7790  1.7088
 1011TIP3   OH227227   3.340   2.721  15.915 -0.4300 -0.2817  0.3566
 1011TIP3    H127228   3.322   2.630  15.891 -0.4045 -0.3008  0.4096
 1011TIP3    H227229   3.427   2.739  15.880 -1.0008  0.1628 -0.8837
 1012TIP3   OH227230   4.650   1.924  14.804 -0.1711  0.0595 -0.0626
 1012TIP3    H127231   4.707   1.964  14.737  0.0107 -1.3529 -0.7885
 1012TIP3    H227232   4.696   1.939  14.886  0.8817 -0.3480 -0.5471
 1013TIP3   OH227233   2.604   4.259  16.650 -0.3541 -0.4449 -0.7277
 1013TIP3    H127234   2.694   4.281  16.673 -0.7545  1.7241 -1.0162
 1013TIP3    H227235   2.555   4.269  16.731 -0.5735 -0.1208 -0.8971
 1014TIP3   OH227236   2.750   6.115  16.591  0.8466 -0.5087  0.3069
 1014TIP3    H127237   2.744   6.022  16.570  0.8735 -0.9278  2.0025
 1014TIP3    H227238   2.664   6.138  16.625  1.0055 -0.0660  0.4207
 1015TIP3   OH227239   4.862   1.285  16.587  0.5350  0.1670  0.3004
 1015TIP3    H127240   4.957   1.275  16.580  0.4547 -0.4882  0.0077
 1015TIP3    H227241   4.839   1.240  16.668  0.7552  2.5882  1.8141
 1016TIP3   OH227242   0.674   5.916  16.535 -0.1926 -0.0128  0.5078
 1016TIP3    H127243   0.713   5.897  16.450 -0.6053  1.3990 -0.0293
 1016TIP3    H227244   0.725   5.989  16.570 -0.9750  0.4236  0.7687
 1017TIP3   OH227245   4.862   2.528  16.195  0.3169 -0.2932 -0.1728
 1017TIP3    H127246   4.953   2.519  16.223  0.2310  0.1966  0.2883
 1017TIP3    H227247   4.866   2.530  16.100  1.1202  2.6076 -0.1975
 1018TIP3   OH227248   0.496   4.669  14.965 -0.4752  0.0461  0.5749
 1018TIP3    H127249   0.448   4.749  14.944 -0.4192  0.2209  1.1063
 1018TIP3    H227250   0.463   4.604  14.904 -0.5842  0.4541  0.1966
 1019TIP3   OH227251   6.062   2.657  15.701 -0.3411  0.2242 -0.6426
 1019TIP3    H127252   6.132   2.701  15.748 -0.5964  0.5188 -0.5332
 1019TIP3    H227253   5.996   2.725  15.687 -1.2930 -0.3944  0.6256
 1020TIP3   OH227254   0.499   1.577  15.880 -0.2488 -0.2498  0.1209
 1020TIP3    H127255   0.497   1.536  15.794 -1.5002  0.3628 -0.1781
 1020TIP3    H227256   0.406   1.587  15.903  0.0217  1.8452  0.4353
 1021TIP3   OH227257   5.542   0.430  16.806  0.1312  0.1096  0.2131
 1021TIP3    H127258   5.501   0.447  16.721 -0.0582  1.6931  0.5837
 1021TIP3    H227259   5.530   0.336  16.821  0.3611 -0.2404 -1.5991
 1022TIP3   OH227260   0.899   0.520  13.829 -0.1786 -0.4684 -0.2595
 1022TIP3    H127261   0.985   0.561  13.833 -1.9415  3.6662  1.3058
 1022TIP3    H227262   0.860   0.553  13.748 -0.9493 -0.7842 -0.0314
 1023TIP3   OH227263   6.672   1.625  15.854 -0.3734 -0.0359  0.1919
 1023TIP3    H127264   6.665   1.546  15.800  0.4885 -1.6977  2.3479
 1023TIP3    H227265   6.722   1.686  15.801 -1.0779 -0.9005 -1.5533
 1024TIP3   OH227266   2.313   5.491  14.297 -0.1703 -0.4678  0.1996
 1024TIP3    H127267   2.379   5.441  14.343  0.5603 -0.9556 -1.3001
 1024TIP3    H227268   2.283   5.433  14.227 -0.9667  0.3633 -0.1747
 1025TIP3   OH227269   4.620   1.237  14.060  0.0147  0.2349 -0.2551
 1025TIP3    H127270   4.601   1.254  14.153  3.0802 -1.9140  0.9294
 1025TIP3    H227271   4.691   1.297  14.039  0.7890 -0.7454 -0.5137
 1026TIP3   OH227272   1.218   1.378  15.503  0.1632  0.2433 -0.0693
 1026TIP3    H127273   1.282   1.315  15.470  1.1797  1.6089 -0.8230
 1026TIP3    H227274   1.201   1.350  15.593  2.1819  0.0901  0.3107
 1027TIP3   OH227275   3.623   0.928  14.157  0.2560 -0.2733 -0.2650
 1027TIP3    H127276   3.688   0.975  14.105 -0.7901 -0.8834 -2.2246
 1027TIP3    H227277   3.550   0.989  14.165  0.4852 -0.1084  0.7137
 1028TIP3   OH227278   5.417   5.877  15.357  0.2194  0.2301  0.1676
 1028TIP3    H127279   5.434   5.962  15.317  0.5555 -0.2951 -0.8379
 1028TIP3    H227280   5.329   5.854  15.327  0.8696 -0.6342 -1.1678
 1029TIP3   OH227281   2.178   2.756  17.140  1.1092  0.0101 -0.3820
 1029TIP3    H127282   2.098   2.712  17.111  1.2658 -0.6713  0.1951
 1029TIP3    H227283   2.244   2.687  17.142  1.4243  0.3235  0.2971
 1030TIP3   OH227284   2.373   6.596  13.173 -0.4945 -0.3370 -0.0670
 1030TIP3    H127285   2.412   6.589  13.260 -1.3234 -1.4122  0.2488
 1030TIP3    H227286   2.426   6.539  13.117  0.2613  0.6403 -0.3634
 1031TIP3   OH227287   2.506   0.171  15.578 -0.0245  0.0716 -0.3168
 1031TIP3    H127288   2.528   0.256  15.617 -0.0436 -0.7842  1.6397
 1031TIP3    H227289   2.523   0.107  15.647 -2.3308 -1.3043 -0.9216
 1032TIP3   OH227290   1.691   5.254  15.375 -0.7065 -0.1611 -0.5277
 1032TIP3    H127291   1.742   5.207  15.440  0.7509 -0.5614 -1.9039
 1032TIP3    H227292   1.755   5.308  15.328 -1.6367 -0.1678 -1.8699
 1033TIP3   OH227293   5.160   0.514  14.080  0.0369 -0.1642  0.2889
 1033TIP3    H127294   5.168   0.604  14.048 -1.0028 -0.3048 -0.3930
 1033TIP3    H227295   5.246   0.496  14.120  0.0132  1.3936  1.1573
 1034TIP3   OH227296   3.528   1.585  16.371  0.0430 -0.3950 -0.0651
 1034TIP3    H127297   3.548   1.644  16.444 -0.0834  0.9572 -1.0923
 1034TIP3    H227298   3.436   1.563  16.383 -0.1272  0.2676 -0.1169
 1035TIP3   OH227299   1.877   4.721  16.069  0.5080  0.4960  0.1429
 1035TIP3    H127300   1.843   4.770  16.143  0.5294  1.2501 -0.3354
 1035TIP3    H227301   1.931   4.652  16.108  2.0304  1.9907  0.8141
 1036TIP3   OH227302   4.472   3.952  16.627  0.4106 -0.5318  0.2372
 1036TIP3    H127303   4.490   3.870  16.674  0.9206 -0.0303  0.9569
 1036TIP3    H227304   4.546   3.962  16.567  1.5575  0.4877  1.7295
 1037TIP3   OH227305   1.964   3.896  15.278  0.1548 -0.1613  1.0485
 1037TIP3    H127306   2.042   3.849  15.247  0.8339 -0.1635  2.6718
 1037TIP3    H227307   1.983   3.916  15.369 -0.6155  2.2508  0.7462
 1038TIP3   OH227308   1.599   3.457  15.597  0.4364 -0.1513  0.0184
 1038TIP3    H127309   1.688   3.430  15.619  0.6969  0.8917  0.2960
 1038TIP3    H227310   1.544   3.384  15.626  0.9617  0.2507  2.2207
 1039TIP3   OH227311   5.413   2.107  13.826 -0.4648  0.5967 -1.0151
 1039TIP3    H127312   5.444   2.198  13.828 -1.7942  1.1076 -1.9743
 1039TIP3    H227313   5.485   2.056  13.862  1.0367  1.8334 -2.1408
 1040TIP3   OH227314   4.523   3.328  14.719 -0.4513  0.7329 -0.1525
 1040TIP3    H127315   4.457   3.349  14.786  0.3234  1.1801  0.4827
 1040TIP3    H227316   4.475   3.275  14.655 -1.5526  1.4453  0.0449
 1041TIP3   OH227317   2.549   6.529  14.643  0.3087  0.4274 -0.5490
 1041TIP3    H127318   2.575   6.615  14.676 -0.2984  0.2055  0.5861
 1041TIP3    H227319   2.631   6.486  14.620  0.6352  1.2195 -0.8906
 1042TIP3   OH227320   5.060   1.517  13.996  0.4227 -0.0406  0.5642
 1042TIP3    H127321   5.140   1.509  13.945 -0.8474 -0.1833 -1.4959
 1042TIP3    H227322   5.024   1.602  13.971 -0.2969 -0.1573  1.1534
 1043TIP3   OH227323   1.323   4.901  15.082  0.4493 -0.2603  0.0901
 1043TIP3    H127324   1.400   4.957  15.077  0.2115  0.0356 -0.3272
 1043TIP3    H227325   1.277   4.930  15.161 -0.1205  0.7310 -0.5768
 1044TIP3   OH227326   3.831   1.503  15.899 -0.0718  0.5325 -0.1973
 1044TIP3    H127327   3.742   1.499  15.865  0.2868 -1.9749 -1.0211
 1044TIP3    H227328   3.822   1.498  15.994 -0.7935  0.3284 -0.2763
 1045TIP3   OH227329   1.163   3.463  16.386 -0.4954  0.2959  0.6754
 1045TIP3    H127330   1.076   3.440  16.352 -1.6005  1.4807  2.4913
 1045TIP3    H227331   1.191   3.537  16.333 -2.1054  2.0081  2.0767
 1046TIP3   OH227332   3.967   4.509  16.229 -0.1114  0.3125  0.3697
 1046TIP3    H127333   3.989   4.585  16.283  2.5972 -1.3732  1.8264
 1046TIP3    H227334   3.903   4.461  16.281  1.7604 -0.7984  1.7567
 1047TIP3   OH227335   5.815   1.856  14.758 -0.4953 -0.5561  0.2002
 1047TIP3    H127336   5.851   1.834  14.672 -1.5639  1.9836 -1.0175
 1047TIP3    H227337   5.855   1.793  14.817  2.8674 -0.4117 -1.6151
 1048TIP3   OH227338   5.444   2.539  16.576 -0.0496 -0.0779 -0.0076
 1048TIP3    H127339   5.514   2.474  16.578  0.1128  0.0619  2.6358
 1048TIP3    H227340   5.368   2.492  16.542  0.6348 -1.0049 -0.2840
 1049TIP3   OH227341   1.668   2.929  13.829  0.1430 -0.2226 -0.1751
 1049TIP3    H127342   1.738   2.993  13.836 -0.4686  0.5266 -0.7429
 1049TIP3    H227343   1.613   2.960  13.756 -1.3493 -0.2229  0.8926
 1050TIP3   OH227344   5.956   2.914  16.912  0.1339  0.7589 -0.0662
 1050TIP3    H127345   5.905   2.951  16.985 -0.2531  0.2123 -0.0507
 1050TIP3    H227346   5.967   2.822  16.935 -0.2819  0.5007 -0.8577
 1051TIP3   OH227347   5.443   3.755  14.638  0.0480 -0.3724  0.4299
 1051TIP3    H127348   5.374   3.820  14.640 -0.5076 -0.8239 -1.7030
 1051TIP3    H227349   5.493   3.774  14.558  1.9205 -0.5566  1.4842
 1052TIP3   OH227350   0.464   6.130  16.743 -0.1768  0.1598  0.0080
 1052TIP3    H127351   0.444   6.170  16.828  0.7509 -0.6997  0.6532
 1052TIP3    H227352   0.387   6.078  16.722 -0.7978  1.1177 -0.1386
 1053TIP3   OH227353   6.167   6.107  16.131  0.0268  0.1663 -0.3496
 1053TIP3    H127354   6.140   6.166  16.202 -0.6481  1.7559 -1.8399
 1053TIP3    H227355   6.236   6.155  16.086  0.1622 -0.6308 -1.0037
 1054TIP3   OH227356   6.120   6.213  14.893 -0.3777 -0.2685  0.0061
 1054TIP3    H127357   6.132   6.127  14.854  1.0508  0.2903 -0.8681
 1054TIP3    H227358   6.103   6.196  14.986  1.9021 -1.4435  0.2611
 1055TIP3   OH227359   4.959   4.945  15.950  0.4708  0.0469 -0.2674
 1055TIP3    H127360   4.968   5.033  15.912 -1.2598  0.2893 -0.2072
 1055TIP3    H227361   4.959   4.887  15.874  0.0251  0.2542 -0.4297
 1056TIP3   OH227362   0.000   5.997  14.397  0.0011  0.2232 -0.2591
 1056TIP3    H127363   0.089   5.984  14.430 -0.4539 -0.8530  0.6070
 1056TIP3    H227364  -0.024   6.085  14.427  0.2244 -0.0740  0.8534
 1057TIP3   OH227365   3.170   1.585  15.632 -0.4655 -0.5404 -0.1172
 1057TIP3    H127366   3.151   1.520  15.699 -1.2033  0.3169  0.5370
 1057TIP3    H227367   3.179   1.667  15.680  0.2184 -0.1184 -0.9477
 1058TIP3   OH227368   4.902   6.729  17.180 -0.6268  0.4014  0.2272
 1058TIP3    H127369   4.887   6.802  17.119  2.4146 -0.0452 -1.2611
 1058TIP3    H227370   4.874   6.651  17.131 -0.5385  0.2466  0.4231
 1059TIP3   OH227371   5.084   4.493  17.127  0.1120 -0.7202 -0.3228
 1059TIP3    H127372   5.179   4.503  17.129  0.0329  0.2200  1.7361
 1059TIP3    H227373   5.051   4.582  17.110 -0.4123 -1.1675 -1.7622
 1060TIP3   OH227374   4.611   2.444  14.583 -0.4166  0.1146  0.0891
 1060TIP3    H127375   4.657   2.528  14.575 -0.6334  0.0895 -2.2297
 1060TIP3    H227376   4.644   2.406  14.664  2.0391  1.0446 -0.3931
 1061TIP3   OH227377   5.500   2.631  16.003 -0.4020  0.5237 -0.6225
 1061TIP3    H127378   5.469   2.551  16.047 -0.4849 -0.0947 -1.7675
 1061TIP3    H227379   5.445   2.700  16.038  1.4789  0.6396  2.5453
 1062TIP3   OH227380   1.589   0.750  16.243 -0.4036  0.0610  0.2915
 1062TIP3    H127381   1.635   0.726  16.163 -0.9678 -2.0700  0.5424
 1062TIP3    H227382   1.497   0.759  16.217 -1.0627 -3.2070  1.0196
 1063TIP3   OH227383   6.085   5.194  15.971 -0.5747 -0.1791 -0.0831
 1063TIP3    H127384   6.172   5.228  15.991 -0.2713 -0.8090 -0.2920
 1063TIP3    H227385   6.095   5.099  15.976 -1.1886 -0.2652 -0.3646
 1064TIP3   OH227386   2.940   5.603  16.537  0.4534 -0.6310 -0.3229
 1064TIP3    H127387   3.021   5.627  16.491  1.0297 -0.2687  0.8367
 1064TIP3    H227388   2.967   5.534  16.598  0.0713  0.0797  0.6716
 1065TIP3   OH227389   4.442   0.436  15.144 -0.3841 -0.4340 -0.1758
 1065TIP3    H127390   4.536   0.425  15.160 -0.0283  0.2670 -1.6524
 1065TIP3    H227391   4.422   0.524  15.176 -0.6473 -0.7407  0.5308
 1066TIP3   OH227392   4.547   0.760  16.912 -0.8288 -0.3254  0.3645
 1066TIP3    H127393   4.587   0.781  16.828  1.9667  1.6465  2.0186
 1066TIP3    H227394   4.616   0.715  16.961 -1.9815 -0.3895  2.0224
 1067TIP3   OH227395   6.242   2.289  15.405 -0.4507  0.5957 -0.0847
 1067TIP3    H127396   6.273   2.263  15.492  0.9372  0.6487 -0.5315
 1067TIP3    H227397   6.154   2.322  15.419 -0.7440 -0.6030  1.1075
 1068TIP3   OH227398   5.259   2.462  15.734 -1.0556  0.3052 -0.1399
 1068TIP3    H127399   5.274   2.385  15.790  0.0246  0.3352 -0.3714
 1068TIP3    H227400   5.179   2.442  15.687 -1.0586 -0.4613  0.1755
 1069TIP3   OH227401   3.110   1.187  13.462 -0.6545 -0.4378 -0.3907
 1069TIP3    H127402   3.163   1.247  13.409 -0.8386 -1.8840 -2.3010
 1069TIP3    H227403   3.167   1.112  13.477 -1.1967 -0.7659  0.0544
 1070TIP3   OH227404   2.772   0.048  14.320  0.1355 -0.5007 -0.7552
 1070TIP3    H127405   2.680   0.023  14.309 -0.4133  0.0075  2.0402
 1070TIP3    H227406   2.769   0.130  14.370  2.1210 -1.2984  0.7817
 1071TIP3   OH227407   0.172   4.587  16.391  0.4514  0.1917  0.1769
 1071TIP3    H127408   0.252   4.566  16.438 -0.1548 -0.9176  0.7489
 1071TIP3    H227409   0.201   4.638  16.316  1.5961  0.5849  0.8602
 1072TIP3   OH227410   5.151   1.704  13.710 -0.4516 -0.0633 -0.2813
 1072TIP3    H127411   5.118   1.636  13.651  0.2718  0.5299 -1.4106
 1072TIP3    H227412   5.241   1.718  13.682  0.0596 -0.0870  1.2950
 1073TIP3   OH227413   5.600   4.286  15.061  0.8056 -0.5010 -0.2048
 1073TIP3    H127414   5.573   4.196  15.045  0.2270 -0.4497  0.4420
 1073TIP3    H227415   5.680   4.279  15.113 -1.5880 -0.7187  3.8464
 1074TIP3   OH227416   5.292   0.860  15.645 -0.0412 -0.2237 -0.2357
 1074TIP3    H127417   5.331   0.935  15.691 -0.5942 -0.3716  0.4827
 1074TIP3    H227418   5.343   0.853  15.564 -0.0240  0.9712 -0.3441
 1075TIP3   OH227419   5.411   3.121  14.468 -0.1309 -0.5959 -0.2816
 1075TIP3    H127420   5.417   3.184  14.539  3.0720 -0.9677 -0.0879
 1075TIP3    H227421   5.444   3.039  14.506  0.7839 -1.0292 -1.9123
 1076TIP3   OH227422   1.564   4.542  17.113  0.0105 -0.3049  0.4878
 1076TIP3    H127423   1.601   4.597  17.044  1.7747  1.5039  2.7072
 1076TIP3    H227424   1.628   4.472  17.125  0.2585 -0.0061  0.9653
 1077TIP3   OH227425   5.998   0.479  16.979 -0.2662 -0.1530  0.4814
 1077TIP3    H127426   5.958   0.405  16.933 -0.6359 -0.4027  1.1954
 1077TIP3    H227427   5.999   0.452  17.071  1.3077 -0.0589  0.5222
 1078TIP3   OH227428   3.160   1.595  14.638 -0.6334  0.0547  0.1046
 1078TIP3    H127429   3.127   1.618  14.725 -0.3573  1.0429 -0.0386
 1078TIP3    H227430   3.121   1.660  14.580  0.0987  0.1152 -0.3327
 1079TIP3   OH227431   6.042   2.431  16.026 -0.2794 -0.1655  0.2836
 1079TIP3    H127432   6.052   2.336  16.023 -1.0285 -0.2814  0.9198
 1079TIP3    H227433   5.991   2.452  15.948  0.2589 -0.2320 -0.0871
 1080TIP3   OH227434   1.340   2.191  16.885  0.4178  0.0247  0.1566
 1080TIP3    H127435   1.248   2.210  16.902 -0.3578 -0.5527 -2.7479
 1080TIP3    H227436   1.384   2.276  16.895 -0.6308  0.5512  0.4747
 1081TIP3   OH227437   4.125   0.819  16.611 -0.3078  0.0539 -0.2755
 1081TIP3    H127438   4.199   0.777  16.568 -0.7365 -1.2980  0.2501
 1081TIP3    H227439   4.163   0.865  16.686  0.0437 -0.4725 -0.1228
 1082TIP3   OH227440   2.505   0.237  16.502 -0.3587  0.5932 -0.3510
 1082TIP3    H127441   2.498   0.255  16.596  1.6580  0.2943 -0.0996
 1082TIP3    H227442   2.568   0.165  16.496 -0.4961  0.5735 -1.9344
 1083TIP3   OH227443   3.041   4.448  15.052 -0.2652 -0.5115  0.8742
 1083TIP3    H127444   3.010   4.527  15.096  0.0084 -0.4374  0.9327
 1083TIP3    H227445   3.133   4.440  15.078 -0.6865 -1.7059  2.1270
 1084TIP3   OH227446   3.075   4.325  16.410 -0.5333 -0.4328 -0.1766
 1084TIP3    H127447   3.027   4.407  16.407 -1.7523 -1.0725  0.7428
 1084TIP3    H227448   3.121   4.328  16.495 -1.2267 -1.0261  0.2292
 1085TIP3   OH227449   3.278   2.805  14.816 -0.1421  0.2467  0.1689
 1085TIP3    H127450   3.249   2.767  14.733 -2.0303  0.8461  0.5096
 1085TIP3    H227451   3.331   2.736  14.856 -0.0193 -0.4243 -1.0911
 1086TIP3   OH227452   1.230   3.212  15.660  0.5784  0.3448 -0.3419
 1086TIP3    H127453   1.235   3.118  15.646  1.7415 -0.0128  1.9663
 1086TIP3    H227454   1.317   3.236  15.692 -0.0740  1.9730  0.3220
 1087TIP3   OH227455   1.499   0.037  15.051  0.3373 -0.2501  0.4897
 1087TIP3    H127456   1.580   0.088  15.049  0.2270 -0.0894 -1.1215
 1087TIP3    H227457   1.528  -0.054  15.051  0.5188 -0.2028  1.6122
 1088TIP3   OH227458   4.970   0.613  13.881  0.1196  0.1495 -0.3195
 1088TIP3    H127459   4.957   0.539  13.822 -1.9865 -0.2625  0.5670
 1088TIP3    H227460   4.900   0.604  13.946  1.4239  1.4455  1.3495
 1089TIP3   OH227461   5.106   0.594  17.111 -0.3609 -0.1956 -0.0807
 1089TIP3    H127462   5.178   0.560  17.164  0.5129 -1.2392 -1.8336
 1089TIP3    H227463   5.136   0.680  17.083  0.6619 -0.9763 -1.5226
 1090TIP3   OH227464   0.457   5.165  14.706  0.6157  0.0518  0.0239
 1090TIP3    H127465   0.541   5.210  14.712  0.0535  1.0110  1.0946
 1090TIP3    H227466   0.400   5.212  14.766  0.0648 -2.2994  1.5067
 1091TIP3   OH227467   4.437   4.462  14.718  0.3422 -0.6192  0.3799
 1091TIP3    H127468   4.446   4.371  14.743  1.7602 -0.4642  0.5294
 1091TIP3    H227469   4.432   4.460  14.622  1.2750 -0.8218  0.3206
 1092TIP3   OH227470   2.748   1.577  13.558  0.0588  0.0110  0.0861
 1092TIP3    H127471   2.811   1.632  13.605 -0.4071  0.8973 -0.2973
 1092TIP3    H227472   2.796   1.497  13.538  1.6852  1.3360 -1.7576
 1093TIP3   OH227473   4.961   4.323  15.800 -0.1528 -0.1245  0.0131
 1093TIP3    H127474   4.903   4.248  15.809 -0.9416  0.3385 -0.9546
 1093TIP3    H227475   5.049   4.286  15.795 -0.6181 -1.0899 -1.6654
 1094TIP3   OH227476   0.798   2.313  16.422  0.3771  0.0858  0.8222
 1094TIP3    H127477   0.871   2.375  16.426  0.4465  0.0586  0.0877
 1094TIP3    H227478   0.734   2.354  16.365 -1.2113  1.1397  3.2079
 1095TIP3   OH227479   4.835   0.155  15.113  0.2139  0.3376  0.3567
 1095TIP3    H127480   4.914   0.124  15.069  1.9537  2.2833  1.8864
 1095TIP3    H227481   4.818   0.090  15.181  2.4256  1.3918  2.0350
 1096TIP3   OH227482   3.804   0.106  15.903 -0.0480 -0.1304  0.1459
 1096TIP3    H127483   3.801   0.095  15.808 -2.0210  0.2106  0.1354
 1096TIP3    H227484   3.835   0.022  15.936 -0.9032 -0.8087 -0.7208
 1097TIP3   OH227485   2.046   0.130  12.827  0.7699  0.0967  0.0700
 1097TIP3    H127486   1.980   0.168  12.885 -0.0253 -1.2125  0.0467
 1097TIP3    H227487   2.023   0.163  12.740 -0.4320 -1.0550 -0.0806
 1098TIP3   OH227488   0.210   6.580  14.663  0.4129 -0.4999  0.0560
 1098TIP3    H127489   0.215   6.575  14.568 -3.0330  0.8840 -0.3628
 1098TIP3    H227490   0.261   6.658  14.686 -2.1570  1.7910 -1.3159
 1099TIP3   OH227491   5.845   2.750  14.394 -0.6977 -0.0010  0.4932
 1099TIP3    H127492   5.848   2.657  14.416 -1.1226 -0.5820 -1.6959
 1099TIP3    H227493   5.922   2.787  14.437  0.2578 -1.6302  0.2676
 1100TIP3   OH227494   3.492   3.441  17.034 -1.0702 -0.2335 -0.3782
 1100TIP3    H127495   3.499   3.376  16.964  2.3268 -1.0913  0.5604
 1100TIP3    H227496   3.454   3.394  17.108  0.9933 -1.1509  0.1677
 1101TIP3   OH227497   0.015   6.635  16.722  0.3141  0.2210  0.2352
 1101TIP3    H127498  -0.043   6.702  16.758 -0.0501 -0.6371  1.2979
 1101TIP3    H227499   0.068   6.607  16.796  1.7113  0.5877 -0.5991
 1102TIP3   OH227500   1.850   2.814  16.065  0.2359  0.1302 -0.1077
 1102TIP3    H127501   1.943   2.816  16.087  0.1632 -0.5621  0.2895
 1102TIP3    H227502   1.831   2.722  16.047 -0.7057  0.0100  1.3029
 1103TIP3   OH227503   1.498   5.557  16.944  0.3533  0.7127  0.2471
 1103TIP3    H127504   1.559   5.569  17.017 -0.1284  0.4024  0.7139
 1103TIP3    H227505   1.416   5.597  16.974  0.1825  0.6863 -0.1718
 1104TIP3   OH227506   2.867   5.262  17.036 -0.0474 -0.4910  0.3893
 1104TIP3    H127507   2.871   5.306  17.121  3.1249 -0.7537  0.4806
 1104TIP3    H227508   2.909   5.324  16.976 -2.1716 -0.3458 -1.0588
 1105TIP3   OH227509   2.020   0.022  15.949  0.1078 -0.6533  0.1813
 1105TIP3    H127510   2.030   0.117  15.937 -0.1266 -0.5636  0.6971
 1105TIP3    H227511   1.925   0.009  15.953  0.0367 -0.2432  5.1846
 1106TIP3   OH227512   3.877   3.135  15.623  0.0306  0.2591  0.2739
 1106TIP3    H127513   3.938   3.112  15.693 -1.8485 -2.2990  1.2456
 1106TIP3    H227514   3.852   3.051  15.584 -0.7315  1.4341 -1.9786
 1107TIP3   OH227515   0.523   1.590  14.780 -0.1550  0.6751  0.1690
 1107TIP3    H127516   0.494   1.677  14.750 -1.7696  0.3104  0.5800
 1107TIP3    H227517   0.597   1.608  14.838  2.6148  1.4774 -3.2344
 1108TIP3   OH227518   4.140   5.102  16.795  0.1286  0.4098  0.0751
 1108TIP3    H127519   4.203   5.107  16.722  0.9007  1.0116  0.7593
 1108TIP3    H227520   4.181   5.043  16.857 -0.4976 -0.0441  0.0656
 1109TIP3   OH227521   6.488   0.409  14.560  0.3781  0.2545 -0.6556
 1109TIP3    H127522   6.465   0.439  14.648  2.7179 -0.2196  0.2019
 1109TIP3    H227523   6.429   0.455  14.502 -2.3055 -0.5770  1.2420
 1110TIP3   OH227524   4.158   6.288  17.257 -0.0264  0.1739  0.4734
 1110TIP3    H127525   4.176   6.218  17.195  1.4398  0.3251  0.6980
 1110TIP3    H227526   4.095   6.345  17.211  1.1235  0.3630 -0.9465
 1111TIP3   OH227527   4.116   5.198  15.629 -0.2813  0.4360 -0.3832
 1111TIP3    H127528   4.153   5.279  15.593 -1.3393  1.5484  0.9047
 1111TIP3    H227529   4.043   5.178  15.570 -1.7869  2.0578  0.7912
 1112TIP3   OH227530   0.284   2.626  16.787 -0.8391 -0.6860  0.2885
 1112TIP3    H127531   0.375   2.613  16.759 -0.5037  1.6330  0.1482
 1112TIP3    H227532   0.279   2.718  16.811 -3.3836 -0.5524 -0.4855
 1113TIP3   OH227533   0.525   0.681  15.435  0.3632  0.2995 -0.6990
 1113TIP3    H127534   0.526   0.585  15.441 -0.6554  0.2951 -0.4335
 1113TIP3    H227535   0.616   0.707  15.447  0.1355 -0.2958  5.3604
 1114TIP3   OH227536   1.444   0.323  13.083  0.0576 -0.0260 -0.6472
 1114TIP3    H127537   1.485   0.237  13.081 -0.7207 -0.6617  3.4722
 1114TIP3    H227538   1.362   0.310  13.131  0.3288  3.0965  0.9096
 1115TIP3   OH227539   2.446   3.374  14.443  0.4349  0.2665 -0.0315
 1115TIP3    H127540   2.451   3.433  14.368 -0.6067 -0.7777 -0.9623
 1115TIP3    H227541   2.353   3.370  14.464  0.7752  1.1197  1.8234
 1116TIP3   OH227542   1.750   3.840  15.650 -0.5792 -0.3094 -0.3493
 1116TIP3    H127543   1.729   3.904  15.719  2.5381 -0.8762  1.2931
 1116TIP3    H227544   1.721   3.882  15.569 -3.1169  0.9932  1.0927
 1117TIP3   OH227545   0.430   0.081  13.466 -0.0310  0.1354  0.2456
 1117TIP3    H127546   0.518   0.119  13.473 -1.1770  2.9736  0.4391
 1117TIP3    H227547   0.427   0.016  13.537  1.7098  0.3784  0.6026
 1118TIP3   OH227548   3.607   4.689  16.287 -0.4565 -0.4670 -0.0193
 1118TIP3    H127549   3.523   4.655  16.319 -1.6854  2.4064  0.1601
 1118TIP3    H227550   3.673   4.643  16.338 -1.9061 -2.6857 -0.0262
 1119TIP3   OH227551   5.315   2.396  14.439 -0.2006 -0.5470  0.0270
 1119TIP3    H127552   5.292   2.457  14.510  2.2779 -0.1361  0.5719
 1119TIP3    H227553   5.271   2.315  14.463 -0.5707 -0.0037  1.2916
 1120TIP3   OH227554   4.179   4.267  14.592  0.0982 -0.2722 -0.3384
 1120TIP3    H127555   4.152   4.300  14.678 -1.3525  1.4399 -1.3830
 1120TIP3    H227556   4.224   4.341  14.551 -2.0146  0.0756 -2.2242
 1121TIP3   OH227557   0.825   0.500  12.803 -0.1440 -0.6080 -0.5007
 1121TIP3    H127558   0.788   0.417  12.773 -1.5136 -1.7090  3.5083
 1121TIP3    H227559   0.913   0.502  12.766 -0.3434 -3.4783 -1.3797
 1122TIP3   OH227560   6.181   1.141  16.714  0.3379  0.3216 -0.9961
 1122TIP3    H127561   6.235   1.220  16.705 -0.6433  1.3043  1.1636
 1122TIP3    H227562   6.214   1.097  16.792 -1.6945  0.7879  0.2043
 1123TIP3   OH227563   3.624   0.082  13.853  0.1248 -0.2376  0.2403
 1123TIP3    H127564   3.568   0.022  13.902 -0.2008  1.2591  1.8423
 1123TIP3    H227565   3.563   0.140  13.807  0.4138 -0.5736 -0.5688
 1124TIP3   OH227566   3.183   6.110  15.131 -0.3719 -0.5689  0.1633
 1124TIP3    H127567   3.190   6.016  15.147  1.0777 -0.5682 -0.4152
 1124TIP3    H227568   3.222   6.150  15.208 -0.3696 -0.4406  0.0956
 1125TIP3   OH227569   3.008   5.180  16.199 -0.1873  0.0082  0.5888
 1125TIP3    H127570   2.946   5.249  16.175  0.8527  0.8337  0.2156
 1125TIP3    H227571   3.058   5.216  16.272  1.5753  0.4056 -0.7484
 1126TIP3   OH227572   3.049   2.461  16.685  0.1261  0.7270 -0.5400
 1126TIP3    H127573   3.121   2.520  16.661  1.4818 -0.2903  0.8280
 1126TIP3    H227574   3.014   2.499  16.766  0.2962  0.2482 -0.2408
 1127TIP3   OH227575   5.719   4.296  16.717 -0.1273  0.7902  0.6199
 1127TIP3    H127576   5.693   4.235  16.785 -0.9306 -1.0565 -1.2310
 1127TIP3    H227577   5.815   4.300  16.724 -0.2780  1.9178  2.8115
 1128TIP3   OH227578   5.414   0.668  14.274 -0.0115 -0.4190 -0.4292
 1128TIP3    H127579   5.319   0.669  14.266 -0.0892  0.6083  0.3878
 1128TIP3    H227580   5.435   0.748  14.322  1.3075 -0.3982 -0.9995
 1129TIP3   OH227581   2.948   0.642  14.284  0.1583  0.3419  0.5489
 1129TIP3    H127582   2.956   0.605  14.196 -0.9708 -0.8330  0.9057
 1129TIP3    H227583   2.889   0.716  14.273  0.7943  0.8014  0.1665
 1130TIP3   OH227584   2.416   1.638  13.548  0.4425 -0.2188 -0.1495
 1130TIP3    H127585   2.378   1.638  13.636 -0.4730  1.7404 -0.5027
 1130TIP3    H227586   2.509   1.617  13.563  0.0347 -1.2469  1.1227
 1131TIP3   OH227587   6.699   1.946  15.984  0.2229  0.0146 -0.0440
 1131TIP3    H127588   6.771   2.009  15.978  0.4930 -0.2414  0.3975
 1131TIP3    H227589   6.717   1.882  15.916  1.1829 -0.8035  0.9350
 1132TIP3   OH227590   3.267   2.081  14.838  0.0205 -0.1618 -0.0827
 1132TIP3    H127591   3.345   2.049  14.884  0.5151 -0.0509 -0.8169
 1132TIP3    H227592   3.300   2.151  14.781 -0.1450 -1.6957 -2.1986
 1133TIP3   OH227593   1.002   0.963  13.469 -0.1960 -0.1406 -0.2805
 1133TIP3    H127594   1.089   0.992  13.499 -0.6210  1.4046 -0.4674
 1133TIP3    H227595   1.011   0.868  13.461  0.1813 -0.6494  3.9493
 1134TIP3   OH227596   3.448   0.171  16.884 -0.0216  0.0745 -0.4761
 1134TIP3    H127597   3.361   0.166  16.925  0.0954 -0.3668 -0.2794
 1134TIP3    H227598   3.432   0.216  16.801 -0.1767  1.4728  0.2857
 1135TIP3   OH227599   0.262   4.870  14.764  0.2776 -0.1091 -0.5317
 1135TIP3    H127600   0.172   4.862  14.732  0.8853 -1.2826 -2.0914
 1135TIP3    H227601   0.253   4.909  14.851 -1.7363 -0.3603 -0.5683
 1136TIP3   OH227602   0.823   1.783  16.421 -0.1883 -0.1350  0.7284
 1136TIP3    H127603   0.917   1.780  16.435 -0.1456  1.2052  0.9113
 1136TIP3    H227604   0.792   1.851  16.481 -1.3662 -1.0000  1.1331
 1137TIP3   OH227605   2.348   1.249  16.635 -0.2946 -0.3915  0.2244
 1137TIP3    H127606   2.347   1.257  16.539 -0.8820  1.2082  0.3208
 1137TIP3    H227607   2.418   1.187  16.653 -1.3315 -2.1200 -1.3088
 1138TIP3   OH227608   3.232   3.841  15.006  0.1872  0.6473 -0.2690
 1138TIP3    H127609   3.175   3.838  15.082  0.9530 -0.9697  0.2825
 1138TIP3    H227610   3.274   3.927  15.011 -0.1824  0.7801  0.8173
 1139TIP3   OH227611   0.600   1.269  15.878  0.1469 -0.4117 -0.3556
 1139TIP3    H127612   0.584   1.319  15.957  0.1261  1.4347 -1.4642
 1139TIP3    H227613   0.694   1.277  15.862  0.3114 -1.5325 -0.0645
 1140TIP3   OH227614   1.318   1.490  13.745 -0.1263 -0.2937  0.1022
 1140TIP3    H127615   1.223   1.476  13.736 -0.2133  0.6660 -0.6811
 1140TIP3    H227616   1.344   1.433  13.817 -1.5217  0.3596  1.1771
 1141TIP3   OH227617   0.820   0.760  12.845  0.0070 -0.5382  0.0866
 1141TIP3    H127618   0.796   0.672  12.817 -0.0813 -1.0760  1.7295
 1141TIP3    H227619   0.911   0.771  12.817  0.4963 -1.7391  1.1130
 1142TIP3   OH227620   0.565   5.620  14.662  0.0629  0.4037 -0.5955
 1142TIP3    H127621   0.588   5.683  14.594 -0.3706  0.1239 -1.0137
 1142TIP3    H227622   0.600   5.658  14.743  0.8497  0.5920 -1.0154
 1143TIP3   OH227623   4.139   3.848  14.189 -0.6794  0.2776  0.5688
 1143TIP3    H127624   4.185   3.850  14.106 -2.1145 -0.9782 -0.3113
 1143TIP3    H227625   4.160   3.931  14.231  0.5748  0.6601 -0.7523
 1144TIP3   OH227626   4.102   0.421  16.769  0.4709 -0.2073 -0.0126
 1144TIP3    H127627   4.077   0.372  16.847  0.8896 -0.4383 -0.0199
 1144TIP3    H227628   4.056   0.504  16.777  2.3656  0.7556  1.7192
 1145TIP3   OH227629   0.251   4.022  17.083 -0.5902 -0.5565 -0.4474
 1145TIP3    H127630   0.283   4.112  17.088 -1.8196  0.0066 -1.9480
 1145TIP3    H227631   0.165   4.025  17.125 -1.2074 -0.7046 -1.6491
 1146TIP3   OH227632   4.081   0.856  16.088  0.3199  0.1876  0.2337
 1146TIP3    H127633   4.090   0.906  16.169  2.0411 -1.7752  1.3418
 1146TIP3    H227634   4.071   0.765  16.118  0.4490 -0.5124 -1.7561
 1147TIP3   OH227635   2.887   0.701  16.799 -0.3692  0.4612 -0.3952
 1147TIP3    H127636   2.976   0.706  16.833 -0.1069  1.6538 -1.1727
 1147TIP3    H227637   2.898   0.704  16.704 -1.2416  0.5748 -0.5027
 1148TIP3   OH227638   1.558   6.329  14.630 -0.4858  0.1152  0.5596
 1148TIP3    H127639   1.463   6.322  14.636 -0.5471 -1.1138 -1.0358
 1148TIP3    H227640   1.590   6.288  14.711 -1.2691  2.6958  2.3044
 1149TIP3   OH227641   2.638   2.393  15.170 -0.2517  0.3055  0.0867
 1149TIP3    H127642   2.632   2.338  15.249 -1.8310  0.2382 -0.0395
 1149TIP3    H227643   2.671   2.477  15.202 -0.1888  0.0596  0.6941
 1150TIP3   OH227644   3.169   0.731  16.863  0.3090  0.4004 -0.2615
 1150TIP3    H127645   3.196   0.746  16.772  0.4588  2.2309  0.0429
 1150TIP3    H227646   3.214   0.651  16.889  0.3219 -0.1160 -1.7730
 1151TIP3   OH227647   5.533   0.698  15.411 -0.6553  0.3079 -0.2319
 1151TIP3    H127648   5.572   0.667  15.329  0.0278  0.5236  0.0077
 1151TIP3    H227649   5.453   0.742  15.384 -0.3712  0.4862 -0.7955
 1152TIP3   OH227650   1.168   4.369  14.154  0.2597 -0.2050 -0.0702
 1152TIP3    H127651   1.192   4.285  14.115  0.5849  0.4557 -1.3648
 1152TIP3    H227652   1.229   4.431  14.114 -0.8114  0.8372 -0.1188
 1153TIP3   OH227653   5.808   4.365  16.221  0.1109 -0.0285 -0.2021
 1153TIP3    H127654   5.854   4.320  16.150 -0.4895  0.2825 -0.8015
 1153TIP3    H227655   5.728   4.315  16.234 -0.0345  0.2251 -0.1122
 1154TIP3   OH227656   4.815   3.216  13.956 -0.8478 -0.0899  0.9518
 1154TIP3    H127657   4.762   3.183  14.028 -1.5496 -0.2833  0.3613
 1154TIP3    H227658   4.764   3.196  13.877 -0.2429  0.3927  0.4219
 1155TIP3   OH227659   2.863   5.006  14.833  0.0440 -0.1088  0.7387
 1155TIP3    H127660   2.888   4.974  14.920  1.7734 -1.1509 -0.0889
 1155TIP3    H227661   2.827   4.928  14.789  1.2612 -0.1580 -0.2065
 1156TIP3   OH227662   2.799   0.286  15.195  0.0176  0.1161  0.3091
 1156TIP3    H127663   2.770   0.203  15.232  0.3394  0.3411  1.0681
 1156TIP3    H227664   2.741   0.351  15.234 -2.0464  0.0255 -2.2829
 1157TIP3   OH227665   3.837   2.317  15.991  0.5431  0.2691  0.1118
 1157TIP3    H127666   3.779   2.386  16.025  0.9657 -0.4419  2.4720
 1157TIP3    H227667   3.920   2.330  16.037  0.2220 -2.5709  1.7270
 1158TIP3   OH227668   0.006   3.840  14.108 -0.9747 -0.1171  0.4216
 1158TIP3    H127669   0.050   3.783  14.171  0.3154  0.0131 -0.3320
 1158TIP3    H227670  -0.067   3.786  14.074 -1.4515 -0.3153  1.7185
 1159TIP3   OH227671   0.365   3.920  14.762 -0.3745  0.2506 -0.4114
 1159TIP3    H127672   0.423   3.948  14.690 -1.0076 -0.7694 -1.3420
 1159TIP3    H227673   0.277   3.937  14.730 -0.6688 -0.2725  0.1057
 1160TIP3   OH227674   2.533   2.737  14.586 -0.2565 -0.0414 -0.0939
 1160TIP3    H127675   2.565   2.819  14.623  1.2498 -0.4582 -0.3891
 1160TIP3    H227676   2.455   2.761  14.536 -0.3395  1.0541  0.5295
 1161TIP3   OH227677   1.046   1.384  16.583 -0.4422 -0.0693  0.1967
 1161TIP3    H127678   1.009   1.464  16.620 -1.2514 -0.0867 -0.5472
 1161TIP3    H227679   1.140   1.402  16.575 -0.5915  0.7384  0.2120
 1162TIP3   OH227680   1.699   3.305  14.658  0.3882  0.7717  0.1963
 1162TIP3    H127681   1.672   3.363  14.730 -0.8727 -0.1084  0.4612
 1162TIP3    H227682   1.626   3.308  14.596 -0.0902 -1.1209  0.5941
 1163TIP3   OH227683   5.747   1.901  16.480 -0.0250  0.1876 -0.5891
 1163TIP3    H127684   5.775   1.810  16.485  0.3202  0.3479  2.1220
 1163TIP3    H227685   5.656   1.897  16.449 -0.1610 -1.1299 -0.0879
 1164TIP3   OH227686   1.676   5.391  14.756 -0.5724 -0.2249  0.0018
 1164TIP3    H127687   1.587   5.357  14.744 -0.2774 -0.9970 -0.0497
 1164TIP3    H227688   1.688   5.451  14.683 -1.2990  0.4147  0.3970
 1165TIP3   OH227689   2.310   6.523  13.485 -0.1803 -0.6450 -0.0313
 1165TIP3    H127690   2.314   6.432  13.455  3.6556 -0.4640 -0.5745
 1165TIP3    H227691   2.256   6.568  13.420  0.8106 -1.9202 -1.8150
 1166TIP3   OH227692   4.498   6.152  15.561  0.4845 -0.7358 -0.0707
 1166TIP3    H127693   4.516   6.208  15.485  1.2307  0.4030  0.9026
 1166TIP3    H227694   4.491   6.064  15.525  1.2316 -0.2727 -1.4080
 1167TIP3   OH227695   4.760   2.684  14.613 -0.2435 -0.1240 -0.0044
 1167TIP3    H127696   4.728   2.745  14.679  0.5038  0.2901 -0.0161
 1167TIP3    H227697   4.825   2.733  14.563  1.3978 -1.3019  0.8699
 1168TIP3   OH227698   2.151   2.582  16.003 -0.1879  0.3260 -0.7054
 1168TIP3    H127699   2.072   2.576  15.949 -0.2248 -0.0712 -0.6089
 1168TIP3    H227700   2.150   2.671  16.037 -0.8586  0.1696 -0.3061
 1169TIP3   OH227701   0.505   1.012  13.464  0.1829 -0.1778 -0.2309
 1169TIP3    H127702   0.471   0.981  13.548  0.4791 -0.5703 -0.2522
 1169TIP3    H227703   0.449   0.972  13.398  1.4321 -1.9084 -0.3364
 1170TIP3   OH227704   5.859   1.198  16.235 -0.0189  0.4212  0.2610
 1170TIP3    H127705   5.857   1.200  16.139  1.1458  1.1251  0.2243
 1170TIP3    H227706   5.783   1.248  16.262 -0.4097  0.1407 -0.3014
 1171TIP3   OH227707   0.141   5.150  14.603  0.3607  0.2911 -0.0210
 1171TIP3    H127708   0.230   5.116  14.598  0.6679  1.1967 -1.4421
 1171TIP3    H227709   0.091   5.094  14.542 -0.1939 -0.5786  1.1971
 1172TIP3   OH227710   1.532   3.406  13.756  0.2169 -0.5780  0.3704
 1172TIP3    H127711   1.550   3.495  13.786 -0.3242  0.0924 -1.1990
 1172TIP3    H227712   1.617   3.374  13.726  0.2277 -0.2043 -0.0102
 1173TIP3   OH227713   3.925   1.072  16.807  0.4102  0.2620  0.6304
 1173TIP3    H127714   3.954   1.125  16.882 -0.2135 -0.1946  1.2128
 1173TIP3    H227715   3.832   1.094  16.798  0.0305 -1.0369  1.1589
 1174TIP3   OH227716   4.729   5.532  13.957  0.0273  0.1302 -0.0542
 1174TIP3    H127717   4.646   5.542  13.912  0.3566 -0.1645 -0.7432
 1174TIP3    H227718   4.753   5.440  13.943  1.5010  0.7043 -1.7244
 1175TIP3   OH227719   6.381   4.822  15.842 -0.2593  0.6863  0.2753
 1175TIP3    H127720   6.395   4.886  15.912 -2.3398  0.9051  0.5560
 1175TIP3    H227721   6.466   4.780  15.831 -0.5728 -2.3247  5.8080
 1176TIP3   OH227722   2.665   4.780  16.725  0.8575 -0.2565 -0.1240
 1176TIP3    H127723   2.753   4.743  16.723  2.1302  2.4649 -0.4880
 1176TIP3    H227724   2.646   4.792  16.817  0.3972 -1.7732 -0.0005
 1177TIP3   OH227725   0.747   3.768  15.114 -0.1432  0.8479  0.1077
 1177TIP3    H127726   0.707   3.750  15.029  1.6421  0.8414 -0.7868
 1177TIP3    H227727   0.732   3.688  15.165  0.2109  0.1786 -0.8088
 1178TIP3   OH227728   3.622   4.011  16.290  0.6128 -0.6756  0.2245
 1178TIP3    H127729   3.563   4.063  16.236 -0.8489 -2.8756 -0.4515
 1178TIP3    H227730   3.582   4.010  16.377 -0.5108 -2.2533 -0.2583
 1179TIP3   OH227731   6.058   5.170  15.010 -0.3591  0.4168  0.4593
 1179TIP3    H127732   6.134   5.227  15.005  1.2510 -1.5358  1.0696
 1179TIP3    H227733   6.065   5.114  14.932 -0.3442 -0.6913  1.2284
 1180TIP3   OH227734   5.851   1.890  15.112  0.4021  0.6327 -0.1408
 1180TIP3    H127735   5.857   1.796  15.095 -0.1730  0.7169 -0.8430
 1180TIP3    H227736   5.942   1.921  15.110  0.5043  0.2798 -0.9975
 1181TIP3   OH227737   1.411   6.328  16.822 -0.4179 -0.4017 -0.2946
 1181TIP3    H127738   1.416   6.362  16.911 -0.3185 -0.8844 -0.1125
 1181TIP3    H227739   1.359   6.248  16.829 -0.7243 -0.2481 -0.7295
 1182TIP3   OH227740   5.543   4.115  14.238 -0.2060  0.3879 -0.0765
 1182TIP3    H127741   5.549   4.182  14.170  0.3592 -0.4286 -0.8625
 1182TIP3    H227742   5.627   4.070  14.235 -0.0794  0.4841  1.3435
 1183TIP3   OH227743   3.098   3.023  16.711 -0.0912  0.3461 -0.1177
 1183TIP3    H127744   3.173   2.972  16.742 -0.0023  0.0035 -0.8657
 1183TIP3    H227745   3.052   2.964  16.651 -0.5408  0.8105 -0.2381
 1184TIP3   OH227746   6.186   3.432  16.791 -0.1949  0.5766  0.0231
 1184TIP3    H127747   6.106   3.484  16.800  0.1794  0.7859  2.6333
 1184TIP3    H227748   6.173   3.358  16.849  1.2256  0.2260 -0.0761
 1185TIP3   OH227749   5.433   0.426  14.141 -0.1125  0.1741  0.1303
 1185TIP3    H127750   5.431   0.494  14.209  0.8267 -1.3003  1.6997
 1185TIP3    H227751   5.513   0.444  14.091 -1.4318  2.0083 -1.4854
 1186TIP3   OH227752   0.165   4.035  14.231 -0.5507 -0.2610 -0.3853
 1186TIP3    H127753   0.108   3.991  14.169  0.4562 -1.2094 -0.6735
 1186TIP3    H227754   0.156   3.985  14.312 -0.3543 -0.2446 -0.3520
 1187TIP3   OH227755   4.503   6.299  13.792  0.2568 -0.2718  0.0056
 1187TIP3    H127756   4.467   6.290  13.704  0.0463  0.0069  0.0618
 1187TIP3    H227757   4.502   6.393  13.809 -0.6938 -0.4017  0.7200
 1188TIP3   OH227758   6.247   0.226  15.622 -0.1001  0.6059  0.0927
 1188TIP3    H127759   6.335   0.193  15.606 -0.2907 -0.7332  1.5907
 1188TIP3    H227760   6.191   0.175  15.564  0.0174  0.8666 -0.2502
 1189TIP3   OH227761   3.949   4.849  14.724  0.2752  0.4985  0.6250
 1189TIP3    H127762   3.883   4.801  14.775 -0.7766  2.2023  0.9330
 1189TIP3    H227763   3.935   4.941  14.747  0.3011  1.2741 -2.0973
 1190TIP3   OH227764   5.393   4.973  16.484  0.3019  0.1993  0.0018
 1190TIP3    H127765   5.336   5.049  16.483  1.2200  1.0132  2.3413
 1190TIP3    H227766   5.445   4.981  16.404 -0.3970  1.3782 -0.3615
 1191TIP3   OH227767   4.870   1.401  16.918  0.5009  0.2319  0.4206
 1191TIP3    H127768   4.915   1.434  16.840  0.6506 -1.0966 -0.0655
 1191TIP3    H227769   4.788   1.451  16.921  0.9225  0.9715 -0.0310
 1192TIP3   OH227770   3.238   6.483  16.295  0.2541 -0.4045 -0.4935
 1192TIP3    H127771   3.273   6.571  16.280  0.9396 -0.5312  0.2684
 1192TIP3    H227772   3.196   6.459  16.212 -0.4561  0.8649 -0.5133
 1193TIP3   OH227773   4.625   4.040  14.929  0.3849  0.2716 -0.7400
 1193TIP3    H127774   4.583   4.028  15.014 -0.5082  0.6146 -1.1273
 1193TIP3    H227775   4.638   4.135  14.922  1.0049  0.1917 -0.7359
 1194TIP3   OH227776   4.935   2.105  15.454 -0.0445 -0.6028  0.1059
 1194TIP3    H127777   5.015   2.069  15.492  0.3088 -0.8894 -0.8577
 1194TIP3    H227778   4.894   2.031  15.409  0.1965 -0.0368 -1.0956
 1195TIP3   OH227779   4.754   2.325  16.972  0.2550 -0.0266  0.5029
 1195TIP3    H127780   4.726   2.414  16.953  1.2233 -0.1260 -1.7508
 1195TIP3    H227781   4.673   2.274  16.977 -0.2201  0.5250 -0.9947
 1196TIP3   OH227782   6.666   3.258  15.692 -0.3895  0.2171 -0.2725
 1196TIP3    H127783   6.672   3.245  15.597  0.5377  0.2851 -0.2267
 1196TIP3    H227784   6.613   3.184  15.722 -1.3988  0.6390 -0.9327
 1197TIP3   OH227785   5.776   3.829  14.636 -0.2217 -0.7956  0.1319
 1197TIP3    H127786   5.712   3.901  14.638 -1.0327 -1.5099  1.9814
 1197TIP3    H227787   5.741   3.767  14.572 -0.8457 -0.6959  0.3699
 1198TIP3   OH227788   5.529   1.212  14.605  0.6135  0.0354 -0.3248
 1198TIP3    H127789   5.512   1.255  14.689  1.5223 -1.4292  0.6688
 1198TIP3    H227790   5.565   1.281  14.549 -0.5695  1.1745  0.2833
 1199TIP3   OH227791   0.271   5.006  15.006 -0.2715 -0.2960 -0.1324
 1199TIP3    H127792   0.358   5.046  15.008  1.2106 -2.6869 -4.4908
 1199TIP3    H227793   0.270   4.946  15.080  0.6889  1.5852  1.4880
 1200TIP3   OH227794   1.156   5.998  13.690  0.2460  0.1934  0.1940
 1200TIP3    H127795   1.243   6.035  13.675  0.6646 -0.9065 -0.2019
 1200TIP3    H227796   1.125   5.973  13.603 -0.8494  1.3441  0.2201
 1201TIP3   OH227797   1.578   3.381  15.134  0.1747 -0.5347  0.6148
 1201TIP3    H127798   1.503   3.385  15.075 -0.1851  0.1677  1.1058
 1201TIP3    H227799   1.652   3.361  15.077 -0.5525 -2.6242  0.2843
 1202TIP3   OH227800   3.850   5.023  14.018  0.4421  0.0613 -0.1047
 1202TIP3    H127801   3.880   4.946  13.971 -0.2088  0.5057 -1.2883
 1202TIP3    H227802   3.924   5.048  14.073  0.5988 -1.4926  0.4423
 1203TIP3   OH227803   1.342   3.774  16.797  0.0311  0.6856  0.0401
 1203TIP3    H127804   1.258   3.806  16.830  0.1439  1.5527 -0.4737
 1203TIP3    H227805   1.319   3.706  16.734 -0.1901 -0.9508  1.7813
 1204TIP3   OH227806   0.242   0.752  16.467  0.2430  0.3744 -0.7382
 1204TIP3    H127807   0.154   0.717  16.483  0.7389 -0.2478  0.8421
 1204TIP3    H227808   0.300   0.692  16.514  1.6380  0.1180 -2.6877
 1205TIP3   OH227809   0.535   6.150  14.063 -0.0966  0.1870 -0.2725
 1205TIP3    H127810   0.490   6.182  13.985 -2.6014 -3.2471 -0.4765
 1205TIP3    H227811   0.473   6.163  14.134 -0.0998 -1.5772  0.0898
 1206TIP3   OH227812   2.028   1.792  16.301  0.2477  0.3349  0.2178
 1206TIP3    H127813   1.955   1.796  16.240 -1.2094  2.1749  1.9602
 1206TIP3    H227814   1.997   1.836  16.379  2.5452 -0.6364  1.7993
 1207TIP3   OH227815   1.277   5.068  15.312  0.1022  0.5581 -0.3165
 1207TIP3    H127816   1.252   5.148  15.359 -0.1722 -0.5428  1.5018
 1207TIP3    H227817   1.367   5.051  15.339 -0.3891 -0.6399  0.6461
 1208TIP3   OH227818   5.860   2.499  15.835  0.2521 -0.0359  0.0890
 1208TIP3    H127819   5.936   2.544  15.798  0.8325 -0.0949  1.1631
 1208TIP3    H227820   5.787   2.559  15.821  0.3438 -0.2749 -1.5797
 1209TIP3   OH227821   6.650   4.365  15.761  0.2971 -0.6591 -0.4054
 1209TIP3    H127822   6.577   4.302  15.757 -0.4288  0.1984 -2.0607
 1209TIP3    H227823   6.723   4.319  15.719 -0.1393 -0.5551 -1.3188
 1210TIP3   OH227824   1.370   6.162  13.607  0.1424 -0.1368  0.3492
 1210TIP3    H127825   1.372   6.125  13.519  2.8551  0.5478  0.0596
 1210TIP3    H227826   1.443   6.224  13.610  0.5472 -0.5983  3.2712
 1211TIP3   OH227827   2.850   6.201  14.523  0.8518 -0.4543 -0.6624
 1211TIP3    H127828   2.917   6.138  14.497  1.2564 -0.4719  0.3889
 1211TIP3    H227829   2.819   6.169  14.608 -0.8777 -0.7519 -1.3565
 1212TIP3   OH227830   5.265   3.876  15.043  0.5391 -0.9604  0.0159
 1212TIP3    H127831   5.183   3.924  15.031  1.6431  0.4969 -2.2191
 1212TIP3    H227832   5.266   3.812  14.972  2.2930  0.5133 -1.3595
 1213TIP3   OH227833   2.664   4.190  15.645 -0.3804  0.0861 -0.3654
 1213TIP3    H127834   2.579   4.219  15.612 -0.6136  0.4910  0.5551
 1213TIP3    H227835   2.705   4.147  15.571 -1.9301 -1.3206 -0.4620
 1214TIP3   OH227836   6.352   2.600  14.780  0.0749 -0.0141 -0.1472
 1214TIP3    H127837   6.431   2.647  14.752 -0.2688 -0.0670 -1.2542
 1214TIP3    H227838   6.385   2.532  14.838  0.6349  1.2142  1.0380
 1215TIP3   OH227839   5.029   4.542  16.272 -0.5462 -0.0313 -0.0384
 1215TIP3    H127840   4.941   4.568  16.298 -1.0119  1.7504 -2.9334
 1215TIP3    H227841   5.062   4.616  16.222  1.5160 -1.7489 -1.4038
 1216TIP3   OH227842   2.445   2.912  15.504 -0.0937 -0.2215 -0.2168
 1216TIP3    H127843   2.535   2.882  15.518 -0.5248 -1.0304  1.0227
 1216TIP3    H227844   2.411   2.854  15.436  0.6758  0.9003 -1.6184
 1217TIP3   OH227845   6.542   1.163  16.227  0.3780  0.4901 -1.2560
 1217TIP3    H127846   6.483   1.146  16.301  1.4970  1.5295 -0.0692
 1217TIP3    H227847   6.546   1.080  16.180 -0.8638 -0.0161 -0.5070
 1218TIP3   OH227848   5.552   4.370  14.384  0.4578  0.2308 -0.2979
 1218TIP3    H127849   5.615   4.395  14.316  1.6882 -0.7170  0.4310
 1218TIP3    H227850   5.549   4.275  14.381  0.1352  0.1937  0.6122
 1219TIP3   OH227851   2.616   1.903  16.501 -0.0837  0.5880  0.0887
 1219TIP3    H127852   2.563   1.873  16.575 -1.3353  2.4332  0.0182
 1219TIP3    H227853   2.679   1.963  16.539 -1.5675  2.5754 -0.3835
 1220TIP3   OH227854   2.871   6.520  14.193 -0.1883  0.2827 -0.2512
 1220TIP3    H127855   2.936   6.457  14.163 -1.7448 -0.7111 -1.6207
 1220TIP3    H227856   2.833   6.556  14.113 -1.9326  0.2079  0.5178
 1221TIP3   OH227857   5.754   1.932  15.700 -0.8498 -0.4269  0.2220
 1221TIP3    H127858   5.803   1.983  15.764  0.5677 -1.6265  0.1285
 1221TIP3    H227859   5.710   1.998  15.646 -0.1509  0.6532  0.9331
 1222TIP3   OH227860   3.482   0.588  13.705 -0.0971  0.7466 -0.1588
 1222TIP3    H127861   3.552   0.626  13.652 -1.3381  0.9205 -1.7520
 1222TIP3    H227862   3.461   0.505  13.662 -1.4362  1.1040 -0.2528
 1223TIP3   OH227863   0.754   0.862  14.210 -0.1538  0.6220 -0.3053
 1223TIP3    H127864   0.716   0.778  14.185  1.0728 -0.1584  0.3513
 1223TIP3    H227865   0.686   0.926  14.191 -1.5236 -0.6407  0.1849
 1224TIP3   OH227866   0.415   4.601  16.508  0.2257  0.0309  0.2343
 1224TIP3    H127867   0.481   4.641  16.452 -1.8348  1.2890 -1.4771
 1224TIP3    H227868   0.438   4.629  16.597  0.4530  2.8487 -0.6081
 1225TIP3   OH227869   3.920   5.319  15.426 -0.1908 -0.1053 -0.1419
 1225TIP3    H127870   3.856   5.335  15.358 -2.7018 -0.6513  1.9415
 1225TIP3    H227871   3.959   5.235  15.404  0.0309  0.3391 -1.5484
 1226TIP3   OH227872   2.414   1.707  16.893 -0.2655 -0.1074 -0.7823
 1226TIP3    H127873   2.459   1.680  16.973  3.4302  0.1703 -2.5419
 1226TIP3    H227874   2.397   1.626  16.846 -2.4805 -0.2750  0.1974
 1227TIP3   OH227875   0.760   1.021  16.357 -0.0276  0.0798 -0.4607
 1227TIP3    H127876   0.699   0.989  16.424 -0.5312  0.9262 -0.4958
 1227TIP3    H227877   0.788   1.107  16.389  1.4411 -0.4485 -0.2797
 1228TIP3   OH227878   3.973   1.557  14.894  0.0519 -0.7506  0.1556
 1228TIP3    H127879   3.953   1.579  14.984 -0.3186  0.7914 -0.2799
 1228TIP3    H227880   4.009   1.468  14.898  3.0455  0.4230  2.1842
 1229TIP3   OH227881   0.195   3.663  15.812  0.5637  0.0160  0.6737
 1229TIP3    H127882   0.162   3.573  15.806 -0.4862  0.3531  1.1085
 1229TIP3    H227883   0.290   3.654  15.820  0.3982 -1.0982  1.6307
 1230TIP3   OH227884   5.060   0.965  15.150  0.2678  0.1257 -0.0267
 1230TIP3    H127885   5.148   0.977  15.115  0.1934  0.6735 -0.0273
 1230TIP3    H227886   5.007   1.033  15.109 -0.2126 -0.3404 -0.2034
 1231TIP3   OH227887   1.343   3.067  16.083  0.2519 -0.5050  0.3943
 1231TIP3    H127888   1.284   3.062  16.158  0.1561  1.0391  0.4518
 1231TIP3    H227889   1.345   3.160  16.061  0.2993 -0.9264 -1.5054
 1232TIP3   OH227890   5.650   2.948  14.435 -0.5994 -0.5375  0.6420
 1232TIP3    H127891   5.713   2.883  14.406 -2.6130 -1.3832 -2.2489
 1232TIP3    H227892   5.660   3.021  14.374 -2.5337 -0.8217 -0.0922
 1233TIP3   OH227893   5.806   3.379  13.589 -0.1927  0.5052 -0.0820
 1233TIP3    H127894   5.711   3.383  13.592 -0.2006  2.8671 -1.4042
 1233TIP3    H227895   5.828   3.298  13.636 -2.6938  1.0692  2.3370
 1234TIP3   OH227896   5.499   5.149  15.420 -0.6298  0.0073 -0.4113
 1234TIP3    H127897   5.543   5.070  15.389 -1.8728 -1.0093  0.3221
 1234TIP3    H227898   5.542   5.220  15.373  3.0001 -0.7014  1.5219
 1235TIP3   OH227899   3.508   4.666  16.672  0.4013  0.0598  0.0182
 1235TIP3    H127900   3.591   4.633  16.706  0.5549  1.2736  0.8879
 1235TIP3    H227901   3.530   4.751  16.634 -0.2916  0.0043 -0.5227
 1236TIP3   OH227902   2.827   1.881  16.851  0.0066  0.0379 -0.1298
 1236TIP3    H127903   2.821   1.785  16.856  0.8599 -0.1396 -1.7725
 1236TIP3    H227904   2.741   1.908  16.818  0.1181 -0.2707 -0.6916
 1237TIP3   OH227905   1.311   5.143  16.940  0.3387 -0.0785  0.5226
 1237TIP3    H127906   1.289   5.158  16.849  2.9698  0.0550 -0.1890
 1237TIP3    H227907   1.300   5.049  16.953  1.3613 -0.3579 -0.4233
 1238TIP3   OH227908   1.975   4.358  14.859  0.3935  0.1451 -0.0104
 1238TIP3    H127909   2.003   4.266  14.866 -3.5675 -1.2568 -0.0265
 1238TIP3    H227910   1.990   4.380  14.767  0.7822 -0.7356 -0.1713
 1239TIP3   OH227911   2.340   1.160  16.941 -0.3869 -1.4798  0.5000
 1239TIP3    H127912   2.326   1.067  16.924  0.1576 -1.3492 -0.8211
 1239TIP3    H227913   2.274   1.204  16.888  0.0905 -1.0957  0.2131
 1240TIP3   OH227914   2.823   0.107  14.673  0.0543 -0.0637 -0.1573
 1240TIP3    H127915   2.728   0.096  14.669  0.1118 -0.4253 -3.7761
 1240TIP3    H227916   2.838   0.197  14.643  0.8842 -0.0542  0.2568
 1241TIP3   OH227917   1.462   5.764  16.790 -0.0245 -0.2904  0.5017
 1241TIP3    H127918   1.367   5.751  16.796 -0.0446 -0.8342 -0.6200
 1241TIP3    H227919   1.499   5.677  16.807  0.0018 -1.3431 -3.8221
 1242TIP3   OH227920   4.919   4.414  15.513  0.5567 -0.0223  0.2625
 1242TIP3    H127921   4.841   4.375  15.472  0.6117 -0.2904  0.4059
 1242TIP3    H227922   4.926   4.368  15.597  0.0563  0.9855  0.8792
 1243TIP3   OH227923   5.348   4.743  16.689 -0.0768  0.2116  0.0297
 1243TIP3    H127924   5.370   4.816  16.632 -0.7668 -0.3897 -1.0363
 1243TIP3    H227925   5.264   4.767  16.728 -0.7665 -0.4009 -1.0417
 1244TIP3   OH227926   6.728   0.036  14.479 -0.1528  0.1968 -0.6244
 1244TIP3    H127927   6.761  -0.053  14.494  0.6181  0.5504 -0.1049
 1244TIP3    H227928   6.709   0.069  14.566 -1.5136  0.1592 -0.8964
 1245TIP3   OH227929   0.334   1.312  14.916  0.3351 -0.0746 -0.0281
 1245TIP3    H127930   0.391   1.315  14.839 -0.1463  0.9861 -0.3574
 1245TIP3    H227931   0.250   1.280  14.883  0.2104  0.1009  0.1193
 1246TIP3   OH227932   0.800   1.111  15.767  0.1773 -0.1905 -0.1544
 1246TIP3    H127933   0.879   1.110  15.820  0.2584  0.6544 -0.2511
 1246TIP3    H227934   0.743   1.044  15.807  0.8149 -0.5987  0.0817
 1247TIP3   OH227935   3.827   4.206  16.615 -0.5832 -0.0137  0.2181
 1247TIP3    H127936   3.858   4.292  16.587 -1.4518  0.3206  0.2457
 1247TIP3    H227937   3.843   4.149  16.540  2.2232 -0.4265  1.0089
 1248TIP3   OH227938   3.134   5.862  14.610  0.4501 -0.1707  0.3035
 1248TIP3    H127939   3.111   5.906  14.528  0.6646  0.1020  0.3880
 1248TIP3    H227940   3.059   5.878  14.668 -0.0227 -0.9640 -0.0641
 1249TIP3   OH227941   3.239   1.604  16.829 -0.1960  0.3490  0.7236
 1249TIP3    H127942   3.202   1.688  16.856  1.8377  1.0311  1.5062
 1249TIP3    H227943   3.243   1.610  16.734 -0.3975  0.9867  0.7478
 1250TIP3   OH227944   1.533   2.083  15.625  0.3436  0.2343  0.3874
 1250TIP3    H127945   1.572   2.066  15.540  2.2328 -1.8747  1.5779
 1250TIP3    H227946   1.441   2.061  15.614  0.8414 -1.4190 -0.7539
 1251TIP3   OH227947   2.352   4.651  15.092 -0.1841 -0.4044  0.0862
 1251TIP3    H127948   2.320   4.626  15.179  0.5979  0.5930  0.6698
 1251TIP3    H227949   2.294   4.604  15.032  0.3217 -2.5109  1.1159
 1252TIP3   OH227950   5.510   0.012  15.254 -0.7000  0.1093 -0.1759
 1252TIP3    H127951   5.546  -0.069  15.218  0.6261  0.6691 -0.1480
 1252TIP3    H227952   5.486  -0.011  15.344  0.9802  0.0690  0.3057
 1253TIP3   OH227953   1.049   3.208  16.637  0.0781 -0.3274  0.9641
 1253TIP3    H127954   1.110   3.194  16.565  0.5894  0.8067  1.1416
 1253TIP3    H227955   1.074   3.294  16.672 -1.9225  0.3631  0.7700
 1254TIP3   OH227956   1.231   1.723  15.031 -0.1191  0.4913 -0.1099
 1254TIP3    H127957   1.267   1.659  15.092  1.5878  0.2150 -1.3078
 1254TIP3    H227958   1.140   1.733  15.057 -0.0212 -1.2523  1.0873
 1255TIP3   OH227959   2.426   1.462  14.253 -0.0339  0.6485  0.0570
 1255TIP3    H127960   2.461   1.551  14.257 -0.0148  0.6777 -0.6397
 1255TIP3    H227961   2.338   1.469  14.292 -1.3462  1.6656 -2.8221
 1256TIP3   OH227962   1.576   3.535  16.557 -0.2477 -0.0550 -0.1687
 1256TIP3    H127963   1.612   3.485  16.631  0.5272 -0.8435 -1.0548
 1256TIP3    H227964   1.487   3.557  16.585 -0.0293 -0.4903  0.9289
 1257TIP3   OH227965   1.848   0.391  16.693  0.5819 -0.2149 -0.1101
 1257TIP3    H127966   1.810   0.476  16.673 -3.4418 -1.0312  2.8594
 1257TIP3    H227967   1.842   0.342  16.610  1.5805  1.8045 -1.4633
 1258TIP3   OH227968   2.415   2.412  15.037 -0.3162 -0.2603 -0.1628
 1258TIP3    H127969   2.451   2.486  14.989 -2.0118  0.1701 -0.8399
 1258TIP3    H227970   2.492   2.361  15.064  0.8204  1.1042 -0.6858
 1259TIP3   OH227971   4.974   6.611  16.719 -0.6785 -0.5123  0.2189
 1259TIP3    H127972   4.915   6.658  16.778 -1.5963 -0.1738 -0.9422
 1259TIP3    H227973   4.952   6.643  16.632 -0.4315 -2.1453 -0.4807
 1260TIP3   OH227974   5.806   0.929  15.887 -0.3212  0.5431 -0.1662
 1260TIP3    H127975   5.843   1.013  15.860 -0.1555  0.4226 -0.3149
 1260TIP3    H227976   5.761   0.897  15.809  0.4105  0.0540 -0.4033
 1261TIP3   OH227977   0.928   5.137  14.362 -0.1210 -0.1705 -0.2174
 1261TIP3    H127978   0.950   5.180  14.279  0.1902  0.2934  0.1012
 1261TIP3    H227979   0.832   5.130  14.361 -0.0482 -1.5968 -1.3171
 1262TIP3   OH227980   1.534   4.992  14.483  0.5931  0.4030 -0.7104
 1262TIP3    H127981   1.506   5.083  14.486  1.5681  0.6967  0.0975
 1262TIP3    H227982   1.489   4.950  14.556  2.2542  0.8960  0.6455
 1263TIP3   OH227983   4.048   6.310  14.583  0.2100  0.1355 -0.0400
 1263TIP3    H127984   4.133   6.346  14.556  0.2606  0.0368 -0.0100
 1263TIP3    H227985   3.990   6.329  14.509  0.1635  0.5443  0.0946
 1264TIP3   OH227986   4.661   3.323  17.031  0.1245 -0.0288 -0.0214
 1264TIP3    H127987   4.739   3.301  16.980  0.1618 -0.5620  0.2578
 1264TIP3    H227988   4.643   3.414  17.009  0.3736 -0.1331 -0.6808
 1265TIP3   OH227989   0.370   5.959  15.258 -0.0902 -0.2427 -0.0890
 1265TIP3    H127990   0.382   6.041  15.209 -1.9117  0.3159  0.3005
 1265TIP3    H227991   0.326   5.986  15.339 -0.8571 -1.6117 -0.0176
 1266TIP3   OH227992   1.760   4.029  17.011  0.2355  0.3146 -0.1067
 1266TIP3    H127993   1.732   4.108  16.964 -0.3121  0.0176 -0.2909
 1266TIP3    H227994   1.812   4.062  17.084  0.2685  0.8325 -0.3571
 1267TIP3   OH227995   6.431   2.803  15.904  0.5287  0.5693  0.5632
 1267TIP3    H127996   6.419   2.709  15.916 -0.2649  0.7117  0.9412
 1267TIP3    H227997   6.372   2.825  15.832  1.4867  0.6056 -0.2313
 1268TIP3   OH227998   3.796   2.872  17.218  0.5556  0.0104 -0.6487
 1268TIP3    H127999   3.841   2.945  17.261  1.0061  0.4961 -1.9161
 1268TIP3    H228000   3.703   2.886  17.240  0.9669 -1.2327  2.3127
 1269TIP3   OH228001   0.997   2.762  14.269  0.2822  0.0635  0.2074
 1269TIP3    H128002   0.941   2.703  14.219  0.6192 -1.9860  2.0790
 1269TIP3    H228003   0.939   2.800  14.335  0.5720 -0.2404  0.6513
 1270TIP3   OH228004   1.833   6.238  14.313  0.0889  0.3986  0.5933
 1270TIP3    H128005   1.919   6.199  14.301  0.2905  1.0640 -0.1730
 1270TIP3    H228006   1.778   6.198  14.246  0.5432  2.1176 -0.8784
 1271TIP3   OH228007   4.755   5.043  16.811 -0.3985 -1.0157 -0.0733
 1271TIP3    H128008   4.789   5.127  16.844 -1.7075 -0.4731 -0.0481
 1271TIP3    H228009   4.726   5.062  16.722 -2.6617 -0.8597  0.6372
 1272TIP3   OH228010   0.128   1.296  16.009  0.0477  0.3684 -0.1364
 1272TIP3    H128011   0.180   1.307  16.088  1.0898 -0.7892 -0.6244
 1272TIP3    H228012   0.167   1.221  15.965 -1.6716 -0.1577 -0.8421
 1273TIP3   OH228013   3.641   1.387  14.175 -0.5393  0.5804  0.5312
 1273TIP3    H128014   3.697   1.379  14.252  0.7423  0.8518 -0.3374
 1273TIP3    H228015   3.693   1.440  14.114  0.2637 -2.8443 -2.0728
 1274TIP3   OH228016   2.186   4.254  15.062 -0.0633 -0.7914  0.9818
 1274TIP3    H128017   2.187   4.327  15.000 -1.8615 -0.7913  0.9040
 1274TIP3    H228018   2.277   4.242  15.087  0.9280 -1.4723 -2.4728
 1275TIP3   OH228019   2.824   3.166  14.559 -0.7025 -0.4624  0.0458
 1275TIP3    H128020   2.872   3.193  14.638 -0.4405  1.6837 -0.7698
 1275TIP3    H228021   2.891   3.164  14.491 -1.4251  0.8982 -0.7540
 1276TIP3   OH228022   3.426   2.304  16.192  0.1001 -0.5977 -0.4850
 1276TIP3    H128023   3.373   2.371  16.235 -0.5971 -1.5006  0.1189
 1276TIP3    H228024   3.516   2.332  16.205 -0.1942  0.6999 -1.0658
 1277TIP3   OH228025   1.466   2.092  13.317  0.0577 -0.6449  0.4266
 1277TIP3    H128026   1.550   2.077  13.275  0.0739 -0.0634  0.2480
 1277TIP3    H228027   1.415   2.140  13.252  0.2122  0.6040  1.1943
 1278TIP3   OH228028   1.646   1.227  14.893 -0.0632 -0.0934  0.4062
 1278TIP3    H128029   1.558   1.264  14.883 -0.6272 -0.8561  2.1721
 1278TIP3    H228030   1.632   1.134  14.907  1.2222 -0.6895 -1.7893
 1279TIP3   OH228031   5.035   6.101  16.930 -0.3307  0.4688 -0.4125
 1279TIP3    H128032   5.027   6.190  16.896 -0.4318  0.3889 -0.5994
 1279TIP3    H228033   5.095   6.109  17.004 -1.6196  0.9849  0.6310
 1280TIP3   OH228034   2.499   1.866  15.295 -0.6351  0.2647  0.4542
 1280TIP3    H128035   2.415   1.827  15.272 -0.6136  0.3152  0.2866
 1280TIP3    H228036   2.501   1.950  15.247  0.1004 -0.3640 -0.6713
 1281TIP3   OH228037   4.620   4.952  14.811 -0.1911  0.1252 -0.6329
 1281TIP3    H128038   4.628   4.875  14.867  0.9257 -0.4447 -1.5284
 1281TIP3    H228039   4.706   4.960  14.769 -1.1975  0.0659 -2.8464
 1282TIP3   OH228040   1.457   1.391  14.383 -0.0215 -0.7593  0.0516
 1282TIP3    H128041   1.401   1.319  14.355  2.6744 -2.2608 -2.0353
 1282TIP3    H228042   1.546   1.360  14.367  1.4429  1.8636  2.1342
 1283TIP3   OH228043   0.656   0.335  13.883 -0.3385 -0.2670 -0.7130
 1283TIP3    H128044   0.710   0.380  13.948 -1.5656  0.1453  0.0646
 1283TIP3    H228045   0.714   0.319  13.809  0.9145 -0.1282  0.2177
 1284TIP3   OH228046   1.151   4.014  16.332  0.7083  0.3775 -0.2521
 1284TIP3    H128047   1.144   4.060  16.415 -0.5842  0.6345 -0.4836
 1284TIP3    H228048   1.110   3.929  16.348 -0.7334  0.9166 -0.9640
 1285TIP3   OH228049   6.567   4.728  17.123  0.4162 -0.5351 -0.4712
 1285TIP3    H128050   6.582   4.792  17.053 -0.5865 -0.1849 -0.3693
 1285TIP3    H228051   6.559   4.781  17.202  0.5904 -0.8661 -0.2304
 1286TIP3   OH228052   1.778   4.860  16.348  0.9081  0.3789 -0.5835
 1286TIP3    H128053   1.818   4.915  16.415  1.0189 -0.1082 -0.2491
 1286TIP3    H228054   1.732   4.791  16.397 -3.9251  3.1056 -0.6174
 1287TIP3   OH228055   6.126   1.673  16.383 -0.8842  0.5169  0.1179
 1287TIP3    H128056   6.061   1.607  16.358 -2.2919  1.8443  0.0831
 1287TIP3    H228057   6.182   1.682  16.306 -1.2783  0.0511 -0.2321
 1288TIP3   OH228058   3.858   5.929  15.632  0.4900  0.3366  0.2657
 1288TIP3    H128059   3.788   5.934  15.697  0.3779  1.1539  0.0918
 1288TIP3    H228060   3.861   5.837  15.606  2.1747 -0.5834  3.2240
 1289TIP3   OH228061   3.802   6.592  15.400  0.2428  0.2611  0.2360
 1289TIP3    H128062   3.779   6.508  15.440 -2.2041  0.8274  0.2332
 1289TIP3    H228063   3.894   6.584  15.378 -0.0852 -2.7578 -0.5295
 1290TIP3   OH228064   4.347   2.048  15.172  0.3481 -0.1164  0.0066
 1290TIP3    H128065   4.345   2.001  15.255 -1.9215  0.6701  0.4638
 1290TIP3    H228066   4.353   1.979  15.106  1.4035 -0.7820  0.7702
 1291TIP3   OH228067   0.096   0.888  14.313  0.0071  0.0592  0.4130
 1291TIP3    H128068   0.126   0.875  14.403 -0.1056  1.4195  0.6666
 1291TIP3    H228069   0.174   0.917  14.266  0.0299 -0.4997  0.1035
 1292TIP3   OH228070   3.684   4.323  15.581 -0.3801  0.0286  0.4293
 1292TIP3    H128071   3.748   4.387  15.610  0.1168  0.4470 -1.4529
 1292TIP3    H228072   3.717   4.239  15.614  0.0936  0.4843  1.1253
 1293TIP3   OH228073   6.010   6.612  14.326 -0.0840 -0.3149 -0.3328
 1293TIP3    H128074   5.973   6.609  14.414 -1.2591  2.4505 -0.6339
 1293TIP3    H228075   6.104   6.604  14.339 -0.1800  0.8142  1.2620
 1294TIP3   OH228076   0.424   4.198  14.334  0.0385  0.3469  0.3247
 1294TIP3    H128077   0.430   4.140  14.411  0.5266  0.5064  0.4107
 1294TIP3    H228078   0.334   4.228  14.334 -0.9400 -2.2593 -1.0576
 1295TIP3   OH228079   0.261   0.218  13.314 -0.1917  0.3816  0.1603
 1295TIP3    H128080   0.182   0.164  13.307 -0.7852  1.0177  1.6972
 1295TIP3    H228081   0.318   0.170  13.374  0.1010  0.5008 -0.0190
 1296TIP3   OH228082   6.200   0.600  13.854 -0.2604  0.2461  1.0758
 1296TIP3    H128083   6.282   0.616  13.807 -1.5933  0.9939 -1.1736
 1296TIP3    H228084   6.170   0.686  13.881 -1.7430  0.3694 -0.7998
 1297TIP3   OH228085   4.968   0.496  15.713 -0.0534  0.2175  0.1472
 1297TIP3    H128086   5.016   0.578  15.717  0.6999 -0.2404  1.0688
 1297TIP3    H228087   4.877   0.522  15.699  0.5282  1.0674 -2.6334
 1298TIP3   OH228088   4.939   0.384  16.476 -0.2088 -0.4039 -0.1337
 1298TIP3    H128089   4.988   0.338  16.408  0.7164 -1.2940  1.0820
 1298TIP3    H228090   4.903   0.313  16.531  0.8425  0.2696  1.5057
 1299TIP3   OH228091   4.235   1.348  14.291  0.3411  0.0520  0.0782
 1299TIP3    H128092   4.171   1.303  14.346 -1.3115  1.2219 -0.7967
 1299TIP3    H228093   4.275   1.413  14.349  0.7817 -0.6995  0.6321
 1300TIP3   OH228094   0.503   6.433  13.652  0.1241 -0.2151 -0.2601
 1300TIP3    H128095   0.437   6.481  13.703 -0.9190 -1.9350  0.0673
 1300TIP3    H228096   0.488   6.461  13.561 -1.0216 -0.5118 -0.1767
 1301TIP3   OH228097   0.474   1.690  15.207  1.0765  0.2823  0.4656
 1301TIP3    H128098   0.537   1.638  15.257  0.2341  0.7102  2.0157
 1301TIP3    H228099   0.410   1.625  15.175  1.0501  0.1414  0.8072
 1302TIP3   OH228100   3.723   4.092  13.861  0.2454 -0.0756  0.2500
 1302TIP3    H128101   3.694   4.002  13.845  1.1510 -0.3903  0.3228
 1302TIP3    H228102   3.654   4.146  13.823 -0.3984 -0.7987  0.3640
 1303TIP3   OH228103   6.289   4.507  14.783  0.1769  0.2551 -0.3310
 1303TIP3    H128104   6.212   4.529  14.836  0.4553 -0.2527  0.3092
 1303TIP3    H228105   6.276   4.415  14.761  1.4682 -0.3924  1.3532
 1304TIP3   OH228106   6.375   1.679  14.886 -0.4998 -0.7010  0.0093
 1304TIP3    H128107   6.397   1.735  14.812 -0.3168 -0.6941  0.0687
 1304TIP3    H228108   6.451   1.684  14.943  0.7760 -3.2679 -1.3068
 1305TIP3   OH228109   4.368   5.717  15.712 -0.1888  0.1276  0.3877
 1305TIP3    H128110   4.442   5.773  15.688 -1.6330  3.2444  2.5217
 1305TIP3    H228111   4.394   5.678  15.796 -0.2167 -0.3794  0.1642
 1306TIP3   OH228112   4.097   0.947  14.376  0.1118  0.7235 -0.0159
 1306TIP3    H128113   4.092   0.981  14.286  1.0418  0.7742 -0.0612
 1306TIP3    H228114   4.049   0.864  14.372  0.8676  0.2970 -0.7888
 1307TIP3   OH228115   4.496   6.728  17.104 -0.4731  0.1390  0.6038
 1307TIP3    H128116   4.534   6.740  17.191  0.2371  1.7118  0.1158
 1307TIP3    H228117   4.417   6.677  17.119  0.7716 -1.5197  1.9037
 1308TIP3   OH228118   2.786   3.672  14.351  0.2179 -0.0760 -0.6764
 1308TIP3    H128119   2.834   3.727  14.413 -1.2301  0.4201  0.0480
 1308TIP3    H228120   2.838   3.592  14.344  1.2112  0.4951 -0.0419
 1309TIP3   OH228121   3.110   1.363  15.464 -0.2514  0.1717  0.4083
 1309TIP3    H128122   3.074   1.378  15.376 -0.5852  0.6613  0.6257
 1309TIP3    H228123   3.179   1.428  15.473  0.3068 -0.3808  0.2229
 1310TIP3   OH228124   4.298   5.472  15.994  0.7196  0.3665  0.5020
 1310TIP3    H128125   4.390   5.493  16.013  0.4268  1.7105  0.5063
 1310TIP3    H228126   4.249   5.525  16.056 -0.0895  0.4210 -0.1751
 1311TIP3   OH228127   6.333   1.200  13.550 -0.5416  0.1242  0.2322
 1311TIP3    H128128   6.256   1.151  13.524 -1.9993  2.1362  0.4964
 1311TIP3    H228129   6.329   1.280  13.497 -0.0779  1.4242  2.0624
 1312TIP3   OH228130   1.597   4.658  16.877 -0.0670  0.0361  0.3215
 1312TIP3    H128131   1.578   4.589  16.814 -0.1144  0.2447  0.1073
 1312TIP3    H228132   1.681   4.695  16.848 -1.7571  2.5914 -1.8319
 1313TIP3   OH228133   1.389   1.711  15.790 -0.0137 -0.8308 -0.4282
 1313TIP3    H128134   1.406   1.734  15.698 -0.5194 -1.7237 -0.7562
 1313TIP3    H228135   1.440   1.632  15.805  0.1187 -0.6508  0.0881
 1314TIP3   OH228136   6.422   1.028  15.368  0.1129 -0.2299 -0.5175
 1314TIP3    H128137   6.516   1.012  15.382 -0.0195 -0.9419 -0.3777
 1314TIP3    H228138   6.408   1.118  15.397  0.2618 -0.9368  2.0047
 1315TIP3   OH228139   2.912   5.556  14.976  0.2489 -0.2189 -0.2026
 1315TIP3    H128140   2.923   5.466  14.946  2.5205 -0.1677  0.3108
 1315TIP3    H228141   2.910   5.608  14.896 -0.9529 -0.6732 -0.4975
 1316TIP3   OH228142   3.903   6.442  14.392 -0.2234 -0.4175  0.2114
 1316TIP3    H128143   3.906   6.467  14.299 -0.9740 -1.2891 -0.0673
 1316TIP3    H228144   3.873   6.522  14.437  0.5870  0.1498 -0.2233
 1317TIP3   OH228145   0.858   4.450  13.922  0.1864 -0.2221  0.4264
 1317TIP3    H128146   0.916   4.395  13.868  0.9770 -0.6416  1.6681
 1317TIP3    H228147   0.901   4.536  13.923 -1.2298  0.6236 -1.8109
 1318TIP3   OH228148   0.086   3.040  14.733  0.0623 -0.0385  0.0716
 1318TIP3    H128149  -0.001   3.014  14.763 -1.0604  1.3921 -1.7335
 1318TIP3    H228150   0.106   2.980  14.661 -0.5055  1.0350 -1.0343
 1319TIP3   OH228151   4.684   1.113  14.721 -0.6160 -0.5399 -0.2379
 1319TIP3    H128152   4.714   1.130  14.810  1.8124 -1.7455 -0.7465
 1319TIP3    H228153   4.737   1.171  14.666  0.9445 -2.7169 -1.1760
 1320TIP3   OH228154   0.458   4.081  15.936 -0.0331 -0.4253  0.2198
 1320TIP3    H128155   0.468   4.010  15.998  1.4078  2.0553  3.0954
 1320TIP3    H228156   0.544   4.091  15.896  0.4472  1.0051  1.5055
 1321TIP3   OH228157   2.658   3.569  16.874 -0.1653 -0.4843  0.0240
 1321TIP3    H128158   2.719   3.618  16.928  2.6377 -2.2198 -1.3519
 1321TIP3    H228159   2.620   3.504  16.933  0.1149 -0.0571  0.6810
 1322TIP3   OH228160   6.611   1.074  16.773  0.1883  0.2742 -0.2939
 1322TIP3    H128161   6.679   1.084  16.840  1.0533 -1.5762 -0.8277
 1322TIP3    H228162   6.551   1.009  16.809  1.8866 -2.5248 -2.0940
 1323TIP3   OH228163   5.233   3.620  15.606 -0.3201 -0.5873 -0.1539
 1323TIP3    H128164   5.306   3.629  15.544  1.0548 -1.4030  1.2434
 1323TIP3    H228165   5.167   3.570  15.558  0.6111 -1.0261 -1.0344
 1324TIP3   OH228166   0.193   0.350  14.027 -0.1795  0.7629  0.3568
 1324TIP3    H128167   0.272   0.297  14.041 -0.5137  0.2325  0.2511
 1324TIP3    H228168   0.205   0.426  14.085  0.5237  0.8182  0.1579
 1325TIP3   OH228169   4.753   1.109  16.785 -0.6607 -0.1767 -0.3138
 1325TIP3    H128170   4.789   1.116  16.873 -0.1419 -0.9539 -0.4476
 1325TIP3    H228171   4.759   1.015  16.764 -1.2273 -0.0745 -0.9854
 1326TIP3   OH228172   0.727   3.120  15.600 -0.0674 -0.1127 -0.2321
 1326TIP3    H128173   0.793   3.051  15.591 -0.4674 -0.4975 -0.2185
 1326TIP3    H228174   0.651   3.088  15.552 -0.0437  0.5990 -0.7674
 1327TIP3   OH228175   3.638   6.366  15.773  0.0476  0.9183 -0.1341
 1327TIP3    H128176   3.653   6.277  15.806 -0.4693  1.2588  1.0993
 1327TIP3    H228177   3.550   6.388  15.804 -0.2695  1.4576 -1.3890
 1328TIP3   OH228178   4.829   1.876  15.344  0.0714  0.2312  0.0534
 1328TIP3    H128179   4.800   1.818  15.414 -0.5137 -0.3262 -0.6421
 1328TIP3    H228180   4.893   1.825  15.294  0.9846  0.8544  0.5555
 1329TIP3   OH228181   6.547   3.243  14.829  0.1689 -0.4474 -0.2866
 1329TIP3    H128182   6.485   3.316  14.823  1.7581  1.2383  1.8732
 1329TIP3    H228183   6.529   3.204  14.915  1.8998 -0.0481  0.2958
 1330TIP3   OH228184   3.421   4.250  16.222  0.5171 -0.2284  0.1383
 1330TIP3    H128185   3.368   4.249  16.143  1.2889 -0.0117 -0.3969
 1330TIP3    H228186   3.436   4.343  16.240  0.9215 -0.2901  0.1354
 1331TIP3   OH228187   5.306   3.012  15.605 -0.8123 -0.1448  0.2837
 1331TIP3    H128188   5.273   3.023  15.515 -1.0733 -0.2938  0.3589
 1331TIP3    H228189   5.254   2.940  15.640 -2.8824  1.8126  1.5558
 1332TIP3   OH228190   0.359   1.754  15.524 -0.6535  0.2339  0.2546
 1332TIP3    H128191   0.285   1.719  15.474 -1.0867 -0.5427  1.4151
 1332TIP3    H228192   0.372   1.841  15.487 -0.2622 -0.6821 -1.9460
 1333TIP3   OH228193   6.020   2.414  15.543 -0.0624 -0.1644  0.1772
 1333TIP3    H128194   5.999   2.500  15.579  1.3202  1.2659 -2.1928
 1333TIP3    H228195   5.938   2.383  15.505 -0.5415  0.1182  0.9606
 1334TIP3   OH228196   5.319   0.369  15.912  0.3816 -0.2963  0.2862
 1334TIP3    H128197   5.246   0.429  15.929  0.6769 -0.2109  1.3396
 1334TIP3    H228198   5.298   0.292  15.964  1.1384 -0.1931  0.7502
 1335TIP3   OH228199   5.679   6.253  15.709 -0.1318 -0.6295 -0.1336
 1335TIP3    H128200   5.596   6.257  15.757 -0.7245  1.0084 -1.2168
 1335TIP3    H228201   5.668   6.180  15.648 -0.8476 -0.3359 -0.3662
 1336TIP3   OH228202   3.416   0.831  15.675 -0.1523  0.0854  0.0673
 1336TIP3    H128203   3.492   0.851  15.730 -1.1871 -1.9794  2.4208
 1336TIP3    H228204   3.439   0.750  15.631  0.2327  1.1690 -1.8320
 1337TIP3   OH228205   4.717   0.888  15.087 -0.4834 -0.3654  0.4231
 1337TIP3    H128206   4.652   0.895  15.017 -1.9306  1.4748  1.8624
 1337TIP3    H228207   4.683   0.943  15.157  2.5328  0.4928  1.3432
 1338TIP3   OH228208   0.150   4.768  14.138  0.8406 -0.1103 -0.2398
 1338TIP3    H128209   0.108   4.853  14.143 -0.7617 -0.8616 -0.2417
 1338TIP3    H228210   0.201   4.771  14.057  1.1630  0.9881 -0.0094
 1339TIP3   OH228211   2.205   0.922  15.803  0.6570 -0.3720 -0.4810
 1339TIP3    H128212   2.145   0.848  15.808  0.5748 -0.2935 -0.3086
 1339TIP3    H228213   2.238   0.921  15.712 -1.3786  0.9605 -1.3089
 1340TIP3   OH228214   5.022   1.165  16.929 -0.1995 -0.1641 -0.5832
 1340TIP3    H128215   5.104   1.196  16.966 -0.9842 -0.3239  1.4824
 1340TIP3    H228216   4.958   1.232  16.953 -0.8560 -0.5334 -1.2523
 1341TIP3   OH228217   1.886   6.555  15.298 -0.5321  1.0117 -0.3313
 1341TIP3    H128218   1.824   6.575  15.367  0.2654 -0.3862  0.8480
 1341TIP3    H228219   1.954   6.622  15.307 -1.0448  1.5726 -0.5778
 1342TIP3   OH228220   3.769   0.955  14.434 -0.5717 -0.4413  0.3619
 1342TIP3    H128221   3.772   0.873  14.483  0.1084 -0.0043  1.0883
 1342TIP3    H228222   3.709   0.938  14.362 -2.9630 -0.5945  2.2647
 1343TIP3   OH228223   5.115   2.391  16.007 -0.5364  0.0453  0.0316
 1343TIP3    H128224   5.057   2.461  15.979 -0.5177  0.5099  1.1071
 1343TIP3    H228225   5.147   2.418  16.093  0.4372 -0.7043 -0.0632
 1344TIP3   OH228226   4.466   4.116  15.420  0.3017 -0.4963  0.7112
 1344TIP3    H128227   4.477   4.076  15.334  0.0122 -1.6378  1.1935
 1344TIP3    H228228   4.380   4.086  15.450  0.4791 -0.2567  1.4854
 1345TIP3   OH228229   4.740   2.049  14.366  0.7277 -0.9587  0.1859
 1345TIP3    H128230   4.832   2.026  14.366  1.2088  0.3352  3.7501
 1345TIP3    H228231   4.734   2.126  14.423 -2.5826 -1.1103  0.2748
 1346TIP3   OH228232   4.490   4.379  17.047 -0.2271  0.5683  0.1714
 1346TIP3    H128233   4.529   4.456  17.088 -0.8518  0.8252  0.2977
 1346TIP3    H228234   4.415   4.413  16.998 -1.0477 -0.0469  0.9478
 1347TIP3   OH228235   3.679   0.935  16.269 -0.9713  0.1312 -0.5310
 1347TIP3    H128236   3.643   0.922  16.356  1.1031 -0.6326  0.2820
 1347TIP3    H228237   3.715   0.850  16.245  1.2762  1.0621 -0.7478
 1348TIP3   OH228238   3.222   1.672  15.311 -0.1506  0.0344  0.3826
 1348TIP3    H128239   3.225   1.738  15.380 -3.2938  1.4103 -0.6105
 1348TIP3    H228240   3.281   1.602  15.342  1.4745  2.2119  2.5842
 1349TIP3   OH228241   4.402   3.243  14.323 -0.0621 -0.0683  0.4518
 1349TIP3    H128242   4.413   3.160  14.278 -0.9018 -0.0800  0.2609
 1349TIP3    H228243   4.410   3.309  14.254  1.4717  0.0742  0.7304
 1350TIP3   OH228244   1.781   0.875  13.730  0.1593  0.3384  0.2778
 1350TIP3    H128245   1.849   0.926  13.774 -0.2666  1.1252  0.0552
 1350TIP3    H228246   1.827   0.798  13.695  0.6201  0.0453  1.4930
 1351TIP3   OH228247   5.083   4.820  16.758 -0.0984  0.3715  0.0522
 1351TIP3    H128248   5.018   4.785  16.697 -0.7246 -1.1202  1.5350
 1351TIP3    H228249   5.071   4.915  16.752 -1.0177  0.2093 -1.1850
 1352TIP3   OH228250   1.420   1.488  13.491  0.3571 -0.3822 -0.6483
 1352TIP3    H128251   1.410   1.399  13.458  0.8033 -1.1757  1.2479
 1352TIP3    H228252   1.394   1.482  13.583  0.7930  1.3648 -0.3873
 1353TIP3   OH228253   6.125   0.730  15.219  0.3761  0.7819 -0.2932
 1353TIP3    H128254   6.105   0.654  15.164  1.1040  1.8759 -2.1773
 1353TIP3    H228255   6.077   0.802  15.178  1.7391  1.8408 -0.1048
 1354TIP3   OH228256   6.043   2.119  13.959  0.7429  0.3898 -0.1448
 1354TIP3    H128257   5.998   2.035  13.953  0.5607  0.5745 -1.8639
 1354TIP3    H228258   6.085   2.118  14.045 -2.1030 -0.0184  1.3543
 1355TIP3   OH228259   3.024   3.827  16.339  0.7768 -0.0802 -0.1427
 1355TIP3    H128260   3.037   3.815  16.433  0.7005 -0.0562 -0.1287
 1355TIP3    H228261   3.053   3.916  16.322 -2.3790  1.1951  0.4763
 1356TIP3   OH228262   4.537   5.554  16.817  0.7400 -0.4358 -0.0956
 1356TIP3    H128263   4.574   5.593  16.896 -0.9366  0.5828  0.2268
 1356TIP3    H228264   4.553   5.618  16.748 -0.7516  0.2335  0.1409
 1357TIP3   OH228265   6.678   1.736  13.529  0.3125  0.3594 -0.3230
 1357TIP3    H128266   6.656   1.827  13.509  1.0501  0.3887 -1.0248
 1357TIP3    H228267   6.766   1.740  13.565 -0.1576  0.0560  0.9094
 1358TIP3   OH228268   1.803   5.289  17.071 -0.1064  0.3972 -0.3515
 1358TIP3    H128269   1.776   5.211  17.120  0.1913  1.1167  1.0073
 1358TIP3    H228270   1.724   5.316  17.024 -0.7838  0.3907  0.7283
 1359TIP3   OH228271   3.655   1.850  14.622  0.3510 -0.2916  0.1056
 1359TIP3    H128272   3.712   1.776  14.645  0.2220 -0.3614  0.2018
 1359TIP3    H228273   3.701   1.927  14.655  0.9370 -0.2318 -0.8020
 1360TIP3   OH228274   4.884   1.942  16.238  0.6039  0.0451 -0.6530
 1360TIP3    H128275   4.868   1.913  16.149 -1.3741 -0.4304 -0.1941
 1360TIP3    H228276   4.873   2.037  16.236  2.2651  0.2669 -1.2002
 1361TIP3   OH228277   1.957   5.058  15.275  0.3159  0.1931 -0.0539
 1361TIP3    H128278   1.975   5.152  15.286  0.4211  0.1174  0.4353
 1361TIP3    H228279   1.945   5.047  15.180  2.0318  0.3970 -0.3310
 1362TIP3   OH228280   2.378   4.177  15.231  0.1290  0.1499 -1.1343
 1362TIP3    H128281   2.337   4.125  15.300 -2.6062  1.0925 -1.9057
 1362TIP3    H228282   2.450   4.223  15.274 -0.9332  0.0212  0.8700
 1363TIP3   OH228283   5.613   3.246  16.979  0.1875  0.0411  0.0625
 1363TIP3    H128284   5.565   3.254  17.061  0.0305  0.1443 -0.0382
 1363TIP3    H228285   5.546   3.236  16.912  0.2649  1.1292 -0.1911
 1364TIP3   OH228286   0.549   3.827  15.806 -0.0022 -0.0622 -0.1529
 1364TIP3    H128287   0.474   3.876  15.771 -0.0806 -0.0836 -0.0158
 1364TIP3    H228288   0.596   3.797  15.729  0.7680  1.3191 -0.2556
 1365TIP3   OH228289   6.073   1.818  16.044  0.2307 -0.5173 -0.6490
 1365TIP3    H128290   6.147   1.771  16.081 -0.0819 -0.8952 -0.4964
 1365TIP3    H228291   6.105   1.852  15.960  1.6534  2.2026  0.8630
 1366TIP3   OH228292   6.626   3.554  16.456 -0.1377 -0.1756 -0.6201
 1366TIP3    H128293   6.631   3.617  16.528  1.5590 -0.4164 -0.4892
 1366TIP3    H228294   6.550   3.500  16.477 -2.0529  2.1733 -1.0662
 1367TIP3   OH228295   6.564   0.012  14.929  0.0535 -0.3433 -0.4903
 1367TIP3    H128296   6.595  -0.004  14.840  0.5113  0.1254 -0.4194
 1367TIP3    H228297   6.643   0.010  14.983 -0.1593 -0.1297 -0.1642
 1368TIP3   OH228298   5.458   2.044  14.658 -0.1829 -0.2207 -1.1339
 1368TIP3    H128299   5.463   2.033  14.753  0.9109 -1.1359 -1.2852
 1368TIP3    H228300   5.470   1.956  14.623  0.6531  0.2816 -2.1565
 1369TIP3   OH228301   2.364   2.153  13.081  0.3231 -0.0601 -0.1880
 1369TIP3    H128302   2.289   2.204  13.050 -0.2902 -0.3648  0.7424
 1369TIP3    H228303   2.419   2.216  13.127 -0.4809 -0.2107  1.0437
 1370TIP3   OH228304   1.753   4.306  17.022 -0.4352  0.2364 -0.1755
 1370TIP3    H128305   1.695   4.294  16.947 -0.5327  2.8679 -0.6197
 1370TIP3    H228306   1.821   4.365  16.990  1.5895 -1.4489  0.8193
 1371TIP3   OH228307   5.949   5.474  16.704  0.0522  0.1861  0.2185
 1371TIP3    H128308   6.023   5.421  16.734  2.0443  2.0195 -1.1740
 1371TIP3    H228309   5.932   5.443  16.615 -0.1937  0.4521  0.1715
 1372TIP3   OH228310   1.001   1.037  14.495  0.1412  0.8460 -0.1360
 1372TIP3    H128311   1.012   1.006  14.405  2.3562  0.8363  0.0979
 1372TIP3    H228312   1.083   1.082  14.516  0.0482  0.0785  2.1718
 1373TIP3   OH228313   3.434   4.418  15.826 -0.0753  0.9897  0.2685
 1373TIP3    H128314   3.520   4.449  15.797  0.2684  1.4415  1.7224
 1373TIP3    H228315   3.432   4.326  15.799  0.3947  1.2686 -0.7770
 1374TIP3   OH228316   5.039   3.423  17.022  0.1097  0.2581 -0.1060
 1374TIP3    H128317   5.004   3.477  16.951 -0.2099  0.0215 -0.1280
 1374TIP3    H228318   5.119   3.384  16.985 -0.6520 -0.7519 -0.7219
 1375TIP3   OH228319   1.741   1.946  13.888 -0.7529  0.0275  0.5862
 1375TIP3    H128320   1.685   1.970  13.962 -0.5103  1.5326  0.2946
 1375TIP3    H228321   1.685   1.954  13.811 -0.8597 -1.0404  0.5373
 1376TIP3   OH228322   6.539   4.496  15.419  0.6590  0.4146 -0.6940
 1376TIP3    H128323   6.590   4.535  15.491 -1.7165 -0.6042  1.7039
 1376TIP3    H228324   6.491   4.570  15.382  0.0829  0.5964  0.3871
 1377TIP3   OH228325   2.679   2.545  14.442 -0.3819 -0.5240 -0.1436
 1377TIP3    H128326   2.758   2.594  14.418 -1.7068  0.5891 -2.5190
 1377TIP3    H228327   2.633   2.601  14.504 -0.0544 -0.4957  0.0755
 1378TIP3   OH228328   6.125   4.695  15.115  0.1325  0.0526 -0.1759
 1378TIP3    H128329   6.089   4.682  15.203  1.9548  1.1293  0.7915
 1378TIP3    H228330   6.103   4.614  15.068  0.7359 -1.3619  1.8477
 1379TIP3   OH228331   2.043   3.238  17.094 -0.1991 -0.2853 -0.4296
 1379TIP3    H128332   2.017   3.265  17.006 -0.3891 -0.9835 -0.5994
 1379TIP3    H228333   1.989   3.290  17.153 -0.4175 -0.1574 -0.7417
 1380TIP3   OH228334   4.301   0.997  15.508  0.4481 -0.0730  0.0537
 1380TIP3    H128335   4.265   0.998  15.597  2.0788 -1.5813  0.7940
 1380TIP3    H228336   4.225   1.006  15.451 -0.8472 -0.8185  1.5838
 1381TIP3   OH228337   0.600   2.924  14.204  0.0914  0.3458 -0.1733
 1381TIP3    H128338   0.656   2.945  14.129  0.0848  1.4691  0.1185
 1381TIP3    H228339   0.647   2.959  14.279 -0.6415  0.5986  0.1693
 1382TIP3   OH228340   0.362   0.309  14.461 -0.3843 -0.0290 -0.2389
 1382TIP3    H128341   0.419   0.264  14.398 -0.3149  2.3423 -2.0404
 1382TIP3    H228342   0.274   0.299  14.425 -0.4187  0.8150 -0.4209
 1383TIP3   OH228343   4.936   3.983  16.406 -0.4745 -0.3070  0.1067
 1383TIP3    H128344   4.973   3.895  16.415  0.0600 -0.0639  0.2967
 1383TIP3    H228345   4.959   4.010  16.317 -1.0519 -0.5412 -0.1241
 1384TIP3   OH228346   6.226   1.648  17.034 -0.8003  0.2145  0.1677
 1384TIP3    H128347   6.224   1.741  17.056  0.9405  0.7077 -1.4470
 1384TIP3    H228348   6.148   1.634  16.981  0.2143  1.4251 -1.7569
 1385TIP3   OH228349   1.768   0.403  13.915  0.1342 -0.2324 -0.2594
 1385TIP3    H128350   1.724   0.457  13.980 -0.3827  1.2110 -1.7410
 1385TIP3    H228351   1.830   0.462  13.872  0.9040 -1.3065 -0.6662
 1386TIP3   OH228352   4.211   0.644  15.124  0.1879 -0.1089 -0.1932
 1386TIP3    H128353   4.163   0.572  15.164  0.4850  0.1878  0.7119
 1386TIP3    H228354   4.169   0.723  15.157  1.1199  0.1503  0.4024
 1387TIP3   OH228355   0.564   0.071  14.827  0.8526 -0.6134  0.8167
 1387TIP3    H128356   0.639   0.024  14.791  0.4465 -0.3888 -0.3571
 1387TIP3    H228357   0.492   0.054  14.766  0.7063  1.5262  0.2955
 1388TIP3   OH228358   2.212   5.497  16.315  0.0641 -0.1235 -1.0374
 1388TIP3    H128359   2.163   5.560  16.262 -0.3203 -0.4688 -1.0989
 1388TIP3    H228360   2.284   5.547  16.352 -0.6195  0.5133 -0.5404
 1389TIP3   OH228361   1.048   0.868  15.387 -0.3713 -0.2121 -0.3097
 1389TIP3    H128362   1.091   0.931  15.329  1.1626 -2.6907 -2.0353
 1389TIP3    H228363   0.982   0.825  15.333 -1.9765  0.3765  1.0749
 1390TIP3   OH228364   3.664   5.885  15.891  0.3828 -0.1703  0.3240
 1390TIP3    H128365   3.590   5.875  15.832 -0.3644  0.4860  1.1187
 1390TIP3    H228366   3.654   5.972  15.928  1.9203  0.1875 -0.0239
 1391TIP3   OH228367   3.897   3.089  16.445 -0.0580 -0.5641  0.5039
 1391TIP3    H128368   3.867   3.008  16.405 -0.3348  0.4659 -1.5357
 1391TIP3    H228369   3.819   3.127  16.485 -0.2747 -0.5523  0.0760
 1392TIP3   OH228370   0.976   0.306  15.296  0.2134  0.5128  0.3337
 1392TIP3    H128371   0.908   0.345  15.351 -0.6209  0.4659 -0.6293
 1392TIP3    H228372   1.054   0.357  15.314 -1.1132  3.6138 -1.8478
 1393TIP3   OH228373   1.909   5.526  14.879 -0.2538 -0.4481  0.1275
 1393TIP3    H128374   1.929   5.582  14.804 -0.2095 -0.5272  0.0805
 1393TIP3    H228375   1.813   5.520  14.879 -0.5508  2.3748  2.1230
 1394TIP3   OH228376   0.775   1.291  13.526 -0.3191  0.4986 -0.8040
 1394TIP3    H128377   0.775   1.297  13.622 -0.2189 -0.3281 -0.7474
 1394TIP3    H228378   0.778   1.382  13.497  0.8182  0.7419 -0.0156
 1395TIP3   OH228379   4.588   2.738  16.079  0.6828  0.0193 -0.0192
 1395TIP3    H128380   4.570   2.647  16.054  0.4874 -0.3490  1.3787
 1395TIP3    H228381   4.523   2.789  16.031 -0.5437 -0.7907  0.7082
 1396TIP3   OH228382   5.427   5.382  14.862  0.2281  0.1170  0.1543
 1396TIP3    H128383   5.415   5.356  14.954  2.2808  0.6490  0.6231
 1396TIP3    H228384   5.487   5.456  14.866 -1.2129  1.4461 -1.5277
 1397TIP3   OH228385   5.779   3.471  15.800  0.5008 -0.0130 -0.3257
 1397TIP3    H128386   5.865   3.493  15.834  0.7572 -0.9181 -0.3674
 1397TIP3    H228387   5.755   3.390  15.845  0.4473 -0.7348 -1.6056
 1398TIP3   OH228388   4.373   6.141  14.737 -0.4879  0.2646 -0.4090
 1398TIP3    H128389   4.450   6.164  14.789 -1.5404  1.8886  0.5329
 1398TIP3    H228390   4.364   6.212  14.673 -0.3909 -0.6595 -1.4862
 1399TIP3   OH228391   1.595   2.472  14.722  0.6448  0.0700  0.0155
 1399TIP3    H128392   1.638   2.516  14.648  0.2782 -0.6280 -0.6309
 1399TIP3    H228393   1.624   2.381  14.716  0.2889 -0.0766  0.4880
 1400TIP3   OH228394   4.996   6.048  16.159  0.2615 -0.3668 -0.2380
 1400TIP3    H128395   4.982   6.082  16.248  0.5284  0.0008 -0.3357
 1400TIP3    H228396   4.997   5.953  16.171  0.1452 -0.3249  0.1327
 1401TIP3   OH228397   6.317   2.048  13.467 -0.1876  0.1662 -0.4380
 1401TIP3    H128398   6.331   2.097  13.548 -0.3521 -2.3266  1.2314
 1401TIP3    H228399   6.222   2.041  13.459 -0.2265 -1.9689  0.8505
 1402TIP3   OH228400   6.142   3.955  15.307 -0.6022 -0.2127 -0.1316
 1402TIP3    H128401   6.072   4.021  15.307 -0.0868  0.4773 -2.6891
 1402TIP3    H228402   6.206   3.990  15.245  0.5616 -2.2705 -0.1631
 1403TIP3   OH228403   3.175   3.739  15.548  0.0333  0.2231 -0.2242
 1403TIP3    H128404   3.232   3.671  15.511 -1.9387 -0.5812 -1.9661
 1403TIP3    H228405   3.192   3.817  15.495 -1.4418 -0.4109 -1.6938
 1404TIP3   OH228406   0.380   6.090  16.216 -0.0237 -0.0959  0.3944
 1404TIP3    H128407   0.444   6.150  16.177 -0.7166 -0.0787 -0.7519
 1404TIP3    H228408   0.409   6.003  16.190  0.2452 -0.1831  0.9622
 1405TIP3   OH228409   4.424   0.195  15.038 -0.1006 -0.0712 -0.4135
 1405TIP3    H128410   4.436   0.153  15.123 -2.5187 -2.9485 -1.2977
 1405TIP3    H228411   4.428   0.288  15.056 -2.0205 -0.5019  3.2110
 1406TIP3   OH228412   2.395   3.234  14.067 -0.0477  0.0099  0.0225
 1406TIP3    H128413   2.334   3.168  14.101 -1.3745  0.3646 -1.5306
 1406TIP3    H228414   2.349   3.317  14.078  1.1361  0.5723  0.9106
 1407TIP3   OH228415   3.381   4.832  16.864 -0.1792 -0.1336  0.1588
 1407TIP3    H128416   3.346   4.765  16.922  0.0955  0.3282  0.8746
 1407TIP3    H228417   3.393   4.788  16.780 -2.3649 -0.3263 -0.0889
 1408TIP3   OH228418   6.158   1.566  13.668  0.1782 -0.0013 -0.0600
 1408TIP3    H128419   6.111   1.606  13.741  1.1666 -0.3152  0.7748
 1408TIP3    H228420   6.164   1.473  13.692  2.0612  0.1896  0.3502
 1409TIP3   OH228421   3.822   1.441  16.176  0.1126  0.6483  0.0872
 1409TIP3    H128422   3.824   1.530  16.212  0.2313  0.6928 -0.0273
 1409TIP3    H228423   3.734   1.409  16.195 -1.0326  1.8890 -2.5152
 1410TIP3   OH228424   1.791   5.791  14.970 -0.6703  0.2659 -0.6031
 1410TIP3    H128425   1.868   5.736  14.979 -1.1193 -0.2820 -0.0257
 1410TIP3    H228426   1.784   5.837  15.054 -0.5432  0.8860 -0.9269
 1411TIP3   OH228427   3.125   1.459  14.361  0.3547 -0.2119  0.2967
 1411TIP3    H128428   3.217   1.438  14.345  0.0028  0.2089 -3.0265
 1411TIP3    H228429   3.126   1.553  14.382  0.6306  0.0503 -0.8228
 1412TIP3   OH228430   6.435   1.751  15.447 -0.2921 -0.3630 -0.1149
 1412TIP3    H128431   6.374   1.813  15.487 -1.7827 -0.3570 -2.2504
 1412TIP3    H228432   6.522   1.787  15.468 -0.9855  0.2592  2.0032
 1413TIP3   OH228433   6.336   0.195  14.681  0.4924  0.1130  0.6989
 1413TIP3    H128434   6.320   0.102  14.664 -0.5247  0.2496  0.8495
 1413TIP3    H228435   6.399   0.221  14.614  0.9365 -0.7163  0.7639
 1414TIP3   OH228436   1.421   4.857  16.960  0.4015  0.3462 -0.0576
 1414TIP3    H128437   1.332   4.856  16.926  1.0374  2.3947 -1.9672
 1414TIP3    H228438   1.461   4.777  16.927 -0.2644  0.2062 -0.5255
 1415TIP3   OH228439   0.825   5.124  15.999 -0.3795  0.2204  0.2384
 1415TIP3    H128440   0.792   5.094  15.914  0.0205  0.4762 -0.0138
 1415TIP3    H228441   0.792   5.214  16.007 -0.9892 -0.0358  0.6714
 1416TIP3   OH228442   0.844   5.378  15.528 -0.2819 -0.0440 -0.3501
 1416TIP3    H128443   0.877   5.288  15.530  0.8376  0.3618  0.2103
 1416TIP3    H228444   0.854   5.409  15.618  1.6781  1.4343 -1.0151
 1417TIP3   OH228445   2.934   4.064  13.772 -0.1303 -0.2217  0.2571
 1417TIP3    H128446   2.915   3.970  13.768 -0.6934 -0.1860  1.5221
 1417TIP3    H228447   2.870   4.099  13.834 -0.2622  1.1004 -0.5793
 1418TIP3   OH228448   3.958   3.814  14.866  0.5293 -0.3247 -0.3789
 1418TIP3    H128449   4.017   3.852  14.801  0.0890 -0.4694 -0.8706
 1418TIP3    H228450   3.879   3.867  14.860  0.3465 -0.5803 -0.2312
 1419TIP3   OH228451   6.190   3.913  16.688  0.1871  0.0500  0.4727
 1419TIP3    H128452   6.107   3.948  16.722 -0.0670 -0.3682  0.2934
 1419TIP3    H228453   6.257   3.959  16.738 -0.1536  0.4040  0.6125
 1420TIP3   OH228454   2.379   5.004  16.139  0.3470 -0.2866  0.0228
 1420TIP3    H128455   2.468   4.986  16.168  0.6940  1.2260 -0.0103
 1420TIP3    H228456   2.375   4.970  16.050  0.5215 -1.3738  0.4142
 1421TIP3   OH228457   5.987   4.174  15.261  0.5719 -0.1294 -0.8892
 1421TIP3    H128458   6.013   4.190  15.170 -0.6350  0.6336 -1.1234
 1421TIP3    H228459   5.894   4.197  15.263  0.6992  0.2982  0.6592
 1422TIP3   OH228460   0.153   4.235  14.487  0.2653  0.4913 -0.2195
 1422TIP3    H128461   0.155   4.262  14.578  0.7032  3.0501 -0.9027
 1422TIP3    H228462   0.063   4.207  14.472  0.1648  0.1519  0.9376
 1423TIP3   OH228463   4.996   2.962  13.913 -0.3034 -0.0759 -0.1772
 1423TIP3    H128464   4.969   2.965  13.821  0.2160  2.6868 -0.3282
 1423TIP3    H228465   4.934   3.020  13.958  2.0921  2.2844  0.3393
 1424TIP3   OH228466   3.123   4.396  16.663  0.0363  0.3993 -0.5774
 1424TIP3    H128467   3.141   4.486  16.635  1.9358 -0.1087 -1.1761
 1424TIP3    H228468   3.203   4.370  16.709 -1.1836 -0.3982  1.2154
 1425TIP3   OH228469   2.845   4.823  16.467  0.3878 -0.0433 -0.0409
 1425TIP3    H128470   2.750   4.824  16.482  0.4453 -0.6937  0.3902
 1425TIP3    H228471   2.880   4.777  16.542  1.2286  1.8030  0.7640
 1426TIP3   OH228472   5.855   0.384  14.549 -0.4765  0.0395  0.7908
 1426TIP3    H128473   5.904   0.306  14.574  0.4223  0.0577 -0.7883
 1426TIP3    H228474   5.790   0.353  14.486 -0.1733  0.5374  0.2213
 1427TIP3   OH228475   2.364   2.712  14.149 -0.0416 -0.2498 -0.1485
 1427TIP3    H128476   2.332   2.656  14.220  0.9475 -1.0997 -0.3519
 1427TIP3    H228477   2.407   2.785  14.194 -1.8938  0.7224  0.1245
 1428TIP3   OH228478   5.173   5.303  15.723 -0.3438  0.5199  0.1423
 1428TIP3    H128479   5.154   5.214  15.694 -0.2442 -0.4663  2.7766
 1428TIP3    H228480   5.267   5.313  15.711 -0.5164  0.6803 -1.1459
 1429TIP3   OH228481   4.825   0.994  16.053  0.1997 -0.5265 -0.0169
 1429TIP3    H128482   4.828   0.899  16.057 -0.4689 -0.5244  1.3786
 1429TIP3    H228483   4.844   1.016  15.962  0.5149 -1.9779 -0.3182
 1430TIP3   OH228484   4.492   3.105  13.971 -0.7492  0.1613  0.1129
 1430TIP3    H128485   4.456   3.106  14.060 -2.6745 -1.1552 -0.5861
 1430TIP3    H228486   4.420   3.134  13.915 -0.1213 -0.6597 -1.1815
 1431TIP3   OH228487   6.166   0.143  15.165  0.4529 -0.0230 -0.1336
 1431TIP3    H128488   6.075   0.173  15.164 -0.2090 -1.9162  0.4761
 1431TIP3    H228489   6.182   0.112  15.076  0.6664  0.6760 -0.3527
 1432TIP3   OH228490   4.941   3.896  15.820  0.5143  0.0920  0.0988
 1432TIP3    H128491   4.912   3.823  15.765  1.1867  0.8752 -1.3625
 1432TIP3    H228492   4.866   3.956  15.821 -0.3039 -0.8707  1.8807
 1433TIP3   OH228493   4.523   1.869  16.110  0.3309 -0.1549  0.3212
 1433TIP3    H128494   4.605   1.820  16.112  0.1823 -0.5521 -1.6979
 1433TIP3    H228495   4.482   1.844  16.028 -0.8098  1.6595  0.2883
 1434TIP3   OH228496   0.479   5.258  15.434 -0.2516  0.8808  0.1786
 1434TIP3    H128497   0.539   5.324  15.401 -0.2962 -0.2721 -2.4563
 1434TIP3    H228498   0.397   5.273  15.386  0.2929 -2.1331 -2.0029
 1435TIP3   OH228499   1.738   5.289  14.392 -0.7003  0.4325 -0.1397
 1435TIP3    H128500   1.688   5.339  14.329 -1.3906  0.8515  0.7121
 1435TIP3    H228501   1.748   5.347  14.467  2.5366  1.0166 -0.8586
 1436TIP3   OH228502   4.999   2.790  16.374  0.0550  0.2538  0.4397
 1436TIP3    H128503   4.920   2.826  16.413 -0.1204 -0.4029  0.7113
 1436TIP3    H228504   5.043   2.865  16.333  0.1782  0.9306  1.7686
 1437TIP3   OH228505   4.162   3.445  14.644  0.4323  0.2163 -0.3818
 1437TIP3    H128506   4.121   3.512  14.698  0.2098  1.2729 -1.8114
 1437TIP3    H228507   4.149   3.364  14.693  0.5064  1.1584  1.2755
 1438TIP3   OH228508   4.002   4.470  14.186 -0.1956  0.0676  0.1549
 1438TIP3    H128509   4.056   4.469  14.107 -1.8321  1.6155 -1.0797
 1438TIP3    H228510   3.934   4.405  14.168 -0.2581  0.0284  0.5287
 1439TIP3   OH228511   4.881   0.228  14.755 -0.0518 -0.1848 -0.4660
 1439TIP3    H128512   4.906   0.151  14.806 -0.3420 -1.1700 -1.7475
 1439TIP3    H228513   4.958   0.286  14.759 -0.3291  0.0893  1.6150
 1440TIP3   OH228514   1.913   4.609  13.993 -0.0037 -0.1238  0.0875
 1440TIP3    H128515   1.831   4.651  14.016  0.4576 -0.3283  2.2708
 1440TIP3    H228516   1.974   4.634  14.062  1.7088 -0.2377 -1.2995
 1441TIP3   OH228517   0.727   6.168  15.599  0.0201  0.3862  0.6549
 1441TIP3    H128518   0.731   6.258  15.631  1.0005  0.0005  1.6875
 1441TIP3    H228519   0.806   6.127  15.633  0.7901 -0.2715 -1.7245
 1442TIP3   OH228520   2.286   5.724  15.047  0.3818  0.2694  0.6094
 1442TIP3    H128521   2.342   5.736  14.970  0.1446  1.4126  0.6091
 1442TIP3    H228522   2.266   5.630  15.046  0.5537  0.2224 -0.5960
 1443TIP3   OH228523   0.731   4.794  14.755  0.0170 -0.1121 -0.2134
 1443TIP3    H128524   0.801   4.855  14.730 -0.8120  1.0359  0.1505
 1443TIP3    H228525   0.659   4.851  14.781 -1.3865 -1.2493 -1.4495
 1444TIP3   OH228526   0.961   2.788  15.845  0.8893 -0.5999  0.5178
 1444TIP3    H128527   0.937   2.881  15.842 -0.8595 -1.0045  0.5858
 1444TIP3    H228528   1.051   2.787  15.876  0.9976  1.0881  0.3403
 1445TIP3   OH228529   2.053   3.811  16.041  0.0217 -0.3268 -0.0702
 1445TIP3    H128530   2.068   3.724  16.005 -0.0691  0.2269 -1.4925
 1445TIP3    H228531   1.959   3.824  16.032  0.2901  0.7104 -1.8092
 1446TIP3   OH228532   5.903   5.780  15.591  0.1690  0.4740  0.1743
 1446TIP3    H128533   5.893   5.725  15.669 -2.2605  1.4123  0.6048
 1446TIP3    H228534   5.821   5.769  15.544  0.9341  1.2546 -1.3930
 1447TIP3   OH228535   0.561   2.697  15.703  0.2761  0.4311 -0.0391
 1447TIP3    H128536   0.582   2.604  15.693  0.5492  0.5179 -0.2717
 1447TIP3    H228537   0.594   2.738  15.623 -1.8610  0.3814 -1.0211
 1448TIP3   OH228538   5.239   6.698  14.489 -0.7019 -0.0191 -0.0913
 1448TIP3    H128539   5.247   6.759  14.563  0.7266 -0.0864 -0.1639
 1448TIP3    H228540   5.250   6.753  14.412 -1.4028 -0.0775 -0.2402
 1449TIP3   OH228541   1.422   5.746  15.879  0.1304 -0.6780  1.0298
 1449TIP3    H128542   1.466   5.806  15.939 -0.7936  1.9000 -0.6842
 1449TIP3    H228543   1.344   5.717  15.926  0.1870  0.0999  1.6125
 1450TIP3   OH228544   1.935   1.468  16.442 -0.0630 -0.3454 -0.1651
 1450TIP3    H128545   2.006   1.476  16.378 -0.2005 -0.8505 -0.3845
 1450TIP3    H228546   1.979   1.469  16.527 -0.0036  2.1847 -0.1441
 1451TIP3   OH228547   0.536   2.101  16.603 -0.3492  0.0421 -0.2739
 1451TIP3    H128548   0.498   2.026  16.558 -0.6666 -0.1685  0.3399
 1451TIP3    H228549   0.486   2.176  16.569  0.6077  0.1170 -1.6170
 1452TIP3   OH228550   4.140   3.348  15.873  0.2703 -0.0513 -0.7309
 1452TIP3    H128551   4.235   3.339  15.876  0.4310  1.4585  0.6415
 1452TIP3    H228552   4.110   3.279  15.814  2.0708 -1.6265  0.1016
 1453TIP3   OH228553   4.216   6.297  15.796 -0.1180  0.3213  0.2606
 1453TIP3    H128554   4.203   6.391  15.787  1.7678  0.5147 -0.9233
 1453TIP3    H228555   4.302   6.287  15.837  0.7096 -0.8492 -1.6132
 1454TIP3   OH228556   4.898   4.763  14.893  0.2103 -0.1219 -0.7073
 1454TIP3    H128557   4.837   4.730  14.827  0.7891 -0.3722 -1.1284
 1454TIP3    H228558   4.843   4.810  14.955 -0.3644  0.0147 -1.3009
 1455TIP3   OH228559   0.106   3.748  16.300 -0.2074 -0.3138 -0.3114
 1455TIP3    H128560   0.087   3.786  16.214  0.3522 -0.3152 -0.4400
 1455TIP3    H228561   0.027   3.764  16.352 -0.5622 -0.3421 -0.8345
 1456TIP3   OH228562   1.687   4.601  15.647  0.0498  0.1272  0.3818
 1456TIP3    H128563   1.614   4.565  15.596  0.7348 -2.4237  1.0455
 1456TIP3    H228564   1.763   4.549  15.620  1.0607  0.8672  1.7007
 1457TIP3   OH228565   0.305   2.389  16.928  0.4981 -0.2002  0.0986
 1457TIP3    H128566   0.277   2.466  16.878 -0.3636 -0.7219 -0.2469
 1457TIP3    H228567   0.400   2.394  16.928  0.4539  1.5130  1.0875
 1458TIP3   OH228568   4.094   5.358  16.339 -0.1110  0.1248 -0.7558
 1458TIP3    H128569   4.127   5.380  16.426 -0.3992 -0.3738 -0.5126
 1458TIP3    H228570   4.020   5.299  16.356 -0.3313  0.2315 -1.3291
 1459TIP3   OH228571   0.366   1.343  14.183 -0.2590  0.0396  0.6081
 1459TIP3    H128572   0.276   1.335  14.216 -0.2794 -0.2615  0.4802
 1459TIP3    H228573   0.416   1.377  14.257 -1.0647  3.2802 -0.1807
 1460TIP3   OH228574   1.445   6.081  15.956 -0.5083  0.1618 -0.2710
 1460TIP3    H128575   1.452   6.023  16.032  1.0584  0.5299 -0.1053
 1460TIP3    H228576   1.520   6.139  15.964 -0.8202  0.7760 -1.6474
 1461TIP3   OH228577   2.499   1.470  16.751 -0.4196  0.4027 -0.0620
 1461TIP3    H128578   2.428   1.413  16.721 -1.3556  1.4889  0.0036
 1461TIP3    H228579   2.569   1.457  16.687 -0.6077 -0.7928 -0.0519
 1462TIP3   OH228580   1.925   2.243  17.089  0.2164  0.2117 -0.7211
 1462TIP3    H128581   1.861   2.173  17.075  1.5072 -0.4543 -4.5853
 1462TIP3    H228582   1.889   2.318  17.040  1.0463  0.7399 -0.5419
 1463TIP3   OH228583   4.192   1.776  14.891 -0.0963  0.0876  0.1678
 1463TIP3    H128584   4.213   1.754  14.981 -0.0477  1.0176  0.4004
 1463TIP3    H228585   4.107   1.735  14.875  0.6564 -1.4823  0.0827
 1464TIP3   OH228586   2.894   6.111  15.039  0.2864  0.3984  0.0445
 1464TIP3    H128587   2.988   6.126  15.028  0.1309 -0.0318 -2.3491
 1464TIP3    H228588   2.889   6.032  15.094  1.3711 -0.3902 -0.9477
 1465TIP3   OH228589   3.239   4.663  16.128  0.4852  0.1754 -0.6161
 1465TIP3    H128590   3.169   4.704  16.076  1.7180  0.3078 -2.2402
 1465TIP3    H228591   3.225   4.569  16.115 -0.3260  0.1511  0.3615
 1466TIP3   OH228592   1.085   0.657  15.109 -0.0401  0.4448 -0.2864
 1466TIP3    H128593   1.042   0.715  15.045 -2.9659 -0.6138  0.5600
 1466TIP3    H228594   1.041   0.677  15.192  3.0772  1.1795  1.3449
 1467TIP3   OH228595   1.239   1.769  14.751  0.2342 -0.3941 -0.1704
 1467TIP3    H128596   1.243   1.734  14.840 -1.2807  0.7317  0.3702
 1467TIP3    H228597   1.331   1.787  14.729  0.8522 -2.5758  0.3433
 1468TIP3   OH228598   2.910   2.003  14.144 -0.6259 -0.0727 -0.5984
 1468TIP3    H128599   2.927   1.986  14.052  0.4193 -0.6954 -0.3036
 1468TIP3    H228600   2.852   1.932  14.171 -2.7318  1.3003 -1.2706
 1469TIP3   OH228601   3.257   2.472  15.866 -0.0747 -0.3920  0.5605
 1469TIP3    H128602   3.193   2.434  15.924 -1.8218 -0.5710 -1.3664
 1469TIP3    H228603   3.326   2.406  15.858 -1.0150 -1.3842  0.5186
 1470TIP3   OH228604   4.470   4.032  13.680 -0.1816  0.1012  0.6186
 1470TIP3    H128605   4.544   4.051  13.738 -1.8367 -0.7025  3.1677
 1470TIP3    H228606   4.440   3.945  13.708 -1.2453 -0.2056 -1.3064
 1471TIP3   OH228607   6.458   4.262  16.565  0.6476 -0.0913  0.2631
 1471TIP3    H128608   6.390   4.309  16.517  1.3538 -0.8752 -1.6407
 1471TIP3    H228609   6.413   4.185  16.601  0.2251  0.1591  0.2764
 1472TIP3   OH228610   6.403   0.592  16.360  0.2755 -0.0337 -0.1238
 1472TIP3    H128611   6.371   0.503  16.353  0.2633 -0.0694  0.4024
 1472TIP3    H228612   6.342   0.636  16.419  1.9237 -0.4736  2.0222
 1473TIP3   OH228613   3.196   0.621  17.186 -0.0112 -0.6831  0.2648
 1473TIP3    H128614   3.142   0.559  17.138  0.2040 -0.2022 -0.6075
 1473TIP3    H228615   3.149   0.704  17.179  0.0454 -0.5935  0.8550
 1474TIP3   OH228616   2.880   6.706  15.409 -0.1600  0.5968 -0.1719
 1474TIP3    H128617   2.803   6.762  15.417 -0.2503  0.3163  1.1014
 1474TIP3    H228618   2.925   6.739  15.331 -1.0880  1.3472 -0.4109
 1475TIP3   OH228619   2.340   5.141  14.238 -0.0736  0.2887  0.0129
 1475TIP3    H128620   2.382   5.068  14.194 -0.9436 -0.9352  1.1042
 1475TIP3    H228621   2.412   5.197  14.268  0.5366  1.1509 -2.8099
 1476TIP3   OH228622   3.355   4.104  14.997  0.4842 -0.6270 -0.0634
 1476TIP3    H128623   3.451   4.105  14.992  0.6133  1.2213  1.4632
 1476TIP3    H228624   3.334   4.172  15.061 -1.9546  0.7244 -2.1148
 1477TIP3   OH228625   2.196   6.650  14.846 -0.7884 -0.7192 -0.4689
 1477TIP3    H128626   2.273   6.634  14.900 -1.3563 -2.9720 -0.2249
 1477TIP3    H228627   2.228   6.647  14.756 -0.2376  0.6733 -0.3382
 1478TIP3   OH228628   5.616   1.330  13.785 -0.1259  0.3325  0.1747
 1478TIP3    H128629   5.572   1.362  13.706 -1.0411  1.6258  1.1709
 1478TIP3    H228630   5.549   1.278  13.830  0.4433 -0.5402  0.0247
 1479TIP3   OH228631   4.526   5.416  15.746 -0.1959  0.1852 -0.1168
 1479TIP3    H128632   4.527   5.418  15.842  0.9449  0.9537 -0.1165
 1479TIP3    H228633   4.577   5.493  15.721 -0.3521 -0.0964 -1.3458
 1480TIP3   OH228634   1.830   1.839  16.097  0.0615  0.3961  0.3982
 1480TIP3    H128635   1.771   1.815  16.168  2.0527 -1.4644  1.5151
 1480TIP3    H228636   1.789   1.803  16.019 -1.1779  0.7542  0.8571
 1481TIP3   OH228637   2.347   6.415  13.792  0.0431 -0.1798  0.2780
 1481TIP3    H128638   2.360   6.322  13.769  1.2917 -0.4652  1.9819
 1481TIP3    H228639   2.253   6.423  13.807 -0.1951 -0.9626 -0.6847
 1482TIP3   OH228640   5.761   1.268  16.933 -0.5307 -0.4195  0.0489
 1482TIP3    H128641   5.841   1.216  16.930 -1.7646 -2.4879  1.3426
 1482TIP3    H228642   5.695   1.214  16.890 -1.4140  0.9749 -0.4164
 1483TIP3   OH228643   3.573   0.870  16.545  0.0761 -0.4054 -0.2671
 1483TIP3    H128644   3.504   0.846  16.607  0.7577  2.2872  1.7527
 1483TIP3    H228645   3.648   0.817  16.572 -0.2773 -0.9451 -0.3261
 1484TIP3   OH228646   4.934   4.881  15.566  0.1572  0.3163 -0.2396
 1484TIP3    H128647   4.840   4.881  15.581  0.2363 -0.8734  0.3786
 1484TIP3    H228648   4.951   4.803  15.514  1.1046 -1.1212  2.0529
 1485TIP3   OH228649   0.788   4.675  15.659 -0.0463  0.6628  0.5546
 1485TIP3    H128650   0.791   4.602  15.720 -2.9110 -0.0143  0.0432
 1485TIP3    H228651   0.846   4.648  15.587  1.5313  0.4402  1.8551
 1486TIP3   OH228652   1.163   4.463  16.472 -0.2616 -0.0663 -0.4826
 1486TIP3    H128653   1.224   4.511  16.528  0.8156 -0.6975 -1.0740
 1486TIP3    H228654   1.079   4.508  16.482  0.1603  0.4557  0.8193
 1487TIP3   OH228655   1.253   4.726  15.293 -0.2493  0.8754  0.1725
 1487TIP3    H128656   1.310   4.711  15.218  1.7675 -0.9291  1.9454
 1487TIP3    H228657   1.173   4.763  15.255  0.8058  0.3784 -2.7957
 1488TIP3   OH228658   2.729   0.429  15.462 -0.5088 -0.3597  0.1319
 1488TIP3    H128659   2.774   0.493  15.408  0.1449 -0.0391  1.0358
 1488TIP3    H228660   2.637   0.435  15.435 -0.2609  0.0608 -0.6565
 1489TIP3   OH228661   6.148   5.905  15.645  0.1276 -0.3019  0.3217
 1489TIP3    H128662   6.159   5.837  15.579  1.6203  0.1032  0.1234
 1489TIP3    H228663   6.054   5.925  15.643  0.0343 -0.7978 -1.1588
 1490TIP3   OH228664   4.173   3.579  14.293  0.6874 -0.0715  0.8275
 1490TIP3    H128665   4.140   3.518  14.226  0.4562 -0.8061  1.5967
 1490TIP3    H228666   4.159   3.666  14.255  0.1169 -0.4618  0.1198
 1491TIP3   OH228667   5.000   3.681  16.424 -0.8940 -0.0804  0.6600
 1491TIP3    H128668   4.977   3.592  16.399  0.4516  0.7672 -4.9248
 1491TIP3    H228669   4.935   3.736  16.380  0.5693  1.8000  0.7211
 1492TIP3   OH228670   2.749   2.116  14.895  0.1987 -0.0339  0.9472
 1492TIP3    H128671   2.670   2.069  14.868  0.7333  0.2635 -1.3649
 1492TIP3    H228672   2.817   2.048  14.896 -0.2045 -0.5484  4.1340
 1493TIP3   OH228673   6.171   0.596  15.853  0.4442  0.9021 -0.1053
 1493TIP3    H128674   6.211   0.668  15.804 -2.3803  2.4432 -0.3408
 1493TIP3    H228675   6.092   0.574  15.803 -0.2581 -0.4221  1.4968
 1494TIP3   OH228676   6.119   0.846  16.541  0.3820  0.2166  0.0349
 1494TIP3    H128677   6.193   0.893  16.580  2.2782 -1.8846 -0.8216
 1494TIP3    H228678   6.120   0.760  16.584  0.0630 -0.7488 -1.7940
 1495TIP3   OH228679   6.091   2.915  15.461 -0.4675  0.0523 -0.0499
 1495TIP3    H128680   6.060   2.908  15.370 -0.7489  1.9752 -0.1339
 1495TIP3    H228681   6.015   2.894  15.514 -0.3543 -0.8856 -0.2376
 1496TIP3   OH228682   1.579   5.984  14.722 -0.4695 -0.6651  0.3407
 1496TIP3    H128683   1.564   6.046  14.793  0.2246 -0.5126  0.3653
 1496TIP3    H228684   1.654   5.932  14.751 -1.3240 -1.8506  0.5340
 1497TIP3   OH228685   5.723   4.054  16.284 -0.3170 -0.1485 -0.1884
 1497TIP3    H128686   5.692   4.136  16.324  1.4553  0.4732  0.0034
 1497TIP3    H228687   5.654   4.030  16.223 -1.4628  0.8019  0.6829
 1498TIP3   OH228688   6.375   3.439  16.588  0.9417 -0.0835 -0.2081
 1498TIP3    H128689   6.294   3.430  16.638 -0.1369  0.5388 -1.8008
 1498TIP3    H228690   6.423   3.359  16.607 -1.3031 -1.8258 -1.4494
 1499TIP3   OH228691   3.616   6.153  15.946  0.2930  0.3818  0.7692
 1499TIP3    H128692   3.662   6.184  16.024 -0.9862 -0.3753  1.8767
 1499TIP3    H228693   3.534   6.202  15.946  0.0351 -0.0391  0.2321
 1500TIP3   OH228694   0.762   1.558  15.973  0.1694  0.1369 -0.1950
 1500TIP3    H128695   0.766   1.638  16.025  0.9962  0.7032 -1.0859
 1500TIP3    H228696   0.678   1.563  15.928 -0.2450 -0.0198  0.5418
 1501TIP3   OH228697   3.418   1.093  16.234  0.1594 -0.2703  0.3065
 1501TIP3    H128698   3.428   1.161  16.166  0.6139  1.1848  1.7665
 1501TIP3    H228699   3.506   1.057  16.244 -0.2910 -2.0004 -1.2990
 1502TIP3   OH228700   2.308   1.287  15.207  0.5184 -0.2786 -0.6556
 1502TIP3    H128701   2.305   1.192  15.204 -0.8233 -0.2925  0.2960
 1502TIP3    H228702   2.361   1.308  15.284 -0.7716 -0.2968  0.2660
 1503TIP3   OH228703   3.755   2.746  14.570  0.0636  0.0951 -0.5167
 1503TIP3    H128704   3.850   2.740  14.559 -0.0334  1.0885 -2.4037
 1503TIP3    H228705   3.741   2.743  14.664  2.0265  0.6092 -0.1654
 1504TIP3   OH228706   4.718   4.693  14.694  0.2792  0.3398  0.0351
 1504TIP3    H128707   4.744   4.694  14.602  0.9489 -0.4350  0.2030
 1504TIP3    H228708   4.627   4.721  14.694  0.2867  0.3694 -0.8651
 1505TIP3   OH228709   3.778   1.106  14.014  0.1767  0.4071 -0.0629
 1505TIP3    H128710   3.813   1.187  14.049  0.5990  0.5784 -0.8582
 1505TIP3    H228711   3.723   1.133  13.940 -1.7408  0.1587  1.1922
 1506TIP3   OH228712   2.115   5.925  15.986 -0.1441  0.0126  0.1507
 1506TIP3    H128713   2.074   6.010  16.001 -1.6235 -0.4537 -1.0301
 1506TIP3    H228714   2.051   5.876  15.935  1.5165 -1.1065 -0.9602
 1507TIP3   OH228715   1.183   5.662  16.626  0.1486  0.5374 -0.1520
 1507TIP3    H128716   1.132   5.638  16.549 -0.1413  1.4757 -0.2681
 1507TIP3    H228717   1.151   5.749  16.650 -0.0995  0.0806  1.3081
 1508TIP3   OH228718   1.085   0.683  15.646  0.2768  0.0668  0.1050
 1508TIP3    H128719   1.058   0.734  15.570  1.3346 -0.8366 -0.9333
 1508TIP3    H228720   1.013   0.693  15.709 -0.1815  1.6244 -0.6130
 1509TIP3   OH228721   6.326   4.087  15.182 -0.3163 -0.7556  0.0897
 1509TIP3    H128722   6.340   4.178  15.209 -1.2438 -0.6112  0.1096
 1509TIP3    H228723   6.414   4.049  15.180 -0.0516 -0.2675  1.4894
 1510TIP3   OH228724   1.428   2.606  14.904 -0.2916  0.3406 -0.3597
 1510TIP3    H128725   1.480   2.580  14.827  1.0561  0.1907  0.5669
 1510TIP3    H228726   1.476   2.679  14.942 -0.8722  0.3275  0.4266
 1511TIP3   OH228727   0.264   1.263  16.872  0.0922  0.3433 -0.7450
 1511TIP3    H128728   0.191   1.317  16.841  0.3116  0.4187 -1.1223
 1511TIP3    H228729   0.337   1.324  16.881  0.2344  0.1802 -0.7999
 1512TIP3   OH228730   2.191   2.047  15.231  0.0575 -0.1016  0.7885
 1512TIP3    H128731   2.179   1.979  15.297  2.0840 -1.3821 -0.0335
 1512TIP3    H228732   2.250   2.110  15.271 -0.0054 -0.0264  0.7629
 1513TIP3   OH228733   4.708   5.481  16.503  0.5044 -0.3470 -0.0711
 1513TIP3    H128734   4.785   5.526  16.539 -0.5038  1.6111 -0.1876
 1513TIP3    H228735   4.682   5.534  16.427 -2.0619  0.2190  1.0853
 1514TIP3   OH228736   4.275   0.435  15.701 -0.1682 -0.0472  0.2124
 1514TIP3    H128737   4.196   0.488  15.692 -1.1349 -1.3228  0.9281
 1514TIP3    H228738   4.330   0.484  15.762 -0.4942  0.7380 -0.1094
 1515TIP3   OH228739   1.041   3.951  15.980 -0.0655  0.4157  0.3820
 1515TIP3    H128740   1.016   3.899  15.903 -1.2483  1.5316 -0.0332
 1515TIP3    H228741   1.123   3.994  15.955 -0.7126  1.1904 -0.5076
 1516TIP3   OH228742   2.313   1.086  15.992  0.2690 -0.3580 -0.3615
 1516TIP3    H128743   2.260   1.046  15.923 -1.5762  0.1303  0.7021
 1516TIP3    H228744   2.266   1.066  16.073  2.8045 -1.6371  0.9084
 1517TIP3   OH228745   3.846   4.729  16.579 -0.1890 -0.3293  0.6668
 1517TIP3    H128746   3.754   4.756  16.573  0.3964  2.0755  1.3738
 1517TIP3    H228747   3.850   4.673  16.656 -0.8454  0.7265  1.4958
 1518TIP3   OH228748   2.709   5.661  15.121  0.0394  0.0244  0.5046
 1518TIP3    H128749   2.795   5.642  15.083 -1.3859  0.2907 -3.3071
 1518TIP3    H228750   2.655   5.587  15.094 -1.6317  1.3638 -0.0044
 1519TIP3   OH228751   6.021   3.892  15.544 -0.3666 -0.5310 -0.3060
 1519TIP3    H128752   6.079   3.885  15.620 -0.8812 -1.3171  0.0206
 1519TIP3    H228753   6.081   3.904  15.470  0.1599 -0.2346  0.1594
 1520TIP3   OH228754   3.693   0.444  13.819 -0.0227  0.2107  0.5094
 1520TIP3    H128755   3.643   0.502  13.761 -0.6255  0.5771  1.3835
 1520TIP3    H228756   3.626   0.393  13.865  0.4808 -0.7655  0.1897
 1521TIP3   OH228757   3.605   3.355  16.250 -0.8342 -0.5269  0.1583
 1521TIP3    H128758   3.516   3.330  16.224 -0.6652 -1.8447  0.7810
 1521TIP3    H228759   3.594   3.440  16.293 -1.7136 -0.4302 -0.2301
 1522TIP3   OH228760   2.706   5.507  13.912  0.1810 -0.1530 -0.1481
 1522TIP3    H128761   2.747   5.421  13.914 -1.2429 -0.8592  1.3040
 1522TIP3    H228762   2.613   5.490  13.927 -0.2457  1.5841 -0.5272
 1523TIP3   OH228763   0.424   3.338  16.701 -0.2448 -0.2869 -0.8413
 1523TIP3    H128764   0.354   3.349  16.636  0.0885 -2.5668 -1.6626
 1523TIP3    H228765   0.483   3.412  16.685 -1.7458  0.9335 -1.0166
 1524TIP3   OH228766   1.179   0.893  14.804  0.2323 -0.1292 -0.0620
 1524TIP3    H128767   1.195   0.884  14.710 -0.9973 -1.3333 -0.1879
 1524TIP3    H228768   1.228   0.821  14.844  0.1667 -0.0620  0.1421
 1525TIP3   OH228769   3.399   4.554  16.342 -0.5894  0.8607  0.5635
 1525TIP3    H128770   3.348   4.492  16.395 -0.1550  0.0085  0.0071
 1525TIP3    H228771   3.335   4.593  16.283 -0.6824  0.0553  0.1101
 1526TIP3   OH228772   6.406   4.095  15.493 -0.3794  0.2874  0.0864
 1526TIP3    H128773   6.450   4.137  15.567 -2.8196  1.4210  1.0014
 1526TIP3    H228774   6.456   4.123  15.416  0.9994  0.7408  1.0992
 1527TIP3   OH228775   0.183   3.155  14.950 -0.5855  0.4970 -0.0310
 1527TIP3    H128776   0.133   3.113  14.880 -1.7127 -1.2207  1.7046
 1527TIP3    H228777   0.265   3.182  14.908 -0.5435 -1.8826 -1.6762
 1528TIP3   OH228778   0.065   1.850  16.853  0.2111 -0.2783  0.1616
 1528TIP3    H128779   0.065   1.925  16.912 -0.3677  0.1227 -0.3413
 1528TIP3    H228780  -0.017   1.805  16.871 -0.4081  0.3669 -0.9828
 1529TIP3   OH228781   5.453   1.733  13.340  0.0445  0.3809 -0.5166
 1529TIP3    H128782   5.402   1.798  13.292  1.1435  1.5278 -0.1883
 1529TIP3    H228783   5.388   1.669  13.370 -1.3713  2.2691  0.7102
 1530TIP3   OH228784   1.020   4.153  14.642  0.0746  0.0788  0.0655
 1530TIP3    H128785   1.015   4.231  14.697 -2.2078  1.1249 -1.5029
 1530TIP3    H228786   1.040   4.186  14.555  1.5884 -1.3740 -0.1908
 1531TIP3   OH228787   0.094   3.679  14.347 -0.5166 -0.4634  0.2103
 1531TIP3    H128788   0.143   3.599  14.367 -0.1758 -0.4148 -0.3807
 1531TIP3    H228789   0.002   3.653  14.346 -0.3917 -0.8976 -0.1867
 1532TIP3   OH228790   0.022   6.111  15.131  0.7345  0.7799 -0.9499
 1532TIP3    H128791  -0.041   6.120  15.059  0.5081 -0.0596 -0.8665
 1532TIP3    H228792  -0.032   6.110  15.210  0.6896 -1.5643 -0.9695
 1533TIP3   OH228793   1.858   2.499  16.990 -0.1899  0.6036  0.6813
 1533TIP3    H128794   1.917   2.573  16.973  1.0986 -0.7122 -1.0178
 1533TIP3    H228795   1.770   2.535  16.979  0.4233  1.7464 -0.8957
 1534TIP3   OH228796   0.168   3.398  14.376 -0.1270  0.3995  0.3755
 1534TIP3    H128797   0.120   3.358  14.448  1.4324 -0.5069  0.9689
 1534TIP3    H228798   0.219   3.326  14.338  0.5249  1.2432 -0.4042
 1535TIP3   OH228799   1.809   0.181  12.661 -0.2850 -0.3458 -0.0336
 1535TIP3    H128800   1.769   0.267  12.649 -0.6182 -0.4671  0.2100
 1535TIP3    H228801   1.745   0.132  12.712  0.1606 -0.5499  0.3297
 1536TIP3   OH228802   5.267   1.120  15.028 -0.0869  0.1183 -0.2983
 1536TIP3    H128803   5.340   1.164  14.984 -0.0191 -0.1908 -0.4978
 1536TIP3    H228804   5.193   1.180  15.017  0.5751  1.3381  1.5547
 1537TIP3   OH228805   1.053   0.535  16.924 -0.4426  0.1619 -0.2876
 1537TIP3    H128806   1.081   0.473  16.991 -1.6593  0.4618  0.5396
 1537TIP3    H228807   1.116   0.607  16.930  0.9940 -0.9721 -1.2740
 1538TIP3   OH228808   4.840   6.546  14.453  0.3599 -0.3007  0.6260
 1538TIP3    H128809   4.832   6.615  14.387 -1.3052 -0.2946  0.8118
 1538TIP3    H228810   4.838   6.464  14.403  0.6006 -0.2672  0.5571
 1539TIP3   OH228811   5.366   4.088  15.593 -0.0739 -0.0762  0.1273
 1539TIP3    H128812   5.427   4.016  15.582  0.3312 -0.0203  1.6934
 1539TIP3    H228813   5.283   4.046  15.614  0.3454 -0.1331  1.8644
 1540TIP3   OH228814   2.896   5.308  14.308 -0.6117  0.8436 -0.8136
 1540TIP3    H128815   2.918   5.385  14.257  0.6487  0.2170 -1.2735
 1540TIP3    H228816   2.874   5.241  14.243  1.1037  0.0117 -0.6055
 1541TIP3   OH228817   4.949   3.500  16.099 -0.2411 -0.1065 -0.2421
 1541TIP3    H128818   4.874   3.544  16.058  0.1013 -0.3419 -1.1497
 1541TIP3    H228819   5.022   3.561  16.087  0.2001 -0.8219 -1.3599
 1542TIP3   OH228820   2.489   5.724  14.306  0.0793 -0.0067 -0.0463
 1542TIP3    H128821   2.413   5.666  14.312  1.1276 -1.4845 -0.2946
 1542TIP3    H228822   2.558   5.668  14.270  1.4159  1.1378  0.6500
 1543TIP3   OH228823   6.350   6.618  15.469 -0.1692  0.5135  0.3342
 1543TIP3    H128824   6.330   6.711  15.467  0.2268  0.6129  0.8481
 1543TIP3    H228825   6.420   6.609  15.535  0.9848  0.0814 -0.9096
 1544TIP3   OH228826   2.388   4.739  17.159  0.2796 -0.6382  0.4000
 1544TIP3    H128827   2.353   4.650  17.159  2.6475 -1.7494  2.8806
 1544TIP3    H228828   2.399   4.760  17.252  0.6411  1.8976 -0.1409
 1545TIP3   OH228829   2.255   2.030  14.184  0.5126 -0.7882  0.0045
 1545TIP3    H128830   2.300   2.111  14.209  0.9530 -1.0908  0.2160
 1545TIP3    H228831   2.167   2.039  14.220 -0.3913  0.8314 -2.4054
 1546TIP3   OH228832   4.991   1.560  14.374  0.1385  0.0974  0.3244
 1546TIP3    H128833   4.996   1.599  14.461  0.9361  0.0855  0.2939
 1546TIP3    H228834   4.900   1.532  14.365 -0.0408  0.4382  1.0027
 1547TIP3   OH228835   2.031   6.352  15.412  0.2928  0.0446  0.3165
 1547TIP3    H128836   2.081   6.406  15.473  0.5710  1.0013 -0.7420
 1547TIP3    H228837   2.012   6.409  15.338 -0.3192 -1.0016 -0.3660
 1548TIP3   OH228838   1.554   5.249  16.354 -0.8377 -0.2857  0.1418
 1548TIP3    H128839   1.603   5.270  16.275 -1.4416  2.0430  0.3082
 1548TIP3    H228840   1.620   5.217  16.416  0.0927  0.5708 -0.3855
 1549TIP3   OH228841   1.127   4.887  13.755 -0.6145  0.3838 -0.2824
 1549TIP3    H128842   1.182   4.891  13.677  1.5321  1.4647  1.1593
 1549TIP3    H228843   1.165   4.816  13.807  0.4326  2.0148  1.3422
 1550TIP3   OH228844   4.247   0.290  15.449 -0.3043  0.3466  0.3732
 1550TIP3    H128845   4.280   0.335  15.526  0.4086  1.2488 -0.4339
 1550TIP3    H228846   4.307   0.217  15.436  0.3641  0.9597 -0.0712
 1551TIP3   OH228847   4.193   0.034  16.576 -0.4191  0.1049  0.6793
 1551TIP3    H128848   4.238   0.093  16.635  0.3941  1.5160 -1.2587
 1551TIP3    H228849   4.255   0.018  16.505 -1.8932 -0.2638 -0.5834
 1552TIP3   OH228850   0.449   0.668  13.975  0.6237 -0.2762 -0.1209
 1552TIP3    H128851   0.474   0.610  13.903  0.5311  1.0895 -1.3197
 1552TIP3    H228852   0.437   0.753  13.933 -1.4536  0.1495  1.1774
 1553TIP3   OH228853   0.675   0.202  13.568 -0.0317 -0.7225  0.0707
 1553TIP3    H128854   0.662   0.297  13.570  2.2027 -0.3293 -0.9568
 1553TIP3    H228855   0.730   0.184  13.645  0.9642 -0.9057 -0.6705
 1554TIP3   OH228856   3.729   5.652  15.694 -0.1953  0.3459  0.7731
 1554TIP3    H128857   3.731   5.645  15.790 -0.1975 -1.2652  0.6721
 1554TIP3    H228858   3.706   5.564  15.664 -2.0672  1.2645 -0.6621
 1555TIP3   OH228859   3.525   0.374  15.468 -0.2020 -0.3347  0.1170
 1555TIP3    H128860   3.432   0.394  15.474 -0.7570 -2.8932  1.6989
 1555TIP3    H228861   3.536   0.337  15.380 -0.9814 -1.2415  0.3874
 1556TIP3   OH228862   5.935   6.062  15.724  0.1182 -0.0041  0.3725
 1556TIP3    H128863   5.845   6.071  15.756  0.1794 -2.4877  1.4543
 1556TIP3    H228864   5.969   6.152  15.726 -1.7042  0.7489  1.8249
 1557TIP3   OH228865   2.977   3.355  15.261 -0.3632  0.2667  0.2260
 1557TIP3    H128866   2.944   3.312  15.339 -0.4913  2.7295  1.6552
 1557TIP3    H228867   3.001   3.443  15.291  4.2943 -0.1443 -1.3792
 1558TIP3   OH228868   5.289   1.184  16.984  0.3676 -0.6702 -0.1739
 1558TIP3    H128869   5.352   1.240  17.030 -0.2296 -0.3404  0.2519
 1558TIP3    H228870   5.328   1.097  16.989  0.0804 -0.7476  1.4463
 1559TIP3   OH228871   0.407   0.274  13.081 -0.3868  0.0123 -0.1776
 1559TIP3    H128872   0.379   0.267  13.172  0.9665  0.8351  0.3497
 1559TIP3    H228873   0.366   0.355  13.050 -0.2979  0.1041 -0.0624
 1560TIP3   OH228874   3.409   3.062  16.055 -0.1469  0.0524  0.2868
 1560TIP3    H128875   3.380   3.153  16.045 -0.8446 -0.0653  1.1206
 1560TIP3    H228876   3.358   3.014  15.989  1.4339  0.4737 -1.3262
 1561TIP3   OH228877   3.365   3.450  16.541  0.5336  0.2742  0.1433
 1561TIP3    H128878   3.368   3.362  16.577  1.4944  0.3793  0.3630
 1561TIP3    H228879   3.454   3.465  16.508  0.0443  0.6977 -1.0186
 1562TIP3   OH228880   5.689   1.057  14.449 -0.1209 -0.4329 -0.1759
 1562TIP3    H128881   5.653   1.106  14.523 -0.9972 -1.6783  0.2564
 1562TIP3    H228882   5.770   1.104  14.427 -0.1493  0.3276  1.1717
 1563TIP3   OH228883   5.854   1.141  14.861 -0.2492 -0.0757 -0.7666
 1563TIP3    H128884   5.897   1.114  14.780 -2.1089 -2.1345 -1.1421
 1563TIP3    H228885   5.863   1.237  14.862  2.8984 -0.2558 -1.5606
 1564TIP3   OH228886   1.929   1.273  14.186  0.1371  0.2011  0.0988
 1564TIP3    H128887   2.024   1.269  14.172  0.1227  0.2665 -0.0161
 1564TIP3    H228888   1.918   1.328  14.263  0.2331 -0.4025  0.5462
 1565TIP3   OH228889   2.677   0.672  14.491 -0.7432  0.5379  0.6653
 1565TIP3    H128890   2.707   0.601  14.436 -1.1703 -0.0093  1.1231
 1565TIP3    H228891   2.735   0.670  14.567 -1.4972 -0.1103  1.2478
 1566TIP3   OH228892   5.234   4.354  16.374 -0.3866 -0.0744  0.5840
 1566TIP3    H128893   5.174   4.426  16.354 -3.4401 -1.4071  3.9390
 1566TIP3    H228894   5.289   4.387  16.445 -0.5545 -0.4813  0.9040
 1567TIP3   OH228895   6.183   3.262  14.586 -0.2357  0.0681 -0.3529
 1567TIP3    H128896   6.199   3.205  14.511 -1.0651 -0.4018 -0.1904
 1567TIP3    H228897   6.121   3.328  14.553 -0.0683  0.2713 -0.2653
 1568TIP3   OH228898   0.536   2.561  14.476 -0.5869  0.2481  0.1800
 1568TIP3    H128899   0.458   2.603  14.439 -0.9648 -1.2788 -0.8591
 1568TIP3    H228900   0.521   2.561  14.570 -2.0505 -0.3510 -0.0200
 1569TIP3   OH228901   0.176   4.937  15.670 -0.2051 -0.1301 -0.6977
 1569TIP3    H128902   0.155   4.891  15.589 -1.9735 -0.2302 -0.2373
 1569TIP3    H228903   0.244   4.884  15.712  1.0389  0.1495 -2.2678
 1570TIP3   OH228904   0.133   5.562  16.637  0.4851  0.0839  0.6148
 1570TIP3    H128905   0.147   5.558  16.542 -0.3822 -2.0312  0.5345
 1570TIP3    H228906   0.072   5.635  16.648  1.7337  1.3357 -0.2559
 1571TIP3   OH228907   2.698   0.904  15.725  0.0631 -0.4083  0.0461
 1571TIP3    H128908   2.773   0.876  15.777 -0.8846 -1.5269  0.8639
 1571TIP3    H228909   2.674   0.827  15.674 -0.5944 -0.0968 -0.1286
 1572TIP3   OH228910   2.009   0.206  16.209  0.4770  0.1903  0.1822
 1572TIP3    H128911   1.928   0.158  16.227  0.2515  0.9227  1.1940
 1572TIP3    H228912   1.988   0.261  16.134  0.4933 -0.6769 -0.4761
 1573TIP3   OH228913   0.937   4.630  14.984  0.8312  0.7397  0.1576
 1573TIP3    H128914   0.890   4.596  14.908  0.8797 -0.9719  0.8481
 1573TIP3    H228915   0.970   4.715  14.956  0.7371  0.2065 -1.6790
 1574TIP3   OH228916   2.727   0.180  13.904  0.1845  0.5255  0.0174
 1574TIP3    H128917   2.777   0.256  13.935  1.3219 -0.2196  0.0863
 1574TIP3    H228918   2.770   0.156  13.822 -0.9439  0.6800 -0.6457
 1575TIP3   OH228919   3.474   0.765  16.807  0.4999 -0.3466 -0.1622
 1575TIP3    H128920   3.492   0.839  16.866  1.0907 -0.6975  0.1093
 1575TIP3    H228921   3.415   0.709  16.856  0.5112 -0.3431 -0.1442
 1576TIP3   OH228922   0.819   6.503  14.377  0.3864 -0.2886  0.0678
 1576TIP3    H128923   0.761   6.577  14.393  1.2706  0.6441 -0.8890
 1576TIP3    H228924   0.768   6.426  14.404 -0.9917  0.5551 -0.0431
 1577TIP3   OH228925   6.191   5.412  15.765  0.3630 -0.5200  0.3318
 1577TIP3    H128926   6.098   5.396  15.746 -0.0089  2.0498 -0.4001
 1577TIP3    H228927   6.209   5.498  15.725  2.6189 -0.1834  1.9039
 1578TIP3   OH228928   6.277   3.057  14.424  0.2185 -0.2190  0.1752
 1578TIP3    H128929   6.318   3.058  14.337  1.0558  3.9186  0.3771
 1578TIP3    H228930   6.326   2.992  14.473  0.7747 -1.5485 -1.9962
 1579TIP3   OH228931   5.402   2.441  15.483  0.2578  0.1196 -0.4303
 1579TIP3    H128932   5.367   2.461  15.570  0.0209 -1.7463 -0.0423
 1579TIP3    H228933   5.457   2.516  15.461  0.6412  0.4540  1.5019
 1580TIP3   OH228934   4.245   3.432  16.488  0.3100  0.1485  0.7558
 1580TIP3    H128935   4.212   3.522  16.485  0.5421  0.2048 -2.2168
 1580TIP3    H228936   4.179   3.385  16.539  0.0178  1.8756  2.1064
 1581TIP3   OH228937   0.557   0.300  16.327 -0.2776  0.4625  0.4216
 1581TIP3    H128938   0.595   0.342  16.404 -0.3634 -0.6025  1.0679
 1581TIP3    H228939   0.483   0.249  16.361 -0.6928  0.4576 -0.4571
 1582TIP3   OH228940   3.235   0.686  15.846 -0.4098  0.3906 -0.0030
 1582TIP3    H128941   3.295   0.756  15.819  1.1143 -0.8498  0.0464
 1582TIP3    H228942   3.155   0.703  15.797 -0.3146  2.5264  0.4893
 1583TIP3   OH228943   1.414   1.173  16.830  0.2776 -0.2825 -0.5757
 1583TIP3    H128944   1.450   1.095  16.872 -1.1303 -0.5178  0.2647
 1583TIP3    H228945   1.363   1.216  16.899  1.3980  1.6581 -0.8845
 1584TIP3   OH228946   4.312   1.489  14.078  0.7498  0.0729 -0.2229
 1584TIP3    H128947   4.260   1.440  14.141  0.1197 -0.6569 -1.2713
 1584TIP3    H228948   4.372   1.542  14.131  0.6962 -1.0115  0.9554
 1585TIP3   OH228949   0.823   4.382  16.168 -0.1830  0.5597  0.2489
 1585TIP3    H128950   0.905   4.430  16.161  0.2994  0.0038  1.5876
 1585TIP3    H228951   0.847   4.291  16.150 -1.1053  0.7548 -2.3835
 1586TIP3   OH228952   4.843   1.251  15.507  0.2557  0.1163  0.1878
 1586TIP3    H128953   4.801   1.321  15.457  1.0736 -0.0108 -0.7197
 1586TIP3    H228954   4.774   1.215  15.562 -0.9930 -0.4768 -1.6895
 1587TIP3   OH228955   3.323   5.795  16.242  0.0796 -0.4617  0.1026
 1587TIP3    H128956   3.254   5.750  16.192  0.4528 -1.3197  0.3586
 1587TIP3    H228957   3.358   5.860  16.180  0.1171 -1.0939 -0.5501
 1588TIP3   OH228958   4.073   4.969  16.415  0.6942  0.3570 -0.6632
 1588TIP3    H128959   4.150   5.022  16.438  1.0488 -0.8042  0.9703
 1588TIP3    H228960   4.002   5.033  16.410  1.6086  1.3537 -1.4805
 1589TIP3   OH228961   1.867   1.779  13.683 -0.5564  0.6047 -0.2620
 1589TIP3    H128962   1.816   1.801  13.761 -0.4081 -1.4477  0.4779
 1589TIP3    H228963   1.954   1.756  13.717 -0.6802 -0.9614 -0.9144
 1590TIP3   OH228964   2.589   4.835  16.969  0.1313  0.5182  0.2236
 1590TIP3    H128965   2.522   4.811  17.033 -0.4809  0.2442 -0.5160
 1590TIP3    H228966   2.626   4.916  17.003  0.3602 -0.0279  1.3402
 1591TIP3   OH228967   6.228   0.333  15.882 -0.5422  0.2954  0.2844
 1591TIP3    H128968   6.213   0.320  15.789  1.0279  0.0462  0.0430
 1591TIP3    H228969   6.228   0.428  15.893 -3.2745  0.3300  0.5155
 1592TIP3   OH228970   3.841   5.645  15.376  0.0057  0.8249  0.3149
 1592TIP3    H128971   3.839   5.718  15.314 -1.3962  1.0519  0.5809
 1592TIP3    H228972   3.825   5.567  15.322  0.1118  0.8725  0.2158
 1593TIP3   OH228973   4.594   5.086  15.276 -0.1963 -0.2711  0.7970
 1593TIP3    H128974   4.567   4.995  15.273 -0.6860 -0.1575  1.6256
 1593TIP3    H228975   4.528   5.130  15.330  0.1219  0.5409  0.5487
 1594TIP3   OH228976   1.750   5.953  15.192 -0.4511 -0.5316  0.1376
 1594TIP3    H128977   1.772   5.924  15.281  2.7376 -1.0714 -0.6898
 1594TIP3    H228978   1.804   6.031  15.178 -0.5800 -0.6852 -1.4344
 1595TIP3   OH228979   2.582   6.265  16.785 -0.5144 -0.2904  0.0658
 1595TIP3    H128980   2.567   6.181  16.829  0.9810  0.0621  1.3300
 1595TIP3    H228981   2.677   6.280  16.792 -0.5953  1.0206 -1.0586
 1596TIP3   OH228982   6.314   4.705  16.191  0.5383 -0.2945 -0.0470
 1596TIP3    H128983   6.229   4.681  16.153 -0.3927  3.4533 -0.7036
 1596TIP3    H228984   6.374   4.709  16.117  1.0357 -1.7193  0.2481
 1597TIP3   OH228985   2.302   3.583  16.715  0.2315  0.5629  0.3724
 1597TIP3    H128986   2.278   3.540  16.797  1.9719  1.5045  1.4391
 1597TIP3    H228987   2.224   3.630  16.687 -0.9285 -1.2159  0.5124
 1598TIP3   OH228988   1.335   4.425  14.535  0.1559 -0.3441  0.1338
 1598TIP3    H128989   1.316   4.421  14.628 -0.0591  1.9574  0.2429
 1598TIP3    H228990   1.429   4.445  14.531 -0.2597  1.7226 -0.0510
 1599TIP3   OH228991   4.946   0.008  15.654 -0.0518  0.0034 -0.2754
 1599TIP3    H128992   4.888  -0.009  15.729  0.3999  0.9248  0.3148
 1599TIP3    H228993   5.009  -0.064  15.655 -1.8856 -1.7326 -1.6957
 1600TIP3   OH228994   6.396   5.954  14.453 -0.3125  0.3343 -0.1297
 1600TIP3    H128995   6.450   5.950  14.374 -0.0432  0.6326  0.0361
 1600TIP3    H228996   6.306   5.941  14.421 -0.0634 -1.0656 -0.2926
 1601TIP3   OH228997   3.309   0.043  14.205  0.3838  0.6751 -0.6617
 1601TIP3    H128998   3.349  -0.022  14.263 -0.1674  0.6227 -0.3362
 1601TIP3    H228999   3.223   0.061  14.244 -0.4658 -0.1880 -2.0525
 1602TIP3   OH229000   2.321   0.566  14.352  0.1920  0.2794  0.8180
 1602TIP3    H129001   2.350   0.483  14.313  0.0058 -0.3400  1.9567
 1602TIP3    H229002   2.237   0.545  14.393  0.6712  0.7452  2.0873
 1603TIP3   OH229003   0.917   0.808  14.584  0.0486  0.1919  0.1353
 1603TIP3    H129004   0.860   0.769  14.518 -0.0946  1.4210 -0.4819
 1603TIP3    H229005   0.944   0.892  14.547  1.8019 -0.0983  0.6586
 1604TIP3   OH229006   4.962   1.300  14.661 -0.0692  0.5279  0.2516
 1604TIP3    H129007   4.923   1.274  14.578  0.0135  0.9301  0.0843
 1604TIP3    H229008   5.041   1.247  14.668  0.5721  1.3481 -0.5098
 1605TIP3   OH229009   1.283   4.380  15.913  0.1849  0.5472 -0.5835
 1605TIP3    H129010   1.374   4.397  15.888  0.2000  2.3880  0.5009
 1605TIP3    H229011   1.256   4.459  15.959 -0.8310 -1.3184  2.3137
 1606TIP3   OH229012   3.834   4.149  14.335  0.0048 -0.0496  0.3133
 1606TIP3    H129013   3.927   4.162  14.321  0.2690 -1.5214  0.5268
 1606TIP3    H229014   3.798   4.237  14.346  1.8513  0.4453  3.4418
 1607TIP3   OH229015   6.237   4.209  14.092  0.5373 -0.3068  0.1529
 1607TIP3    H129016   6.229   4.192  14.186  1.9600 -3.4136 -0.1573
 1607TIP3    H229017   6.313   4.267  14.085  0.9000 -0.6812  0.8750
 1608TIP3   OH229018   4.872   5.003  14.707 -0.2477  0.4435 -0.4506
 1608TIP3    H129019   4.854   5.020  14.614  1.5864  1.0162 -0.7377
 1608TIP3    H229020   4.965   4.980  14.710 -0.1082  1.0684  1.3175
 1609TIP3   OH229021   3.069   4.520  14.755 -0.2151  0.1439 -0.1702
 1609TIP3    H129022   3.112   4.603  14.776  0.6930 -0.6308  1.2297
 1609TIP3    H229023   3.017   4.499  14.832 -0.8997 -0.3021 -0.7417
 1610TIP3   OH229024   4.671   0.642  13.385 -0.7085 -0.1012 -0.5019
 1610TIP3    H129025   4.741   0.704  13.364 -0.7990 -0.3456 -1.5852
 1610TIP3    H229026   4.591   0.695  13.384 -0.7858 -0.2255 -1.4273
 1611TIP3   OH229027   5.591   3.728  15.851 -0.1420  0.2963  0.5319
 1611TIP3    H129028   5.552   3.646  15.821  1.8206 -0.9721  1.2817
 1611TIP3    H229029   5.640   3.761  15.774 -2.2130  1.6860 -0.2854
 1612TIP3   OH229030   4.352   0.255  16.026  0.1419  0.5010 -0.1799
 1612TIP3    H129031   4.387   0.176  16.068 -0.5474 -1.0145 -2.2947
 1612TIP3    H229032   4.261   0.233  16.008  0.5461  0.8273 -2.9245
 1613TIP3   OH229033   5.899   1.997  16.261  0.0869  0.0153 -0.5283
 1613TIP3    H129034   5.941   1.915  16.235 -1.2999  0.0554 -3.3443
 1613TIP3    H229035   5.850   1.975  16.340  1.9187 -1.1188  0.3464
 1614TIP3   OH229036   6.534   3.193  14.516 -0.0914 -0.7221 -0.3673
 1614TIP3    H129037   6.513   3.145  14.597  0.3889  0.3548  0.4216
 1614TIP3    H229038   6.451   3.234  14.491 -0.0010 -0.1759  0.1986
 1615TIP3   OH229039   0.637   3.372  15.682  0.0518  0.0397 -0.5135
 1615TIP3    H129040   0.699   3.396  15.750  0.4555 -1.2085 -0.4021
 1615TIP3    H229041   0.664   3.284  15.655 -0.3085  0.3678 -2.0465
 1616TIP3   OH229042   0.389   4.304  16.510 -0.1140 -0.0835 -0.3446
 1616TIP3    H129043   0.389   4.374  16.446  2.7006  0.5123  0.1879
 1616TIP3    H229044   0.420   4.227  16.462 -1.8853 -0.7016 -0.5914
 1617TIP3   OH229045   0.829   0.050  15.113  0.7192  0.1316 -0.1558
 1617TIP3    H129046   0.849   0.137  15.078 -1.2961  1.7704  2.3663
 1617TIP3    H229047   0.765   0.014  15.052 -0.2890  1.5283  0.0338
 1618TIP3   OH229048   1.751   5.611  15.561  0.3651 -0.0798  0.1271
 1618TIP3    H129049   1.823   5.548  15.550  0.5217  0.1486 -0.1680
 1618TIP3    H229050   1.782   5.690  15.518  0.2361  0.2564  0.6488
 1619TIP3   OH229051   3.504   5.110  15.195 -0.1141  0.7189  0.1129
 1619TIP3    H129052   3.445   5.041  15.225 -0.7969  1.7509  1.2227
 1619TIP3    H229053   3.571   5.064  15.145 -0.9880 -0.6577  0.1491
 1620TIP3   OH229054   5.424   5.175  14.338 -0.1846 -0.2664  0.0871
 1620TIP3    H129055   5.417   5.266  14.367 -1.3737 -0.0375 -0.8401
 1620TIP3    H229056   5.510   5.170  14.296  0.2194  0.2150  0.8343
 1621TIP3   OH229057   0.113   4.306  15.191  0.0377 -0.1168  0.1630
 1621TIP3    H129058   0.121   4.379  15.252  2.0189  1.7809 -2.1222
 1621TIP3    H229059   0.193   4.255  15.202 -0.7410 -1.2420  0.8348
 1622TIP3   OH229060   1.004   0.926  16.313  0.2897  1.0637  0.2331
 1622TIP3    H129061   0.918   0.964  16.296  0.3239  0.0137 -2.8364
 1622TIP3    H229062   1.066   0.996  16.293  0.2293  1.7548  2.2461
 1623TIP3   OH229063   1.822   5.856  16.132 -0.6078 -0.1452 -0.2224
 1623TIP3    H129064   1.788   5.915  16.200 -0.1460 -1.1006  0.8538
 1623TIP3    H229065   1.761   5.782  16.132 -0.9437  0.1099 -1.2790
 1624TIP3   OH229066   1.264   0.447  13.579  0.4280 -0.5559  0.0123
 1624TIP3    H129067   1.337   0.393  13.547 -0.2326 -1.4527 -0.0407
 1624TIP3    H229068   1.259   0.519  13.516  0.1607 -1.4402 -1.0278
 1625TIP3   OH229069   3.270   0.803  13.427 -0.0426 -0.0007  0.0062
 1625TIP3    H129070   3.268   0.710  13.450  0.5715  0.0472  0.2643
 1625TIP3    H229071   3.358   0.832  13.448  0.7069 -0.0144 -2.6889
 1626TIP3   OH229072   0.219   3.269  15.190  0.2401  1.0062  0.1184
 1626TIP3    H129073   0.189   3.225  15.111  2.9356  0.3290 -0.6396
 1626TIP3    H229074   0.146   3.261  15.251 -1.6099  0.7990 -1.9771
 1627TIP3   OH229075   5.368   3.195  15.880  0.1707 -0.0809  0.2081
 1627TIP3    H129076   5.422   3.163  15.952  0.5264  1.1825  0.5410
 1627TIP3    H229077   5.371   3.126  15.815 -0.6415 -1.5227  1.6316
 1628TIP3   OH229078   2.122   1.560  16.617 -0.5887 -0.6835  0.2514
 1628TIP3    H129079   2.210   1.592  16.598 -0.1336 -2.4918 -0.9863
 1628TIP3    H229080   2.072   1.638  16.638  1.3741  0.3576  1.2987
 1629TIP3   OH229081   3.746   3.371  15.632  1.1202  0.3062  0.0889
 1629TIP3    H129082   3.761   3.276  15.628 -0.0432  0.0814  0.6227
 1629TIP3    H229083   3.722   3.388  15.723  0.1755  0.9125 -0.2527
 1630TIP3   OH229084   4.712   5.562  14.690 -0.0827  0.1330 -0.2929
 1630TIP3    H129085   4.805   5.543  14.703 -0.1019  0.1283 -0.1615
 1630TIP3    H229086   4.669   5.477  14.704 -0.0744  0.0567 -0.7050
 1631TIP3   OH229087   6.687   3.132  15.161 -0.1107  0.0658 -0.2397
 1631TIP3    H129088   6.647   3.086  15.087  2.5572 -0.7964 -1.2773
 1631TIP3    H229089   6.656   3.086  15.238 -0.2680 -1.2446 -1.0611
 1632TIP3   OH229090   4.032   4.417  15.400 -0.9175  0.5071 -0.2202
 1632TIP3    H129091   4.069   4.478  15.463  0.9390 -0.4098 -0.3695
 1632TIP3    H229092   3.958   4.465  15.361 -0.1307  2.2727  0.3616
 1633TIP3   OH229093   6.115   5.299  16.856 -0.3629  0.2105 -0.1895
 1633TIP3    H129094   6.044   5.235  16.864 -0.3887  0.1107 -1.0909
 1633TIP3    H229095   6.132   5.327  16.946 -1.0563 -0.2930  0.1132
 1634TIP3   OH229096   1.710   6.680  14.739 -0.4687 -0.0123 -0.3823
 1634TIP3    H129097   1.779   6.730  14.783  0.1333 -0.5525 -0.7183
 1634TIP3    H229098   1.661   6.640  14.810  1.9322 -2.8551 -0.1545
 1635TIP3   OH229099   4.503   6.616  14.847  0.2684  0.4305 -0.2375
 1635TIP3    H129100   4.487   6.596  14.754 -0.2537 -1.3646  0.1951
 1635TIP3    H229101   4.595   6.595  14.860  0.7955  2.3171 -0.7118
 1636TIP3   OH229102   5.131   6.181  15.609  0.0059  0.0925 -0.1855
 1636TIP3    H129103   5.080   6.260  15.627  0.0361 -0.1648  1.1334
 1636TIP3    H229104   5.066   6.110  15.610  0.2604 -0.1500  0.8172
 1637TIP3   OH229105   0.196   6.527  16.107 -0.6947  0.1650 -0.1393
 1637TIP3    H129106   0.268   6.572  16.063 -0.5151 -1.2319 -1.3669
 1637TIP3    H229107   0.123   6.589  16.105  0.2113  1.2796  0.3691
 1638TIP3   OH229108   4.569   0.482  14.223 -0.2260 -0.1957  0.0265
 1638TIP3    H129109   4.508   0.526  14.163 -0.4510 -0.1142  0.3132
 1638TIP3    H229110   4.556   0.526  14.306 -1.1944 -1.4694  0.5875
 1639TIP3   OH229111   6.622   0.937  16.455 -0.0741 -0.1330 -0.1284
 1639TIP3    H129112   6.705   0.968  16.418  0.3740  1.0378  1.6809
 1639TIP3    H229113   6.646   0.859  16.506 -0.3371 -0.5925 -0.7000
 1640TIP3   OH229114   2.237   4.889  15.356  0.4037  0.0275  0.5237
 1640TIP3    H129115   2.259   4.930  15.272  0.3898  0.3640  0.6835
 1640TIP3    H229116   2.160   4.835  15.336  1.5220 -1.3858 -0.0997
 1641TIP3   OH229117   5.625   6.526  15.421 -0.2448  0.1585  0.6341
 1641TIP3    H129118   5.691   6.459  15.435  2.4529  2.1985 -1.3070
 1641TIP3    H229119   5.572   6.493  15.348  1.0965  0.1023 -0.3499
 1642TIP3   OH229120   2.511   4.843  14.954 -0.7317 -0.2972  0.0585
 1642TIP3    H129121   2.508   4.817  14.862 -2.2986  1.5703 -0.4607
 1642TIP3    H229122   2.492   4.762  15.002  0.8351 -1.4665 -1.1664
 1643TIP3   OH229123   3.311   1.343  14.048  0.0033  0.3293 -0.1289
 1643TIP3    H129124   3.292   1.436  14.057 -0.3367  0.2000  0.5074
 1643TIP3    H229125   3.403   1.340  14.022 -0.1530  0.8623 -0.7556
 1644TIP3   OH229126   6.455   3.331  17.097 -0.0505  0.1025  0.0828
 1644TIP3    H129127   6.415   3.282  17.024  2.1000 -1.6349 -0.0371
 1644TIP3    H229128   6.429   3.283  17.175 -1.7525  1.5484  0.4699
 1645TIP3   OH229129   4.546   4.831  16.658  0.1855  0.3408 -0.3632
 1645TIP3    H129130   4.572   4.822  16.750 -1.8327 -0.4033  0.1973
 1645TIP3    H229131   4.616   4.882  16.618  2.0126 -0.8334  1.1694
 1646TIP3   OH229132   1.931   5.074  15.011 -0.4436  0.2355 -0.3989
 1646TIP3    H129133   1.946   4.992  14.963 -0.9101 -0.1725  0.1333
 1646TIP3    H229134   1.859   5.116  14.964 -1.9260 -0.8804  0.7846
 1647TIP3   OH229135   1.347   0.787  15.073  0.2172 -0.1389 -0.0723
 1647TIP3    H129136   1.286   0.736  15.126  0.6658 -0.3941  0.2129
 1647TIP3    H229137   1.376   0.727  15.005  1.3581 -0.5544  0.7338
 1648TIP3   OH229138   5.841   4.329  14.302  0.1806 -0.3994 -0.2345
 1648TIP3    H129139   5.888   4.375  14.231  0.8638  0.0499  0.4946
 1648TIP3    H229140   5.850   4.237  14.280 -0.1740 -0.2527 -1.0759
 1649TIP3   OH229141   4.362   0.990  16.203 -0.0646  0.0821 -0.2127
 1649TIP3    H129142   4.419   1.060  16.172 -0.0515  0.4095  0.5179
 1649TIP3    H229143   4.419   0.913  16.205 -0.3404 -0.1959 -1.9756
 1650TIP3   OH229144   2.875   1.960  12.992 -0.4193  0.0762  0.2287
 1650TIP3    H129145   2.841   2.046  12.968  0.3796  0.0007 -1.3491
 1650TIP3    H229146   2.955   1.979  13.041  0.8177  0.2900 -1.7677
 1651TIP3   OH229147   0.827   1.871  15.834 -0.1746 -0.0812 -0.3827
 1651TIP3    H129148   0.780   1.820  15.768  1.5766 -0.3553 -1.5018
 1651TIP3    H229149   0.790   1.842  15.917 -0.9064 -1.3941 -1.1294
 1652TIP3   OH229150   3.401   4.375  14.759 -0.0744 -0.8304  0.2467
 1652TIP3    H129151   3.327   4.324  14.727 -0.0425 -1.9401  1.8488
 1652TIP3    H229152   3.362   4.445  14.812 -0.0420 -0.1170 -0.6406
 1653TIP3   OH229153   3.583   0.063  16.620 -0.2357 -0.5047 -0.6138
 1653TIP3    H129154   3.637   0.011  16.561  2.1845 -1.4754  2.1908
 1653TIP3    H229155   3.581   0.151  16.582  1.7438 -0.9340 -1.7936
 1654TIP3   OH229156   2.078   3.251  14.878 -0.4078  0.2855 -0.6092
 1654TIP3    H129157   2.145   3.231  14.943 -0.8893 -0.1893 -0.2484
 1654TIP3    H229158   2.117   3.225  14.795  0.6875  2.0285 -0.6868
 1655TIP3   OH229159   0.459   4.003  16.857 -0.3267 -0.2423  0.2117
 1655TIP3    H129160   0.427   3.948  16.929  1.0277 -1.3754  0.0007
 1655TIP3    H229161   0.418   4.088  16.872  0.4739 -0.2181  2.7678
 1656TIP3   OH229162   1.075   4.860  14.931 -0.0036  0.2861 -0.9288
 1656TIP3    H129163   1.157   4.860  14.981 -0.7430 -0.6701  0.3217
 1656TIP3    H229164   1.030   4.939  14.960 -0.4611 -0.3006 -0.0014
 1657TIP3   OH229165   1.861   5.189  14.132  0.0948 -0.1764 -0.2847
 1657TIP3    H129166   1.927   5.216  14.197  0.2605 -0.9694 -0.1141
 1657TIP3    H229167   1.812   5.269  14.114  0.5733  0.2416  0.2108
 1658TIP3   OH229168   3.556   4.933  16.179 -0.4830 -0.4154  0.0127
 1658TIP3    H129169   3.550   4.842  16.207 -0.2072 -0.2275  0.6818
 1658TIP3    H229170   3.518   4.983  16.250  0.3460  0.0743  0.1196
 1659TIP3   OH229171   4.912   5.521  15.794  0.0353  0.1981 -0.1609
 1659TIP3    H129172   4.851   5.473  15.738  2.2101 -1.6022 -1.1631
 1659TIP3    H229173   4.956   5.582  15.735 -1.4702  2.3064  0.7720
 1660TIP3   OH229174   1.286   6.450  15.703 -0.3186 -0.5909  0.2350
 1660TIP3    H129175   1.228   6.374  15.697 -1.3013 -0.0004  1.7482
 1660TIP3    H229176   1.256   6.507  15.632 -1.0509 -0.6576  0.4793
 1661TIP3   OH229177   3.312   2.512  16.294  0.2226 -0.3212  0.0491
 1661TIP3    H129178   3.239   2.573  16.294  0.0644 -0.5070  0.3065
 1661TIP3    H229179   3.389   2.565  16.275 -0.1046 -0.2766 -1.2149
 1662TIP3   OH229180   0.302   0.390  16.188  0.1543 -0.0494  0.0873
 1662TIP3    H129181   0.232   0.453  16.206 -2.4122 -2.3572 -1.0881
 1662TIP3    H229182   0.305   0.336  16.267  0.5115 -0.0858  0.0494
 1663TIP3   OH229183   4.074   2.411  16.395 -0.1463 -0.7817 -0.0839
 1663TIP3    H129184   4.074   2.340  16.459  1.2611 -0.0545  0.7728
 1663TIP3    H229185   4.140   2.472  16.427 -1.2963  0.9126 -0.8127
 1664TIP3   OH229186   3.985   3.728  17.050  0.2392  0.0087  0.1321
 1664TIP3    H129187   3.932   3.805  17.034 -0.2826  0.0447  1.7990
 1664TIP3    H229188   4.060   3.761  17.100  0.0328 -0.5405  0.8230
 1665TIP3   OH229189   2.995   6.594  14.902  0.0943 -0.7949  0.1877
 1665TIP3    H129190   2.935   6.668  14.911  1.6837  0.5651  0.0960
 1665TIP3    H229191   2.952   6.536  14.839 -0.4797  0.8570 -1.0266
 1666TIP3   OH229192   0.883   3.368  16.268 -0.2156  0.1677  0.0209
 1666TIP3    H129193   0.940   3.375  16.192 -0.2159  1.2822  0.1107
 1666TIP3    H229194   0.826   3.294  16.248 -0.5005  0.7037 -1.2515
 1667TIP3   OH229195   0.033   6.269  14.744  0.2212  0.4230  0.0550
 1667TIP3    H129196   0.128   6.256  14.754  0.4011  1.7595  0.1872
 1667TIP3    H229197   0.006   6.304  14.829 -0.2496  0.8667 -0.2814
 1668TIP3   OH229198   2.352   4.032  15.465 -0.1296 -0.8389  0.0894
 1668TIP3    H129199   2.386   3.956  15.419  1.3759 -1.0318  1.4432
 1668TIP3    H229200   2.320   3.997  15.548  0.3004 -0.0523  0.5964
 1669TIP3   OH229201   0.329   0.942  14.189  0.4178  0.2773 -0.0192
 1669TIP3    H129202   0.415   0.981  14.173  1.2122 -1.6295 -0.6993
 1669TIP3    H229203   0.286   0.943  14.104  0.8409 -1.1325 -0.2853
 1670TIP3   OH229204   4.640   3.963  16.007 -0.1249 -0.1858  0.2592
 1670TIP3    H129205   4.630   3.964  16.102  0.4215 -1.7014  0.3640
 1670TIP3    H229206   4.551   3.958  15.973 -0.2695 -1.7947  0.7837
 1671TIP3   OH229207   2.248   4.616  16.568 -0.2747  0.0857 -0.5416
 1671TIP3    H129208   2.334   4.578  16.549  0.6051  1.6322  0.0771
 1671TIP3    H229209   2.242   4.614  16.664 -0.8500  0.1725 -0.5708
 1672TIP3   OH229210   5.190   2.785  14.564 -0.3888  0.5562 -0.6218
 1672TIP3    H129211   5.263   2.829  14.608  0.3674  0.2365 -1.5271
 1672TIP3    H229212   5.193   2.695  14.596  0.4548  0.2018 -1.6486
 1673TIP3   OH229213   6.488   5.089  14.020  0.1459  0.4502 -0.1576
 1673TIP3    H129214   6.434   5.020  14.058 -0.9122  1.2495 -0.1717
 1673TIP3    H229215   6.557   5.042  13.972 -0.7606 -0.5896 -0.4750
 1674TIP3   OH229216   6.084   5.599  17.036  0.4060 -0.5903 -0.3472
 1674TIP3    H129217   6.117   5.618  16.948  0.9679 -0.7299 -0.1677
 1674TIP3    H229218   6.066   5.685  17.074 -0.3075 -0.5419 -0.7717
 1675TIP3   OH229219   4.829   2.895  14.799  0.7205  0.1210  0.1343
 1675TIP3    H129220   4.897   2.938  14.850 -0.6634  1.8764  0.6200
 1675TIP3    H229221   4.808   2.959  14.730 -0.9753 -0.0308  0.4823
 1676TIP3   OH229222   6.377   0.974  16.555  0.0037 -0.1772 -0.3585
 1676TIP3    H129223   6.457   0.952  16.509 -0.3197  0.3529 -1.1981
 1676TIP3    H229224   6.380   1.069  16.565 -1.6130  0.1814 -2.5638
 1677TIP3   OH229225   2.493   5.507  16.716 -0.0216  0.3509  0.0314
 1677TIP3    H129226   2.410   5.461  16.716 -0.0677  0.3849  1.5054
 1677TIP3    H229227   2.477   5.587  16.766  0.6863  0.7499 -0.3582
 1678TIP3   OH229228   3.371   6.753  13.212  0.2586  0.2540  0.0943
 1678TIP3    H129229   3.319   6.831  13.192 -0.4119 -0.4292 -0.9284
 1678TIP3    H229230   3.454   6.767  13.167 -0.4112 -0.2589 -1.3705
 1679TIP3   OH229231   5.375   3.261  14.693  0.6229 -0.0652 -0.2268
 1679TIP3    H129232   5.428   3.224  14.764 -0.2604 -0.0411  0.4662
 1679TIP3    H229233   5.293   3.286  14.736 -0.7652 -1.9481 -1.6366
 1680TIP3   OH229234   0.464   1.540  16.216 -0.0646 -0.1073  0.2119
 1680TIP3    H129235   0.466   1.575  16.126  0.0925  0.7332  0.5338
 1680TIP3    H229236   0.382   1.491  16.220  0.0209 -0.3275 -0.4503
 1681TIP3   OH229237   3.250   1.857  15.094 -0.0003  1.0784 -0.2603
 1681TIP3    H129238   3.302   1.797  15.147  1.9666  2.2964 -0.6956
 1681TIP3    H229239   3.247   1.938  15.146 -1.4814  1.0614 -0.2663
 1682TIP3   OH229240   4.078   0.684  15.444  0.3747 -0.3963 -0.1902
 1682TIP3    H129241   4.100   0.704  15.535  0.9676 -1.6717 -0.0257
 1682TIP3    H229242   3.986   0.707  15.436  0.3034 -0.3055  0.7504
 1683TIP3   OH229243   0.086   6.545  14.372  0.1810 -0.5507  0.1538
 1683TIP3    H129244   0.136   6.588  14.303  0.7691 -1.4070  0.0326
 1683TIP3    H229245   0.141   6.472  14.399 -0.4711 -0.7865  0.8697
 1684TIP3   OH229246   4.048   1.234  17.026 -0.0945 -0.6420  0.6628
 1684TIP3    H129247   4.084   1.315  17.064 -1.8392  0.4561  0.1006
 1684TIP3    H229248   4.077   1.165  17.085  0.7134  0.5148  1.6668
 1685TIP3   OH229249   2.915   0.017  16.291  0.0465  0.3342  0.0960
 1685TIP3    H129250   2.887  -0.035  16.367 -0.6565 -0.0927 -0.4444
 1685TIP3    H229251   2.836   0.065  16.266  0.0015 -0.2768 -0.9647
 1686TIP3   OH229252   1.564   5.435  14.185 -0.2179 -0.4823  0.3376
 1686TIP3    H129253   1.469   5.424  14.174 -0.2060 -1.2850  0.9393
 1686TIP3    H229254   1.583   5.520  14.146 -1.3455  0.1500  1.1040
 1687TIP3   OH229255   3.068   5.275  16.482  0.2183  0.0309 -0.0189
 1687TIP3    H129256   3.149   5.281  16.533 -0.7465  0.2705  1.5622
 1687TIP3    H229257   3.009   5.222  16.535 -1.2334  1.2485 -0.3125
 1688TIP3   OH229258   1.029   5.361  15.199 -0.0248  0.3699  0.5043
 1688TIP3    H129259   1.052   5.324  15.284 -2.4776  1.0823  1.5857
 1688TIP3    H229260   1.094   5.326  15.138  0.3214 -2.2132  2.2148
 1689TIP3   OH229261   0.819   3.446  15.860  0.2912  0.8382 -0.1526
 1689TIP3    H129262   0.847   3.486  15.943  1.1929  0.8298 -0.4459
 1689TIP3    H229263   0.873   3.367  15.852 -2.6871 -1.5586  1.3275
 1690TIP3   OH229264   6.585   1.901  14.590  0.1362  0.3603 -0.6284
 1690TIP3    H129265   6.647   1.950  14.643 -0.5739  2.0150 -1.2742
 1690TIP3    H229266   6.605   1.926  14.500 -1.4579  0.9230 -0.8455
 1691TIP3   OH229267   1.616   0.539  14.571 -0.2524 -0.2448 -0.1294
 1691TIP3    H129268   1.679   0.572  14.635  1.0081 -2.0622 -0.3448
 1691TIP3    H229269   1.586   0.456  14.609  0.9516 -1.6493 -2.0820
 1692TIP3   OH229270   5.125   5.290  15.024  0.9326  0.3958 -0.0464
 1692TIP3    H129271   5.127   5.342  15.104  0.1417 -1.8368  1.5149
 1692TIP3    H229272   5.214   5.259  15.013  0.5139 -1.5174  1.5765
 1693TIP3   OH229273   5.960   0.442  15.330 -0.5937  1.1191  0.2943
 1693TIP3    H129274   5.976   0.438  15.236 -1.6193  0.5271  0.1290
 1693TIP3    H229275   5.948   0.350  15.356 -0.6581  1.3030  0.9341
 1694TIP3   OH229276   5.214   2.305  13.988 -0.7951  0.0429  0.3576
 1694TIP3    H129277   5.168   2.357  13.921  0.2727 -0.1950 -0.5903
 1694TIP3    H229278   5.305   2.306  13.960 -0.6653 -1.9611  0.5709
 1695TIP3   OH229279   5.473   2.797  16.477 -0.2344 -0.0310  0.3006
 1695TIP3    H129280   5.486   2.712  16.520 -0.7008 -0.6486 -0.7189
 1695TIP3    H229281   5.382   2.821  16.497  0.0358  0.4487  0.9571
 1696TIP3   OH229282   1.493   0.897  14.307 -0.3314  0.4098 -0.0940
 1696TIP3    H129283   1.411   0.875  14.263 -2.3552  3.1772  1.9000
 1696TIP3    H229284   1.561   0.888  14.240 -2.3627 -1.1117 -2.0759
 1697TIP3   OH229285   0.454   1.260  14.678  0.2040 -0.1382  0.3741
 1697TIP3    H129286   0.381   1.316  14.650  0.0754 -0.5403 -0.1110
 1697TIP3    H229287   0.480   1.214  14.598 -1.5020 -2.8895  1.2625
 1698TIP3   OH229288   3.318   5.752  14.285  0.1225 -0.1277 -0.1322
 1698TIP3    H129289   3.256   5.694  14.329 -0.4356 -0.6327 -1.5508
 1698TIP3    H229290   3.401   5.705  14.288 -0.1642 -0.6745 -0.6202
 1699TIP3   OH229291   1.882   5.219  13.725  0.0084 -0.0761  0.5068
 1699TIP3    H129292   1.804   5.273  13.735  0.3845  0.5038  0.3394
 1699TIP3    H229293   1.954   5.272  13.760  0.3491 -0.5625  0.5681
 1700TIP3   OH229294   2.951   2.555  16.941  0.3996  0.0675  0.0543
 1700TIP3    H129295   2.915   2.483  16.994  0.7808 -0.1988 -0.0467
 1700TIP3    H229296   2.941   2.632  16.996  1.9933 -0.3966  1.0755
 1701TIP3   OH229297   2.316   2.071  14.490 -0.0648  0.4235  0.1871
 1701TIP3    H129298   2.316   2.119  14.572  0.8226  1.5151 -0.4175
 1701TIP3    H229299   2.230   2.088  14.452 -0.2745  0.3700  0.6352
 1702TIP3   OH229300   5.044   3.292  15.630  0.4633 -1.0301  0.2001
 1702TIP3    H129301   5.138   3.304  15.645  0.3801 -0.4932  0.3171
 1702TIP3    H229302   5.002   3.363  15.680 -0.0259 -1.4973  0.4672
 1703TIP3   OH229303   5.865   1.967  15.976  0.1655 -0.3998  0.4318
 1703TIP3    H129304   5.886   2.053  15.940 -0.0549 -0.9114 -0.9955
 1703TIP3    H229305   5.949   1.933  16.007  0.4760 -0.1758 -0.1459
 1704TIP3   OH229306   3.119   0.012  15.628  0.2296  1.2114  0.8251
 1704TIP3    H129307   3.034  -0.000  15.584  0.0114  0.3034  1.4647
 1704TIP3    H229308   3.154   0.092  15.590  0.5910 -0.1141 -1.8677
 1705TIP3   OH229309   4.435   2.232  15.480  0.6204  0.2404  0.2018
 1705TIP3    H129310   4.392   2.177  15.545 -0.6280 -0.0493 -0.8320
 1705TIP3    H229311   4.503   2.278  15.529  0.5274 -0.8954  1.4411
 1706TIP3   OH229312   2.978   0.357  15.535  0.2835  0.1493  0.0624
 1706TIP3    H129313   3.018   0.387  15.453  0.4098  1.2509  0.5038
 1706TIP3    H229314   2.886   0.343  15.513  0.7591 -1.8855 -0.8320
 1707TIP3   OH229315   2.842   6.285  16.085 -0.1956  0.2431 -0.6239
 1707TIP3    H129316   2.757   6.272  16.043  0.3722 -1.2615 -1.3645
 1707TIP3    H229317   2.844   6.378  16.107 -1.1754  0.7608 -2.5316
 1708TIP3   OH229318   2.157   3.062  15.900 -0.2870  0.1289  0.3025
 1708TIP3    H129319   2.105   3.079  15.822  0.6428  3.3489  0.2652
 1708TIP3    H229320   2.248   3.071  15.872  0.0834  0.9447  1.6322
 1709TIP3   OH229321   4.939   0.940  16.302 -0.1268 -0.2932 -1.0242
 1709TIP3    H129322   4.917   0.972  16.215 -1.6351  1.1581 -0.1712
 1709TIP3    H229323   5.033   0.924  16.299 -0.2647 -0.9595 -3.1091
 1710TIP3   OH229324   5.678   5.522  14.972  0.4383  0.3695 -0.0664
 1710TIP3    H129325   5.640   5.597  15.016 -0.8085 -0.3799  0.1968
 1710TIP3    H229326   5.770   5.545  14.959  0.5446  1.1279  1.7860
 1711TIP3   OH229327   5.104   6.266  15.267 -0.3508  0.2701  0.2095
 1711TIP3    H129328   5.059   6.256  15.184 -0.0266 -0.3677  0.1058
 1711TIP3    H229329   5.048   6.220  15.330  0.6685 -1.4989 -0.1053
 1712TIP3   OH229330   2.456   2.634  16.063  0.1975  0.3472  0.4543
 1712TIP3    H129331   2.371   2.608  16.028 -1.1408  0.7404  3.1412
 1712TIP3    H229332   2.476   2.717  16.019 -1.4901  0.9351  0.7461
 1713TIP3   OH229333   5.106   4.740  17.018  0.5101 -0.2364 -0.3217
 1713TIP3    H129334   5.098   4.773  16.928  0.1482  1.1434  0.1938
 1713TIP3    H229335   5.188   4.778  17.050 -1.4414  2.9699  1.3439
 1714TIP3   OH229336   3.253   4.040  14.758  0.2719  0.5621 -0.2638
 1714TIP3    H129337   3.298   4.077  14.834 -0.8281 -0.2858  0.8441
 1714TIP3    H229338   3.190   4.109  14.733  1.2602  1.2164 -1.0037
 1715TIP3   OH229339   6.236   4.268  14.678 -0.0063  0.3454 -0.2267
 1715TIP3    H129340   6.162   4.260  14.617  0.4922  0.4956 -0.8592
 1715TIP3    H229341   6.221   4.198  14.742 -1.6341  1.4444  0.6980
 1716TIP3   OH229342   0.754   0.130  14.047  0.0494 -0.1594  0.0765
 1716TIP3    H129343   0.764   0.218  14.012  1.0026  0.0441  0.8436
 1716TIP3    H229344   0.714   0.081  13.975  0.7810  0.5621 -0.8460
 1717TIP3   OH229345   2.447   5.208  16.907 -0.2219  0.4046 -0.1522
 1717TIP3    H129346   2.521   5.207  16.847 -0.2706  0.5180 -0.2154
 1717TIP3    H229347   2.389   5.276  16.873 -1.1756 -0.8255 -1.0749
 1718TIP3   OH229348   3.589   0.095  13.122  0.2106 -0.5726  0.0234
 1718TIP3    H129349   3.618   0.059  13.039  1.2775 -0.5467  0.3631
 1718TIP3    H229350   3.667   0.092  13.178 -0.1120  0.6922  0.5852
 1719TIP3   OH229351   6.227   0.704  12.737  0.1988 -0.4220 -0.3586
 1719TIP3    H129352   6.175   0.663  12.668 -0.0466 -1.0767  0.2033
 1719TIP3    H229353   6.230   0.638  12.807 -0.2120  0.5076  0.5664
 1720TIP3   OH229354   0.721   5.385  17.026 -0.5007 -0.2059  0.3602
 1720TIP3    H129355   0.803   5.406  16.981 -0.1854 -0.3557  0.8634
 1720TIP3    H229356   0.710   5.290  17.012 -0.2077 -0.3223  0.9215
 1721TIP3   OH229357   3.157   6.536  14.257  0.6624  0.5992 -0.2041
 1721TIP3    H129358   3.251   6.534  14.238  0.3761  0.7109 -1.7666
 1721TIP3    H229359   3.123   6.458  14.215  0.1258  0.2431  0.8682
 1722TIP3   OH229360   3.508   0.599  15.924  0.0408  0.3475  0.2519
 1722TIP3    H129361   3.539   0.678  15.968 -0.6774  1.6390 -1.4615
 1722TIP3    H229362   3.415   0.615  15.908  0.0240 -0.5739 -0.6899
 1723TIP3   OH229363   3.151   2.802  16.119 -0.3643 -0.0565 -0.0804
 1723TIP3    H129364   3.238   2.764  16.103 -0.2113 -0.0103  0.6258
 1723TIP3    H229365   3.110   2.804  16.032  0.8138  1.1288 -0.6512
 1724TIP3   OH229366   5.982   4.901  16.684 -0.1535 -0.1073 -0.2059
 1724TIP3    H129367   6.023   4.892  16.770 -2.0972 -2.6438  0.5892
 1724TIP3    H229368   5.888   4.892  16.702 -0.6425 -0.2795 -2.5537
 1725TIP3   OH229369   0.481   3.239  14.885  0.1833 -0.1757 -0.7242
 1725TIP3    H129370   0.553   3.176  14.879  0.3459 -0.0519 -0.1436
 1725TIP3    H229371   0.510   3.302  14.952 -0.9300 -0.7448  0.3322
 1726TIP3   OH229372   4.003   6.705  15.709  0.5642  0.0162 -0.4561
 1726TIP3    H129373   3.954   6.762  15.650  0.1885  0.8165  0.6090
 1726TIP3    H229374   3.936   6.655  15.755  0.8125  0.0540 -0.0507
 1727TIP3   OH229375   2.634   0.587  13.910 -0.1779 -0.0766 -0.0643
 1727TIP3    H129376   2.706   0.607  13.851 -1.6102  1.1540 -1.4580
 1727TIP3    H229377   2.562   0.561  13.853 -0.8091 -1.5527  1.3125
 1728TIP3   OH229378   2.992   2.904  16.482 -0.1811  0.1594  0.0621
 1728TIP3    H129379   2.929   2.839  16.452  0.2379  0.4254 -1.4577
 1728TIP3    H229380   2.995   2.969  16.412  1.7526  0.1650  0.1029
 1729TIP3   OH229381   6.460   1.914  17.235  0.0911  0.3008 -0.2892
 1729TIP3    H129382   6.449   1.873  17.321 -0.3502  0.4554 -0.2697
 1729TIP3    H229383   6.376   1.900  17.191 -0.3103  1.7232 -0.0417
 1730TIP3   OH229384   2.056   4.618  17.015 -0.2894  0.2700 -0.3918
 1730TIP3    H129385   2.002   4.541  16.997 -0.1884  0.4698 -1.6695
 1730TIP3    H229386   1.997   4.680  17.057 -1.3282  0.7796 -2.4523
 1731TIP3   OH229387   2.914   3.691  15.678  0.0148 -0.4166 -0.9506
 1731TIP3    H129388   2.978   3.718  15.612 -0.5113 -0.1408 -1.3611
 1731TIP3    H229389   2.946   3.606  15.709  0.7533 -0.1312 -0.9049
 1732TIP3   OH229390   1.085   5.911  16.705  0.1994 -0.2543 -0.1848
 1732TIP3    H129391   1.019   5.917  16.773  0.2776  0.2695 -0.1471
 1732TIP3    H229392   1.042   5.946  16.626  0.6820  0.9119  0.0376
 1733TIP3   OH229393   1.690   0.880  14.117  0.0761 -0.3522  0.4793
 1733TIP3    H129394   1.690   0.967  14.077  1.5849 -0.4070  0.3211
 1733TIP3    H229395   1.728   0.823  14.050 -1.7772 -1.3597  0.1965
 1734TIP3   OH229396   6.388   5.325  14.180  0.1166  0.2907 -0.3174
 1734TIP3    H129397   6.475   5.320  14.221  0.2040 -1.2136 -0.6546
 1734TIP3    H229398   6.395   5.272  14.101 -0.9175  0.7333 -0.7286
 1735TIP3   OH229399   1.337   5.389  16.339  0.1852 -0.0163  0.0704
 1735TIP3    H129400   1.312   5.382  16.247  1.1635 -0.3347 -0.1855
 1735TIP3    H229401   1.423   5.347  16.344 -0.1619 -0.6210  1.2699
 1736TIP3   OH229402   4.384   0.110  15.740  0.1273 -0.4385  0.2875
 1736TIP3    H129403   4.398   0.176  15.808 -0.1798  1.0991 -1.0749
 1736TIP3    H229404   4.304   0.064  15.767  1.1720 -1.3325  2.0346
 1737TIP3   OH229405   1.629   4.175  16.813  0.3409 -0.0244 -0.1840
 1737TIP3    H129406   1.702   4.205  16.758  0.2992 -0.2545 -0.3678
 1737TIP3    H229407   1.592   4.102  16.764  0.9558 -0.9174  0.6431
 1738TIP3   OH229408   1.391   5.335  14.411  0.2654 -0.6035 -0.0931
 1738TIP3    H129409   1.307   5.381  14.414  0.3133 -0.5674  1.1612
 1738TIP3    H229410   1.441   5.382  14.344  0.3684  1.3186  1.2644
 1739TIP3   OH229411   3.668   1.373  14.885  0.5909 -0.0510 -0.3081
 1739TIP3    H129412   3.602   1.416  14.831  1.2690 -1.1401 -2.0706
 1739TIP3    H229413   3.749   1.379  14.834  1.5488 -0.0506  1.1446
 1740TIP3   OH229414   5.708   0.145  16.195  0.4494 -0.4116 -0.0346
 1740TIP3    H129415   5.773   0.140  16.125  1.4163 -1.9867  0.9284
 1740TIP3    H229416   5.663   0.061  16.193 -3.3849  1.3898 -2.2246
 1741TIP3   OH229417   3.005   5.565  14.506 -0.2175 -0.2802  0.0762
 1741TIP3    H129418   3.092   5.533  14.484 -0.3288  0.3563 -1.4307
 1741TIP3    H229419   2.952   5.486  14.514  0.2040 -0.6145 -0.3778
 1742TIP3   OH229420   6.182   4.110  17.102  0.2507 -0.0067  1.3702
 1742TIP3    H129421   6.140   4.174  17.158 -0.6019  0.3490  0.3625
 1742TIP3    H229422   6.154   4.025  17.137  0.1381  0.2023  1.7868
 1743TIP3   OH229423   5.997   1.638  16.842  0.2664 -0.1514 -0.1522
 1743TIP3    H129424   6.039   1.686  16.771 -0.8342  0.2022 -0.5876
 1743TIP3    H229425   5.909   1.674  16.846  0.6946  0.7499  2.2630
 1744TIP3   OH229426   6.017   5.364  15.343 -0.0825 -0.3697  0.0356
 1744TIP3    H129427   6.105   5.398  15.359 -0.0335  0.4916 -1.8515
 1744TIP3    H229428   6.025   5.269  15.356  1.1116 -0.2961 -0.0666
 1745TIP3   OH229429   5.105   2.955  14.914 -0.6785  0.2618  0.5052
 1745TIP3    H129430   5.187   2.995  14.884 -2.2484  1.8926 -2.0312
 1745TIP3    H229431   5.131   2.895  14.983  2.6982  0.3574 -0.5124
 1746TIP3   OH229432   3.424   2.479  17.138  0.1218 -0.0254  0.2710
 1746TIP3    H129433   3.434   2.424  17.060 -0.2291  0.7357 -0.3188
 1746TIP3    H229434   3.434   2.569  17.106 -0.1602  0.3045  1.0781
 1747TIP3   OH229435   2.195   4.993  14.545  0.2789  0.2219  0.2013
 1747TIP3    H129436   2.287   4.979  14.569  0.7645  0.1221 -1.5644
 1747TIP3    H229437   2.163   5.056  14.609  2.0843  1.5814 -0.1319
 1748TIP3   OH229438   0.741   0.847  13.370 -0.5014 -0.0179 -0.0731
 1748TIP3    H129439   0.669   0.806  13.321 -0.5450 -1.4725  1.1340
 1748TIP3    H229440   0.820   0.822  13.321 -0.6987  0.4311 -0.6338
 1749TIP3   OH229441   5.128   1.666  14.597 -0.1084  0.2007  0.3224
 1749TIP3    H129442   5.217   1.631  14.593 -0.8392 -1.7250 -3.0748
 1749TIP3    H229443   5.104   1.662  14.690  2.8374 -0.4804  1.1355
 1750TIP3   OH229444   4.129   2.447  15.593  0.5333 -0.1742 -0.5087
 1750TIP3    H129445   4.200   2.437  15.657 -0.2721 -1.0934  0.2849
 1750TIP3    H229446   4.136   2.370  15.537 -2.1783 -2.5284  2.0412
 1751TIP3   OH229447   5.209   2.371  16.494 -0.1329 -0.2739  0.5488
 1751TIP3    H129448   5.177   2.306  16.431  1.7553 -2.2312  1.4722
 1751TIP3    H229449   5.154   2.360  16.571  1.4122 -2.3696  1.4695
 1752TIP3   OH229450   3.750   4.520  16.736 -0.0490  0.0158 -0.3166
 1752TIP3    H129451   3.838   4.486  16.756  0.1222  0.4110 -0.3928
 1752TIP3    H229452   3.698   4.441  16.719  0.0811 -0.2645  0.5576
 1753TIP3   OH229453   5.090   0.838  13.789 -0.0831  0.0065 -0.4958
 1753TIP3    H129454   5.185   0.836  13.778 -0.3339 -3.0046 -3.7450
 1753TIP3    H229455   5.066   0.748  13.809 -2.3791  0.3134 -1.5830
 1754TIP3   OH229456   1.975   0.115  17.009  0.2577 -1.2125  0.0459
 1754TIP3    H129457   2.031   0.081  16.940 -0.9820  0.7849 -2.1086
 1754TIP3    H229458   1.987   0.210  17.006 -1.1428 -0.9353  1.3947
 1755TIP3   OH229459   0.860   0.663  13.575 -0.4420 -0.9250 -0.5030
 1755TIP3    H129460   0.824   0.750  13.593 -1.0109 -1.3294  0.3487
 1755TIP3    H229461   0.902   0.672  13.489 -1.4259 -0.0923 -0.9226
 1756TIP3   OH229462   6.585   2.986  15.379  0.2025 -0.7817 -0.4008
 1756TIP3    H129463   6.609   2.969  15.470  0.2061  0.9726 -0.0460
 1756TIP3    H229464   6.494   3.016  15.383  0.0716 -1.0690 -1.0254
 1757TIP3   OH229465   1.155   2.046  16.061  0.3826 -0.1730  0.1618
 1757TIP3    H129466   1.135   2.086  16.146  1.2489 -1.5175  1.0448
 1757TIP3    H229467   1.113   1.960  16.064  1.4702 -0.7450 -0.2362
 1758TIP3   OH229468   1.296   4.128  15.065 -0.2615  0.2687 -0.3318
 1758TIP3    H129469   1.209   4.095  15.088 -0.7701  1.9159  0.2698
 1758TIP3    H229470   1.283   4.175  14.983 -0.1958  1.4152  0.2887
 1759TIP3   OH229471   6.712   6.444  14.962 -0.2201  0.2580 -0.1464
 1759TIP3    H129472   6.800   6.471  14.989 -0.0958  0.4460 -0.7345
 1759TIP3    H229473   6.662   6.441  15.044  0.7456 -1.4817  0.4189
 1760TIP3   OH229474   2.649   6.303  15.759  0.1345 -0.2200 -0.3780
 1760TIP3    H129475   2.721   6.240  15.766 -1.1036 -1.6186  0.7755
 1760TIP3    H229476   2.612   6.305  15.847 -0.2464  1.7174 -0.5470
 1761TIP3   OH229477   2.430   6.280  16.237  0.4108 -0.5279 -0.4459
 1761TIP3    H129478   2.363   6.250  16.298  0.1939 -2.3428 -1.5077
 1761TIP3    H229479   2.427   6.375  16.243  0.0170 -0.6267  1.9322
 1762TIP3   OH229480   5.674   4.286  16.444 -0.0708 -0.1675 -0.2248
 1762TIP3    H129481   5.705   4.282  16.535 -0.8115 -1.1066  0.0041
 1762TIP3    H229482   5.688   4.377  16.418  0.2098  0.1034  0.8176
 1763TIP3   OH229483   1.910   0.522  15.122  0.0042 -0.1592 -0.1181
 1763TIP3    H129484   2.005   0.518  15.128 -0.0626 -0.7918  0.8907
 1763TIP3    H229485   1.891   0.602  15.073  1.0806 -0.9514 -1.9277
 1764TIP3   OH229486   1.419   0.032  16.915  0.2583  0.1099 -0.1092
 1764TIP3    H129487   1.505   0.033  16.957  0.7567  1.6172 -1.0863
 1764TIP3    H229488   1.435   0.062  16.826 -1.1363 -0.6432 -0.6525
 1765TIP3   OH229489   6.421   2.179  15.211 -0.3866 -0.7937 -0.0259
 1765TIP3    H129490   6.346   2.192  15.270 -0.4942 -0.1825 -0.2993
 1765TIP3    H229491   6.406   2.092  15.173  0.1783 -1.6284  1.5596
 1766TIP3   OH229492   0.669   0.284  12.687 -0.2865 -0.2678 -0.4889
 1766TIP3    H129493   0.630   0.216  12.741 -0.8761 -1.5924 -2.4518
 1766TIP3    H229494   0.594   0.325  12.643  0.1281  1.1241  0.0458
 1767TIP3   OH229495   1.451   3.983  16.298 -0.4302  0.1371  0.4880
 1767TIP3    H129496   1.357   3.996  16.305 -0.3784  0.7862 -0.0198
 1767TIP3    H229497   1.465   3.958  16.207  0.1433  2.3217 -0.0662
 1768TIP3   OH229498   5.331   0.615  15.140  0.2560 -0.7672  0.0113
 1768TIP3    H129499   5.325   0.681  15.209  1.6737 -1.7282  1.1085
 1768TIP3    H229500   5.293   0.658  15.063  1.7443  1.5760  0.4860
 1769TIP3   OH229501   3.182   5.660  16.871 -0.4154  0.0194  0.0200
 1769TIP3    H129502   3.235   5.717  16.815 -1.9522  0.0996 -1.4789
 1769TIP3    H229503   3.123   5.719  16.917 -2.1671 -0.2519 -1.7048
 1770TIP3   OH229504   6.420   1.730  15.169  0.5599 -0.1473 -0.5661
 1770TIP3    H129505   6.423   1.640  15.136  0.4367  0.3396 -1.9869
 1770TIP3    H229506   6.433   1.722  15.263  1.1099 -1.6111 -0.7453
 1771TIP3   OH229507   3.624   3.002  14.961  0.1475 -0.1586  0.1954
 1771TIP3    H129508   3.605   2.990  15.054  0.3127  1.0959  0.4099
 1771TIP3    H229509   3.538   3.012  14.919  0.1046  0.3014  0.3820
 1772TIP3   OH229510   0.116   4.491  15.434 -0.0564  0.4622  0.7561
 1772TIP3    H129511   0.042   4.552  15.439 -0.0189  0.4972  0.8825
 1772TIP3    H229512   0.082   4.411  15.474 -0.9917 -0.4839 -1.6964
 1773TIP3   OH229513   5.729   0.176  14.052  0.6947  0.4856 -0.0251
 1773TIP3    H129514   5.661   0.144  14.110  1.6605 -0.9624  0.3452
 1773TIP3    H229515   5.704   0.145  13.965  0.4116  0.7453 -0.0376
 1774TIP3   OH229516   6.069   4.463  14.952 -0.4045 -0.1940 -0.5851
 1774TIP3    H129517   6.004   4.501  14.893 -0.7226  0.3089  0.0708
 1774TIP3    H229518   6.041   4.372  14.964 -1.1984  0.1051 -0.0466
 1775TIP3   OH229519   5.444   1.450  16.628 -0.3818  0.2077  0.3516
 1775TIP3    H129520   5.453   1.358  16.600  0.6223  0.5641 -0.6045
 1775TIP3    H229521   5.534   1.480  16.637 -0.6562  0.4246  3.1469
 1776TIP3   OH229522   0.430   1.918  16.198 -0.2073  0.4514  0.2193
 1776TIP3    H129523   0.503   1.978  16.216  0.4135 -0.0274 -0.6293
 1776TIP3    H229524   0.451   1.880  16.113 -1.1494 -0.1521  0.2474
 1777TIP3   OH229525   1.001   2.512  13.929 -0.7360  0.1262  0.1082
 1777TIP3    H129526   0.986   2.577  13.861 -0.5362 -0.3970 -0.4530
 1777TIP3    H229527   1.046   2.440  13.883 -2.2995 -1.0623  0.3659
 1778TIP3   OH229528   1.938   4.960  14.243  0.1154 -0.6442  0.2851
 1778TIP3    H129529   1.963   5.042  14.285 -2.1415  0.0945  0.3655
 1778TIP3    H229530   1.861   4.983  14.190  0.5727 -2.3331 -1.2170
 1779TIP3   OH229531   5.996   3.209  16.552 -0.4239 -0.4229 -0.2497
 1779TIP3    H129532   6.033   3.141  16.608  0.1749  0.1580  0.0675
 1779TIP3    H229533   5.927   3.249  16.604  2.5956  2.7462  1.7373
 1780TIP3   OH229534   2.028   1.499  13.614  0.0997  0.1896 -0.2909
 1780TIP3    H129535   2.033   1.404  13.627 -0.2281 -0.1056 -2.0583
 1780TIP3    H229536   1.982   1.509  13.531 -0.2941  1.9258  0.1070
 1781TIP3   OH229537   0.789   5.598  16.201 -0.0582  0.1349  0.1241
 1781TIP3    H129538   0.741   5.569  16.278  1.2110 -0.7775  0.5993
 1781TIP3    H229539   0.775   5.693  16.198 -1.2490 -0.0050  0.6614
 1782TIP3   OH229540   0.180   3.931  15.566  0.0267  0.2237 -0.3615
 1782TIP3    H129541   0.190   3.899  15.656 -1.2779  3.0497  0.8949
 1782TIP3    H229542   0.266   3.968  15.545  0.0533  0.4724  0.1538
 1783TIP3   OH229543   2.120   2.848  16.091 -0.0213 -0.1214 -0.2133
 1783TIP3    H129544   2.134   2.923  16.033 -0.7035 -0.1000 -0.3509
 1783TIP3    H229545   2.137   2.882  16.179  1.1321 -0.1808 -0.3968
 1784TIP3   OH229546   6.566   0.236  15.312  0.2637 -0.1669  0.2719
 1784TIP3    H129547   6.621   0.306  15.346  0.2460  1.0980 -2.0952
 1784TIP3    H229548   6.626   0.162  15.300  1.0146  0.5209 -0.3086
 1785TIP3   OH229549   0.817   5.790  17.150 -0.6142  0.4841 -0.3494
 1785TIP3    H129550   0.862   5.743  17.221  0.5577  1.9601 -0.0678
 1785TIP3    H229551   0.727   5.759  17.154  0.0808 -1.6776 -0.1491
 1786TIP3   OH229552   6.738   5.890  16.043 -0.2085  0.1088  0.7472
 1786TIP3    H129553   6.810   5.838  16.010 -1.5155 -0.7778 -0.8510
 1786TIP3    H229554   6.715   5.849  16.127  0.0970 -0.6266  0.4782
 1787TIP3   OH229555   0.109   0.237  14.322  0.4914  0.1332 -0.2394
 1787TIP3    H129556   0.112   0.213  14.230 -3.2850  0.0080 -0.4775
 1787TIP3    H229557   0.058   0.168  14.364 -1.1340  2.0317  1.1549
 1788TIP3   OH229558   5.136   4.517  14.927  0.3768 -0.5030  0.0256
 1788TIP3    H129559   5.138   4.547  15.018 -0.7247 -1.6141  0.4354
 1788TIP3    H229560   5.149   4.597  14.875 -4.0687  1.1272  0.9950
 1789TIP3   OH229561   6.604   2.505  14.925 -0.5067 -0.2557  0.1078
 1789TIP3    H129562   6.609   2.600  14.938 -1.3342  0.1841 -2.3186
 1789TIP3    H229563   6.587   2.470  15.012 -0.0022  1.7921  1.0952
 1790TIP3   OH229564   3.663   4.961  15.487  0.3713  0.6495 -0.3488
 1790TIP3    H129565   3.703   4.995  15.567  1.5096  0.8092 -0.9631
 1790TIP3    H229566   3.583   5.012  15.476 -1.2421 -1.1546  2.1036
 1791TIP3   OH229567   3.484   1.260  16.019  0.7558  0.2641 -0.1219
 1791TIP3    H129568   3.579   1.272  16.020  0.8992 -0.8146  0.2784
 1791TIP3    H229569   3.462   1.257  15.926  0.7347  3.0380 -0.2994
 1792TIP3   OH229570   0.792   2.504  14.368 -0.1031 -0.2451 -0.0011
 1792TIP3    H129571   0.767   2.415  14.343 -0.8143 -0.0293 -0.0978
 1792TIP3    H229572   0.710   2.544  14.397  0.0872  0.5797 -0.5670
 1793TIP3   OH229573   3.291   6.701  16.654 -0.1917 -0.1504 -0.4451
 1793TIP3    H129574   3.360   6.761  16.625 -1.6069  1.6499 -0.2270
 1793TIP3    H229575   3.256   6.741  16.733 -0.0376 -2.2080  0.7269
 1794TIP3   OH229576   3.018   4.512  13.841 -0.4828 -0.5102 -0.5272
 1794TIP3    H129577   3.021   4.598  13.800  2.7270  0.4336  1.3590
 1794TIP3    H229578   3.069   4.456  13.782  0.6687 -0.1480  0.1021
 1795TIP3   OH229579   6.513   1.566  14.297  0.3284 -0.6312  0.3585
 1795TIP3    H129580   6.457   1.575  14.220 -0.7735 -2.4904  0.8746
 1795TIP3    H229581   6.471   1.497  14.349  1.3275  0.1988  2.3685
 1796TIP3   OH229582   1.410   2.072  16.204 -0.0621  0.5686 -0.4389
 1796TIP3    H129583   1.327   2.051  16.163 -0.4568  1.7862 -0.2986
 1796TIP3    H229584   1.476   2.036  16.145 -0.6600  0.8109 -1.2611
 1797TIP3   OH229585   0.656   1.895  15.150 -0.2336  0.1905 -0.3654
 1797TIP3    H129586   0.633   1.913  15.059 -0.7371  1.2664 -0.0456
 1797TIP3    H229587   0.604   1.818  15.173  1.3900 -1.3433 -1.5460
 1798TIP3   OH229588   6.597   0.482  13.961  0.2061  0.7261  0.1426
 1798TIP3    H129589   6.618   0.507  14.051 -1.2866 -0.0614  0.7621
 1798TIP3    H229590   6.655   0.534  13.907  0.9956  1.3799  1.5611
 1799TIP3   OH229591   0.539   3.198  16.079  0.1759 -0.3633 -0.1766
 1799TIP3    H129592   0.526   3.154  15.995 -2.3737  0.4322 -0.2856
 1799TIP3    H229593   0.480   3.153  16.139  1.1978 -0.2396  0.9549
 1800TIP3   OH229594   1.302   1.585  16.478 -0.0909 -1.0774 -0.8808
 1800TIP3    H129595   1.347   1.562  16.396  1.8964 -0.7674  0.0513
 1800TIP3    H229596   1.323   1.513  16.537  1.9619  0.5790  0.5512
 1801TIP3   OH229597   5.376   3.714  14.296  0.5708  0.2591 -0.0817
 1801TIP3    H129598   5.338   3.643  14.245 -2.4466  1.6747 -0.0196
 1801TIP3    H229599   5.359   3.793  14.244  1.0356  1.2785  1.2525
 1802TIP3   OH229600   2.338   3.174  16.893  0.3351 -0.1148 -0.1133
 1802TIP3    H129601   2.410   3.153  16.834 -1.1225 -2.0574 -1.3463
 1802TIP3    H229602   2.301   3.088  16.916 -1.2218  0.7890  0.9278
 1803TIP3   OH229603   4.734   5.942  14.659 -0.5628 -0.5668  0.1755
 1803TIP3    H129604   4.654   5.896  14.684 -0.3601 -1.1258 -0.1668
 1803TIP3    H229605   4.802   5.903  14.714 -0.4604 -0.3758  0.1842
 1804TIP3   OH229606   5.510   3.563  17.285  0.0323 -0.4883 -0.0460
 1804TIP3    H129607   5.485   3.645  17.243 -0.9831 -0.4340  0.6341
 1804TIP3    H229608   5.434   3.505  17.274  0.4615 -1.0972  0.1010
 1805TIP3   OH229609   3.233   3.804  14.573  0.2874  0.0544 -0.2676
 1805TIP3    H129610   3.216   3.730  14.631 -0.0844  1.5841  1.6724
 1805TIP3    H229611   3.272   3.871  14.630  0.1011  1.5671 -1.8312
 1806TIP3   OH229612   1.332   0.509  16.522 -0.1672 -0.0445  0.7384
 1806TIP3    H129613   1.266   0.454  16.565 -2.2954  0.1970 -1.9672
 1806TIP3    H229614   1.282   0.565  16.463  2.4120  0.9720 -0.6406
 1807TIP3   OH229615   5.823   0.265  13.706 -0.3249  0.4726  0.3366
 1807TIP3    H129616   5.754   0.249  13.770  0.9738 -0.5014  1.5487
 1807TIP3    H229617   5.797   0.346  13.663 -1.9273  0.4276  1.1300
 1808TIP3   OH229618   4.448   1.506  14.970  0.1974 -0.0565 -0.3351
 1808TIP3    H129619   4.403   1.468  15.045  1.7900 -0.8556  0.2855
 1808TIP3    H229620   4.477   1.592  15.000  1.1972 -0.5436  0.1495
 1809TIP3   OH229621   0.341   4.654  15.317 -0.1081 -0.0875 -0.3028
 1809TIP3    H129622   0.278   4.608  15.371 -0.4008  1.8057  1.0431
 1809TIP3    H229623   0.411   4.590  15.302 -0.4990 -0.9899  1.4763
 1810TIP3   OH229624   1.485   2.460  16.883  0.2307  0.3844  0.1962
 1810TIP3    H129625   1.565   2.436  16.837 -0.1075  0.2945 -0.3513
 1810TIP3    H229626   1.516   2.501  16.964  0.8498  1.3103 -0.4806
 1811TIP3   OH229627   2.363   0.281  14.337 -0.2460 -0.3155  0.5164
 1811TIP3    H129628   2.274   0.286  14.304  0.3276  0.7227 -1.0019
 1811TIP3    H229629   2.409   0.225  14.274  0.0900 -1.2090  1.5240
 1812TIP3   OH229630   5.190   4.357  13.712  0.5097 -0.4012 -0.3384
 1812TIP3    H129631   5.186   4.442  13.758  0.8938 -1.2381  1.3405
 1812TIP3    H229632   5.101   4.324  13.717  0.6442 -0.6947  0.2527
 1813TIP3   OH229633   4.729   5.200  15.605 -1.1824 -0.4507  0.0419
 1813TIP3    H129634   4.683   5.269  15.557 -1.3799  0.9297  2.0930
 1813TIP3    H229635   4.814   5.194  15.562 -0.9692  1.4579  0.0954
 1814TIP3   OH229636   3.734   2.553  17.144 -0.2477  0.5332 -0.2116
 1814TIP3    H129637   3.720   2.527  17.053  1.5417  1.6820 -0.8566
 1814TIP3    H229638   3.685   2.635  17.154 -1.0436  0.0344  0.1027
 1815TIP3   OH229639   2.242   1.040  15.067  0.3464 -0.2098  0.1987
 1815TIP3    H129640   2.251   0.997  14.981  1.7423  0.3240  0.0681
 1815TIP3    H229641   2.149   1.062  15.072  0.1903 -0.4923 -1.0603
 1816TIP3   OH229642   0.239   2.680  13.565 -0.3017  0.2412  0.0847
 1816TIP3    H129643   0.291   2.617  13.615 -0.2724 -0.7904 -1.1632
 1816TIP3    H229644   0.304   2.726  13.511 -0.4991  0.1009 -0.2770
 1817TIP3   OH229645   1.056   5.936  15.992  0.0071  0.0585 -0.0230
 1817TIP3    H129646   1.098   6.019  15.972  1.0040 -1.3239 -5.0069
 1817TIP3    H229647   1.087   5.914  16.080  2.2908  3.3837  0.1656
 1818TIP3   OH229648   6.101   1.047  14.261  0.1984  0.7178  0.3623
 1818TIP3    H129649   6.147   1.009  14.336  0.4089  0.9453  0.3512
 1818TIP3    H229650   6.163   1.110  14.225  0.0479  0.7013  0.0724
 1819TIP3   OH229651   3.251   6.145  16.773  0.2312  0.4128  0.4168
 1819TIP3    H129652   3.190   6.096  16.718  1.3905  0.2344 -0.7713
 1819TIP3    H229653   3.206   6.228  16.791 -0.8996 -0.2466  0.7147
 1820TIP3   OH229654   1.454   1.767  13.851 -0.0764 -0.0460 -0.1931
 1820TIP3    H129655   1.493   1.836  13.798  1.3758 -0.7959 -0.1688
 1820TIP3    H229656   1.445   1.693  13.791 -0.5527 -0.1883  0.0538
 1821TIP3   OH229657   0.071   0.826  16.819 -0.4660  0.0266 -0.2411
 1821TIP3    H129658   0.072   0.884  16.895  1.2381 -0.8841  0.5158
 1821TIP3    H229659   0.134   0.865  16.758  0.7760 -1.0101  0.3217
 1822TIP3   OH229660   0.487   5.711  16.505  0.1681 -0.2683 -0.0552
 1822TIP3    H129661   0.539   5.791  16.513  1.7358 -1.4517  3.0009
 1822TIP3    H229662   0.396   5.742  16.502  0.6111  1.6704  2.6401
 1823TIP3   OH229663   4.339   2.091  15.750 -0.0617 -0.6683  0.0217
 1823TIP3    H129664   4.284   2.015  15.730 -0.8718 -0.2064  0.4169
 1823TIP3    H229665   4.374   2.073  15.837 -0.4019 -0.5121  0.1926
 1824TIP3   OH229666   5.780   6.503  15.754 -0.0391 -0.4479  0.1651
 1824TIP3    H129667   5.720   6.538  15.820 -0.0134  2.1842 -1.0659
 1824TIP3    H229668   5.736   6.425  15.720 -0.2287 -1.6642  2.9175
 1825TIP3   OH229669   1.728   1.741  12.929 -0.0389  0.0209 -0.3607
 1825TIP3    H129670   1.671   1.785  12.993 -0.7503  1.6358 -2.0164
 1825TIP3    H229671   1.743   1.807  12.861 -2.2779 -2.5721 -3.7361
 1826TIP3   OH229672   6.662   1.265  17.136 -0.4562 -0.4671  0.4010
 1826TIP3    H129673   6.589   1.216  17.173  0.8299 -2.0103  1.0038
 1826TIP3    H229674   6.644   1.356  17.160 -1.1757 -1.0520  2.2802
 1827TIP3   OH229675   1.030   3.355  16.055 -0.0898 -1.2316  0.1429
 1827TIP3    H129676   1.106   3.414  16.060 -1.1895  0.4091 -1.3912
 1827TIP3    H229677   1.030   3.324  15.964 -0.6257 -2.1362  0.4401
 1828TIP3   OH229678   4.165   2.242  17.151 -0.0757  0.1534 -0.0916
 1828TIP3    H129679   4.211   2.325  17.163 -0.3834  0.1715  1.0964
 1828TIP3    H229680   4.073   2.264  17.160 -0.1773 -0.2663 -0.0789
 1829TIP3   OH229681   0.356   5.515  17.023 -0.1693 -0.0084 -0.2094
 1829TIP3    H129682   0.401   5.557  16.949  2.1522  1.9123  2.1128
 1829TIP3    H229683   0.275   5.565  17.033  0.6709  1.3594  0.0097
 1830TIP3   OH229684   2.666   6.236  15.147  0.1363 -0.2655  0.1481
 1830TIP3    H129685   2.608   6.203  15.078  0.3708 -1.0801  0.3212
 1830TIP3    H229686   2.744   6.182  15.140  0.7053  0.5459  0.1974
 1831TIP3   OH229687   3.565   0.970  16.958  0.3704 -0.3773  0.2336
 1831TIP3    H129688   3.642   0.997  16.906 -0.6147  1.5122 -0.3405
 1831TIP3    H229689   3.507   1.046  16.955 -0.9660 -1.2912  1.7600
 1832TIP3   OH229690   1.464   1.258  15.402 -0.7554  0.0284  1.0931
 1832TIP3    H129691   1.462   1.170  15.439 -1.5334 -0.2336  0.4493
 1832TIP3    H229692   1.467   1.244  15.308 -4.1163  0.6506  0.7993
 1833TIP3   OH229693   0.109   5.022  17.127  0.0902 -0.2168 -0.0140
 1833TIP3    H129694   0.199   5.009  17.155 -0.1177 -0.1277  0.6946
 1833TIP3    H229695   0.104   5.115  17.105  0.5192 -0.4813 -1.3303
 1834TIP3   OH229696   6.659   6.114  15.630 -0.7831 -0.6164 -0.7531
 1834TIP3    H129697   6.746   6.083  15.658 -0.5437  2.1041  2.0676
 1834TIP3    H229698   6.601   6.090  15.702 -1.0379  2.9345  0.4127
 1835TIP3   OH229699   3.036   1.419  16.880  0.4528  0.1940  0.8224
 1835TIP3    H129700   3.109   1.481  16.884  2.5526 -2.1570  1.3439
 1835TIP3    H229701   3.066   1.350  16.820 -1.0405 -1.1914  1.5756
 1836TIP3   OH229702   3.653   1.711  14.357 -0.1889  0.2479 -0.0385
 1836TIP3    H129703   3.722   1.645  14.364  0.9880  1.3835 -0.4847
 1836TIP3    H229704   3.618   1.719  14.446  0.6135  0.0248  0.3059
 1837TIP3   OH229705   2.661   0.245  15.938 -0.3338  0.5885 -0.3160
 1837TIP3    H129706   2.593   0.309  15.959 -1.0865  0.1717 -1.4161
 1837TIP3    H229707   2.627   0.196  15.863  0.1682 -1.1768  0.5392
 1838TIP3   OH229708   1.907   0.839  14.346  0.7090 -0.3082  0.3122
 1838TIP3    H129709   1.914   0.854  14.252 -0.7241 -0.6842  0.1316
 1838TIP3    H229710   1.900   0.743  14.354  2.4857 -0.4336  0.9438
 1839TIP3   OH229711   0.890   3.204  14.712  0.4422  0.5919 -0.1694
 1839TIP3    H129712   0.930   3.218  14.798  1.2323 -1.2478 -0.2019
 1839TIP3    H229713   0.885   3.292  14.674  0.1751  1.4316  1.6937
 1840TIP3   OH229714   1.406   2.857  15.445 -0.5381 -0.2447 -0.2793
 1840TIP3    H129715   1.366   2.823  15.364 -0.4687 -0.5719 -0.1786
 1840TIP3    H229716   1.383   2.950  15.446 -1.0584 -0.3671 -0.3701
 1841TIP3   OH229717   6.115   1.523  15.358 -0.7760 -0.0350 -0.1098
 1841TIP3    H129718   6.039   1.575  15.387 -0.5897 -0.3729  1.0138
 1841TIP3    H229719   6.144   1.477  15.436  0.4559 -0.0984 -0.5828
 1842TIP3   OH229720   3.586   6.710  16.944 -0.0464  0.5129  0.9789
 1842TIP3    H129721   3.532   6.784  16.917  0.7484  0.7432 -0.1008
 1842TIP3    H229722   3.542   6.633  16.907  1.2896  0.8649 -1.6305
 1843TIP3   OH229723   2.356   1.774  16.629 -0.1729  0.0129  0.3400
 1843TIP3    H129724   2.379   1.762  16.721 -0.5332 -0.1053  0.4162
 1843TIP3    H229725   2.336   1.867  16.621  2.3111  0.5924 -0.1802
 1844TIP3   OH229726   1.351   1.273  13.964  0.2250 -0.1566 -0.2518
 1844TIP3    H129727   1.399   1.221  13.900 -1.1919 -2.2458  0.2771
 1844TIP3    H229728   1.392   1.251  14.048  0.9811  1.2758 -0.2091
 1845TIP3   OH229729   6.469   1.838  14.019  0.1824 -0.0305  0.5782
 1845TIP3    H129730   6.462   1.755  13.972 -0.1970  0.5015 -0.3284
 1845TIP3    H229731   6.406   1.831  14.090  0.8751 -0.9086  1.1162
 1846TIP3   OH229732   3.887   3.191  13.728 -0.7579  0.6462  0.2584
 1846TIP3    H129733   3.952   3.234  13.785 -0.8066 -0.2313  0.9928
 1846TIP3    H229734   3.905   3.226  13.641 -0.9436  2.3410  0.8611
 1847TIP3   OH229735   2.075   2.077  16.934 -0.0808  0.1322 -0.0108
 1847TIP3    H129736   2.022   2.127  16.995  0.3043  0.6562 -0.0966
 1847TIP3    H229737   2.088   1.992  16.976 -0.4358  0.2320  0.2997
 1848TIP3   OH229738   1.281   1.806  14.063  0.6791  0.4593 -0.4346
 1848TIP3    H129739   1.294   1.736  14.127 -1.1398 -0.1098 -0.6255
 1848TIP3    H229740   1.352   1.794  14.000  0.2656 -1.4323 -0.6183
 1849TIP3   OH229741   1.080   2.420  15.970  0.0824  0.0894 -0.5865
 1849TIP3    H129742   1.153   2.474  15.940 -0.4392  0.3895 -1.3475
 1849TIP3    H229743   1.004   2.478  15.967 -0.3395 -0.4551 -0.6269
 1850TIP3   OH229744   4.365   3.535  14.491 -0.0785 -0.5525 -0.2060
 1850TIP3    H129745   4.311   3.534  14.413 -0.6262 -1.2013  0.1677
 1850TIP3    H229746   4.308   3.499  14.560 -0.3285  1.8467  0.9759
 1851TIP3   OH229747   2.532   3.964  16.204 -0.3471  0.3220 -0.1443
 1851TIP3    H129748   2.541   4.037  16.143  1.4976  0.6658  0.4620
 1851TIP3    H229749   2.530   4.005  16.290  0.7913 -0.2976  0.2127
 1852TIP3   OH229750   3.012   6.058  16.011  0.5055  0.5593 -0.1215
 1852TIP3    H129751   3.107   6.070  16.019  0.6315  0.6650 -1.5129
 1852TIP3    H229752   2.976   6.143  16.037  0.8385  0.7641 -0.3125
 1853TIP3   OH229753   6.172   2.121  14.202  0.0199  0.2459 -0.3301
 1853TIP3    H129754   6.243   2.144  14.143 -0.6410 -0.6974 -1.5420
 1853TIP3    H229755   6.208   2.135  14.290  1.7452 -0.3533 -0.9092
 1854TIP3   OH229756   2.027   1.125  13.347  0.5703  0.7809  0.0372
 1854TIP3    H129757   2.063   1.085  13.268  1.5696  0.8017  0.4762
 1854TIP3    H229758   2.095   1.184  13.378 -0.2959  1.6972  0.2501
 1855TIP3   OH229759   2.692   4.852  15.685  0.3804 -0.7884  0.0434
 1855TIP3    H129760   2.746   4.930  15.670 -1.5137  0.6881  0.4832
 1855TIP3    H229761   2.636   4.847  15.608 -0.2198 -1.1147  0.4992
 1856TIP3   OH229762   3.186   2.286  14.985  0.1864  0.4096  0.2859
 1856TIP3    H129763   3.179   2.196  14.952 -0.3151  0.9158 -1.0200
 1856TIP3    H229764   3.102   2.302  15.028  0.3552  0.1959  0.7064
 1857TIP3   OH229765   4.072   2.190  15.042  0.0493 -0.0221  0.0754
 1857TIP3    H129766   4.070   2.108  15.092 -2.3318 -0.6459 -0.8972
 1857TIP3    H229767   4.123   2.169  14.964  0.8451 -0.0598  0.5907
 1858TIP3   OH229768   4.095   1.162  15.316  0.4107  0.3754 -0.3989
 1858TIP3    H129769   4.005   1.156  15.285  0.5948 -2.2851 -0.6135
 1858TIP3    H229770   4.104   1.253  15.345 -1.0745  1.9073 -4.0637
 1859TIP3   OH229771   5.529   4.926  16.236 -0.5144 -0.4287 -0.1832
 1859TIP3    H129772   5.541   4.981  16.158 -0.4590 -2.0892 -1.3935
 1859TIP3    H229773   5.616   4.925  16.277  0.1192 -1.4689 -1.4595
 1860TIP3   OH229774   1.608   3.234  15.938  0.8094 -0.1177  0.1186
 1860TIP3    H129775   1.621   3.256  16.030 -1.4888 -0.3761  0.5806
 1860TIP3    H229776   1.609   3.139  15.935 -1.5294 -0.2322  0.4083
 1861TIP3   OH229777   3.883   3.801  13.972  0.1278  0.2011  0.5018
 1861TIP3    H129778   3.811   3.833  13.918  3.0957  4.3912 -1.5187
 1861TIP3    H229779   3.925   3.734  13.919 -0.2711  0.2671  0.0997
 1862TIP3   OH229780   0.615   3.266  16.359  0.4409  0.3386 -0.2100
 1862TIP3    H129781   0.682   3.235  16.420 -0.6325  2.1096  2.0243
 1862TIP3    H229782   0.540   3.208  16.372  0.6487 -0.1016 -0.8836
 1863TIP3   OH229783   0.942   2.887  14.853 -0.0869 -0.3099  0.1853
 1863TIP3    H129784   1.010   2.822  14.871  0.6888  0.7840  1.4497
 1863TIP3    H229785   0.990   2.967  14.833 -1.0208  0.0224 -0.8146
 1864TIP3   OH229786   2.562   3.708  15.148  0.2364  0.4243  0.1653
 1864TIP3    H129787   2.623   3.638  15.170  0.4913  1.2776  2.4373
 1864TIP3    H229788   2.542   3.695  15.056  1.6775 -1.5400  0.0847
 1865TIP3   OH229789   0.452   5.460  15.804 -0.3951 -0.0852  0.1233
 1865TIP3    H129790   0.543   5.429  15.812 -0.4978 -0.1397  1.2379
 1865TIP3    H229791   0.430   5.446  15.712  1.0948  0.9636 -0.4230
 1866TIP3   OH229792   0.963   5.551  15.371 -0.0532  0.1758 -0.2071
 1866TIP3    H129793   1.006   5.494  15.308 -0.8443  2.1084 -2.6686
 1866TIP3    H229794   0.889   5.500  15.404  0.1506 -0.7606 -1.1386
 1867TIP3   OH229795   3.308   1.630  13.919  0.7237  0.2113  0.1332
 1867TIP3    H129796   3.394   1.632  13.878  0.3482 -0.1624 -0.6906
 1867TIP3    H229797   3.255   1.692  13.868 -0.6356 -2.5518 -2.0452
 1868TIP3   OH229798   5.722   3.398  17.246  0.1247 -0.3394 -0.5535
 1868TIP3    H129799   5.677   3.314  17.249 -0.2840 -0.1361 -0.8949
 1868TIP3    H229800   5.654   3.462  17.267  1.2012 -0.3127  3.6605
 1869TIP3   OH229801   4.118   0.272  14.596 -0.4921  0.5555  0.6267
 1869TIP3    H129802   4.126   0.199  14.657  0.8299  0.0759 -0.0565
 1869TIP3    H229803   4.205   0.313  14.596  0.0676 -0.4171 -2.0411
 1870TIP3   OH229804   0.257   4.516  13.905 -0.1174  0.1655  0.2199
 1870TIP3    H129805   0.278   4.487  13.994 -2.0322  2.5400  1.5767
 1870TIP3    H229806   0.273   4.611  13.907 -2.2086  0.6116 -1.3041
 1871TIP3   OH229807   4.746   4.768  16.354 -0.2543  0.1101 -0.5735
 1871TIP3    H129808   4.779   4.850  16.317  1.4182  0.3430  1.2690
 1871TIP3    H229809   4.748   4.706  16.281  3.1596  0.4653 -0.9435
 1872TIP3   OH229810   3.170   3.694  15.877  0.4457  0.2033 -0.0167
 1872TIP3    H129811   3.112   3.770  15.869 -0.8109 -0.7952 -0.6814
 1872TIP3    H229812   3.226   3.699  15.799 -2.5392 -1.8581 -2.5492
 1873TIP3   OH229813   0.575   1.086  14.155  0.2815 -0.3209  0.2139
 1873TIP3    H129814   0.581   1.165  14.209 -0.3497 -0.5941  0.7005
 1873TIP3    H229815   0.573   1.119  14.065 -2.8826  0.4607  0.4593
 1874TIP3   OH229816   1.126   2.721  16.595 -0.0524 -0.1765  0.4358
 1874TIP3    H129817   1.066   2.771  16.650  0.8660  1.3668  0.0940
 1874TIP3    H229818   1.209   2.721  16.643  0.1528 -0.7480  0.0924
 1875TIP3   OH229819   4.765   0.729  16.091 -0.3212  0.4937 -0.1634
 1875TIP3    H129820   4.715   0.661  16.046 -1.8799  0.7688  1.0430
 1875TIP3    H229821   4.802   0.684  16.168 -0.1568  0.6956 -0.1228
 1876TIP3   OH229822   5.699   5.869  14.935 -0.5558 -0.6790 -0.2926
 1876TIP3    H129823   5.693   5.787  14.885 -0.0643 -0.2017 -1.1602
 1876TIP3    H229824   5.611   5.906  14.932 -0.2617 -0.0398 -1.9041
 1877TIP3   OH229825   0.064   6.385  15.618  0.2906 -0.1237 -0.1798
 1877TIP3    H129826   0.000   6.316  15.602  1.7723 -1.7506  0.6216
 1877TIP3    H229827   0.083   6.422  15.532 -2.1265  0.8412 -0.3671
 1878TIP3   OH229828   2.679   3.171  16.965  0.0656 -0.1020  0.6558
 1878TIP3    H129829   2.646   3.145  16.879 -0.3093  4.5473 -0.9355
 1878TIP3    H229830   2.602   3.206  17.010  0.6283 -0.6947  2.1175
 1879TIP3   OH229831   1.471   5.872  16.143  0.5139 -0.3453 -0.8239
 1879TIP3    H129832   1.502   5.797  16.194  0.6115  0.1022 -0.2233
 1879TIP3    H229833   1.398   5.908  16.194  1.4030  0.8578 -0.3502
 1880TIP3   OH229834   2.478   0.346  13.289  0.0421 -0.4466  0.2395
 1880TIP3    H129835   2.454   0.273  13.231  1.3383 -0.2128 -0.6346
 1880TIP3    H229836   2.404   0.406  13.284  0.7140  0.2585 -2.3517
 1881TIP3   OH229837   4.043   4.918  16.046 -0.2244  0.0049  0.3106
 1881TIP3    H129838   4.072   5.003  16.081 -0.9715  0.5251 -0.2826
 1881TIP3    H229839   3.960   4.901  16.090 -0.4370 -0.0539 -0.1088
 1882TIP3   OH229840   5.432   1.702  16.326 -0.6489  0.7068 -0.0356
 1882TIP3    H129841   5.337   1.692  16.334 -0.9703  0.0200 -3.2321
 1882TIP3    H229842   5.444   1.788  16.285 -0.0570  0.1432 -1.0975
 1883TIP3   OH229843   6.665   6.751  15.311  0.4876  0.4544  0.2213
 1883TIP3    H129844   6.623   6.677  15.267  0.0195  1.6015 -1.3603
 1883TIP3    H229845   6.725   6.711  15.374 -0.3198 -1.2492 -0.0402
 1884TIP3   OH229846   4.844   1.399  14.095 -0.2480  0.1181  0.0666
 1884TIP3    H129847   4.920   1.431  14.046 -1.2628 -0.6173 -2.0780
 1884TIP3    H229848   4.804   1.478  14.131  1.8743  0.4762  1.8980
 1885TIP3   OH229849   5.674   2.362  16.207 -0.2492  0.2098  0.2783
 1885TIP3    H129850   5.670   2.305  16.131  0.6257 -0.1147  0.4618
 1885TIP3    H229851   5.585   2.360  16.243 -0.6570  0.3359 -0.6997
 1886TIP3   OH229852   3.773   0.135  16.872 -0.0943  0.6796 -0.3599
 1886TIP3    H129853   3.760   0.185  16.792 -1.3459  0.4145 -0.3347
 1886TIP3    H229854   3.687   0.097  16.892  0.8551 -1.8477 -0.6285
 1887TIP3   OH229855   6.211   2.046  15.848  0.0479 -0.1373 -0.0905
 1887TIP3    H129856   6.201   2.127  15.798 -0.3700 -0.1561 -0.0377
 1887TIP3    H229857   6.204   2.073  15.939 -1.5159 -0.4234 -0.1062
 1888TIP3   OH229858   1.193   0.732  16.364 -0.0378 -0.3884  0.1805
 1888TIP3    H129859   1.182   0.742  16.459 -1.2333 -1.3835  0.1600
 1888TIP3    H229860   1.132   0.794  16.326 -0.7585 -1.1449  0.0756
 1889TIP3   OH229861   1.799   4.956  13.677 -0.0158 -0.8514 -1.0079
 1889TIP3    H129862   1.801   5.036  13.729  2.7939 -0.9662 -0.8314
 1889TIP3    H229863   1.851   4.976  13.600  0.8446 -2.5302 -0.9060
 1890TIP3   OH229864   4.756   3.322  14.389  0.1989 -0.7543  0.0663
 1890TIP3    H129865   4.796   3.288  14.469  0.9455  1.2974  0.6347
 1890TIP3    H229866   4.724   3.409  14.413 -0.7665 -0.6259 -1.5316
 1891TIP3   OH229867   4.278   0.834  16.881  0.3504 -0.3142 -0.0139
 1891TIP3    H129868   4.366   0.795  16.879  0.1643 -0.7177 -0.5264
 1891TIP3    H229869   4.293   0.924  16.913  0.5924 -1.2309  2.6832
 1892TIP3   OH229870   1.717   1.332  16.005  0.0991  0.1716  0.3073
 1892TIP3    H129871   1.790   1.274  16.028  0.3877  0.3511 -0.1345
 1892TIP3    H229872   1.677   1.355  16.089  0.1990 -0.3839  0.5097
 1893TIP3   OH229873   5.330   3.574  15.032  0.4714  0.3124  0.1415
 1893TIP3    H129874   5.361   3.605  15.117  0.9264 -1.4047  0.6331
 1893TIP3    H229875   5.404   3.588  14.973 -0.1549  2.3772 -0.2464
 1894TIP3   OH229876   0.802   1.130  13.236 -0.2361  0.1193  0.2732
 1894TIP3    H129877   0.812   1.199  13.171 -0.7250  0.1421  0.2219
 1894TIP3    H229878   0.814   1.048  13.188  0.3769  0.1602  0.3401
 1895TIP3   OH229879   4.050   2.610  14.786  0.1386  0.3165  0.4979
 1895TIP3    H129880   3.973   2.570  14.827  1.1327 -1.0462  1.1237
 1895TIP3    H229881   4.118   2.542  14.790  0.9945  0.9929 -1.2609
 1896TIP3   OH229882   5.735   2.376  14.998  0.2183  0.1401  0.1387
 1896TIP3    H129883   5.688   2.295  15.017 -0.4404  0.8268  1.5644
 1896TIP3    H229884   5.688   2.415  14.925 -0.2013 -0.1590  0.2486
 1897TIP3   OH229885   0.184   5.304  17.110 -0.4618 -0.1755  0.7925
 1897TIP3    H129886   0.143   5.304  17.024 -0.9687 -2.0669  0.9935
 1897TIP3    H229887   0.278   5.314  17.092 -0.5270 -0.9429  0.0047
 1898TIP3   OH229888   2.525   5.327  14.029  0.8313 -0.4272  0.4715
 1898TIP3    H129889   2.430   5.327  14.022  0.8039  0.9082  0.6198
 1898TIP3    H229890   2.548   5.235  14.039 -0.4186 -0.7979  0.1523
 1899TIP3   OH229891   6.558   2.374  13.846 -0.4579  0.3936  1.0531
 1899TIP3    H129892   6.532   2.428  13.920  1.2543 -0.0306  2.0061
 1899TIP3    H229893   6.598   2.436  13.785  0.2376  0.4170  1.5246
 1900TIP3   OH229894   3.804   6.620  16.114  0.2229  0.4106  0.3893
 1900TIP3    H129895   3.862   6.612  16.190 -0.4429  1.2857  1.0111
 1900TIP3    H229896   3.740   6.685  16.140 -0.7857 -0.2146 -0.4538
 1901TIP3   OH229897   6.520   4.534  16.001  0.4812  0.1429  0.0825
 1901TIP3    H129898   6.523   4.494  16.088  0.8760  0.2440  0.1201
 1901TIP3    H229899   6.556   4.467  15.943 -1.3108 -0.5743 -0.2782
 1902TIP3   OH229900   1.150   0.515  14.007  0.3550  0.4337  0.4218
 1902TIP3    H129901   1.110   0.488  14.089  1.2781  1.2673  1.1638
 1902TIP3    H229902   1.241   0.534  14.029  0.1068  2.7792 -0.2999
 1903TIP3   OH229903   6.007   0.230  16.400  0.2150 -0.2203  0.4724
 1903TIP3    H129904   5.916   0.220  16.371  0.4418  1.0187 -0.7394
 1903TIP3    H229905   6.059   0.219  16.321  1.1447 -0.9862  1.1747
 1904TIP3   OH229906   6.493   0.102  15.544  0.2729 -0.2764  0.0412
 1904TIP3    H129907   6.544   0.128  15.467 -0.3457 -0.8220 -0.5728
 1904TIP3    H229908   6.543   0.031  15.583  0.4541 -0.1820 -0.0189
 1905TIP3   OH229909   1.259   0.678  15.340  0.2505 -0.1892  0.6209
 1905TIP3    H129910   1.216   0.606  15.293 -0.7942  1.3015 -0.7971
 1905TIP3    H229911   1.190   0.743  15.353  1.3134  0.8374  1.3257
 1906TIP3   OH229912   3.169   0.366  15.776 -0.4931 -0.7898 -0.1210
 1906TIP3    H129913   3.133   0.400  15.694  0.5360 -3.9158 -2.0739
 1906TIP3    H229914   3.256   0.335  15.752  1.2682  1.1813  3.0467
 1907TIP3   OH229915   1.782   1.849  14.949 -0.2832 -0.3604 -0.2026
 1907TIP3    H129916   1.840   1.823  14.878 -1.4897 -0.0823 -1.3363
 1907TIP3    H229917   1.838   1.855  15.026  0.7866 -2.1385 -0.8061
 1908TIP3   OH229918   6.458   6.229  16.276  0.3116  0.1328  0.0354
 1908TIP3    H129919   6.502   6.313  16.289 -1.3450  1.1477 -0.6397
 1908TIP3    H229920   6.409   6.240  16.194 -0.7952 -1.1102  0.4918
 1909TIP3   OH229921   6.518   2.548  14.054 -0.1771 -0.3645  0.3554
 1909TIP3    H129922   6.464   2.612  14.100 -0.3284 -0.1230 -0.1558
 1909TIP3    H229923   6.592   2.598  14.019 -1.6076  0.0796 -2.2944
 1910TIP3   OH229924   6.081   1.899  13.701 -0.0492 -0.1122 -0.0902
 1910TIP3    H129925   6.001   1.886  13.752 -0.0063  0.3167  0.0860
 1910TIP3    H229926   6.065   1.978  13.650  1.1580  1.3657  1.7043
 1911TIP3   OH229927   4.208   2.129  14.772 -0.7379 -0.3358 -0.1166
 1911TIP3    H129928   4.261   2.069  14.824 -0.9045  0.4716  1.0267
 1911TIP3    H229929   4.270   2.192  14.736 -0.6090 -0.9574 -1.0095
 1912TIP3   OH229930   6.428   4.384  16.230  0.1970 -0.1829  0.4341
 1912TIP3    H129931   6.439   4.296  16.266 -2.0368 -0.2355  1.1400
 1912TIP3    H229932   6.400   4.436  16.305  2.3676  1.3932  0.2342
 1913TIP3   OH229933   6.089   5.387  14.334  0.1069  0.4899  0.0326
 1913TIP3    H129934   6.105   5.377  14.428  1.5743  1.9959 -0.0076
 1913TIP3    H229935   6.000   5.353  14.321 -0.0017 -0.0431  1.8982
 1914TIP3   OH229936   3.333   5.167  14.562 -0.4982  0.3275 -0.0331
 1914TIP3    H129937   3.380   5.202  14.486 -1.0217 -0.4377 -0.7305
 1914TIP3    H229938   3.402   5.150  14.627 -0.1087  1.5127 -0.1089
 1915TIP3   OH229939   0.202   1.974  14.475 -0.5691  0.8417 -0.4436
 1915TIP3    H129940   0.252   1.956  14.554 -0.5537  1.9119 -0.1898
 1915TIP3    H229941   0.267   1.997  14.409 -0.4758 -1.3914 -1.1899
 1916TIP3   OH229942   1.228   6.597  15.414 -0.1119 -0.0163 -0.7053
 1916TIP3    H129943   1.222   6.564  15.325 -0.8106  2.0464 -1.4894
 1916TIP3    H229944   1.162   6.666  15.419 -1.5783 -1.4388  2.0941
 1917TIP3   OH229945   4.979   3.468  16.758  0.2323 -0.0713 -0.7701
 1917TIP3    H129946   4.998   3.399  16.694  2.2048  0.5721 -0.9296
 1917TIP3    H229947   4.936   3.536  16.707 -0.6959 -0.6883 -0.8382
 1918TIP3   OH229948   6.011   3.099  14.155  0.2639  0.5252  0.3174
 1918TIP3    H129949   6.063   3.172  14.121  0.3507  0.0577 -0.6029
 1918TIP3    H229950   6.054   3.021  14.120 -0.6518  0.0995  0.1152
 1919TIP3   OH229951   3.040   2.376  16.031 -0.1166  0.5830  0.7918
 1919TIP3    H129952   2.979   2.417  16.093  0.1111  0.5265  1.0554
 1919TIP3    H229953   2.984   2.320  15.977 -0.2101 -0.0660  1.5309
 1920TIP3   OH229954   2.446   4.032  14.981  0.8012 -0.1667 -0.5846
 1920TIP3    H129955   2.432   4.054  15.073  0.0233 -0.0585 -0.7266
 1920TIP3    H229956   2.477   4.114  14.941 -1.1112  0.4533 -0.8977
 1921TIP3   OH229957   6.185   2.619  14.565  0.2506 -0.5380  0.6747
 1921TIP3    H129958   6.135   2.544  14.596 -0.3475  0.2114  1.5539
 1921TIP3    H229959   6.255   2.630  14.629  0.2123 -0.2206  0.6651
 1922TIP3   OH229960   4.254   1.630  13.723 -0.4906  0.2434 -0.3115
 1922TIP3    H129961   4.262   1.547  13.676  1.5406  1.1091 -1.6122
 1922TIP3    H229962   4.183   1.676  13.677 -1.0365 -0.3892 -0.1292
 1923TIP3   OH229963   2.622   1.433  17.022  0.3568 -0.8937 -0.3436
 1923TIP3    H129964   2.582   1.421  16.935  1.7126 -0.2822 -1.0877
 1923TIP3    H229965   2.631   1.344  17.056  0.2278 -1.1772 -1.0256
 1924TIP3   OH229966   2.566   3.985  15.811 -0.2127  0.7129 -0.1316
 1924TIP3    H129967   2.613   4.030  15.741  0.6307 -1.1219 -0.7981
 1924TIP3    H229968   2.599   3.895  15.808 -1.7869  0.0502  1.1897
 1925TIP3   OH229969   1.095   4.220  16.158 -0.0353  0.0698  0.3231
 1925TIP3    H129970   1.037   4.185  16.090  0.2822  0.5143 -0.1880
 1925TIP3    H229971   1.107   4.148  16.219  1.5289 -1.1366 -1.2943
 1926TIP3   OH229972   4.192   5.633  16.664 -0.5476 -0.3305 -0.1734
 1926TIP3    H129973   4.285   5.654  16.661 -0.8117  0.7768 -1.4287
 1926TIP3    H229974   4.150   5.712  16.699 -1.1009 -0.4760 -0.4851
 1927TIP3   OH229975   6.749   0.568  13.756 -0.3260  0.5010  0.3617
 1927TIP3    H129976   6.841   0.589  13.742 -0.3739 -0.6358 -2.3105
 1927TIP3    H229977   6.701   0.640  13.714 -0.6121  0.1858  0.1372
 1928TIP3   OH229978   2.098   6.267  14.576 -0.0317  0.0906 -0.1373
 1928TIP3    H129979   2.166   6.302  14.520 -0.9107  0.4527 -0.9963
 1928TIP3    H229980   2.051   6.344  14.609  0.2211 -0.1345  0.7717
 1929TIP3   OH229981   6.279   5.547  16.110 -0.0447  0.0654 -0.0596
 1929TIP3    H129982   6.277   5.642  16.109  1.1812  0.1190  0.6436
 1929TIP3    H229983   6.355   5.524  16.055  0.3186 -0.4557  0.6460
 1930TIP3   OH229984   1.256   4.641  15.996  0.6736  0.4625 -0.1762
 1930TIP3    H129985   1.332   4.671  16.046 -0.1332  0.9724  0.7934
 1930TIP3    H229986   1.224   4.720  15.952  2.9160 -0.4244 -3.7730
 1931TIP3   OH229987   5.251   2.535  14.663  0.4079  0.0444  0.1453
 1931TIP3    H129988   5.279   2.578  14.744  0.7253 -0.9748  0.5841
 1931TIP3    H229989   5.242   2.443  14.685 -2.9594  0.1777 -0.0520
 1932TIP3   OH229990   3.555   5.727  15.490 -0.3445 -0.8509  0.0832
 1932TIP3    H129991   3.642   5.706  15.456 -0.3013 -1.5502  0.6063
 1932TIP3    H229992   3.564   5.723  15.585 -0.5204  0.8878  0.2122
 1933TIP3   OH229993   6.577   0.268  14.294 -0.8589  0.0307  0.0663
 1933TIP3    H129994   6.552   0.303  14.379 -1.5769  0.2953 -0.2398
 1933TIP3    H229995   6.671   0.250  14.301 -1.0942 -0.9069  1.2459
 1934TIP3   OH229996   3.055   3.472  15.777  0.2556  0.2155  0.8756
 1934TIP3    H129997   3.083   3.546  15.831 -1.5305 -0.1918  2.4746
 1934TIP3    H229998   3.054   3.397  15.838  0.0376 -0.6758 -0.1988
 1935TIP3   OH229999   3.065   2.133  14.621  0.4496 -0.6646  0.3918
 1935TIP3    H130000   3.156   2.124  14.652 -0.0949 -0.2301  2.2396
 1935TIP3    H230001   3.027   2.199  14.678  0.2300  2.7648 -3.3336
 1936TIP3   OH230002   1.083   2.373  15.297  0.0058 -0.0432 -0.3376
 1936TIP3    H130003   0.993   2.406  15.304  0.3130  0.6783  0.3419
 1936TIP3    H230004   1.111   2.398  15.209 -1.0513 -1.8481 -1.2495
 1937TIP3   OH230005   2.818   4.095  16.831 -0.3022 -0.5791 -0.8783
 1937TIP3    H130006   2.870   4.016  16.846  0.2089 -0.2717 -1.0205
 1937TIP3    H230007   2.741   4.084  16.888 -0.2760 -1.2110 -0.9531
 1938TIP3   OH230008   6.363   0.630  14.114  0.5746 -0.7459 -0.0402
 1938TIP3    H130009   6.400   0.605  14.029  0.7907 -1.7000  0.3229
 1938TIP3    H230010   6.324   0.549  14.148 -1.8459  0.1906 -0.3832
 1939TIP3   OH230011   4.390   2.989  14.769  0.0072  0.1294  0.2613
 1939TIP3    H130012   4.368   3.074  14.732 -0.9240 -0.8404 -1.5115
 1939TIP3    H230013   4.305   2.947  14.784  0.4648 -1.3714 -1.0934
 1940TIP3   OH230014   6.556   5.471  16.551  0.6191 -1.2186  0.4078
 1940TIP3    H130015   6.600   5.449  16.469 -0.0097 -0.7671 -0.0683
 1940TIP3    H230016   6.623   5.462  16.618  2.2302  1.9275 -0.5576
 1941TIP3   OH230017   6.267   2.841  15.680  0.1390 -0.0371  0.0715
 1941TIP3    H130018   6.210   2.872  15.610  0.1960 -1.2737 -0.5510
 1941TIP3    H230019   6.333   2.788  15.635  0.5740 -0.3057  0.9990
 1942TIP3   OH230020   4.420   2.521  16.704  0.6921 -0.4863 -0.6816
 1942TIP3    H130021   4.330   2.497  16.726  0.7116 -0.7513 -0.8893
 1942TIP3    H230022   4.427   2.614  16.728  0.4889 -0.5727 -0.2766
 1943TIP3   OH230023   4.484   0.698  16.263 -0.6322  0.1282 -0.2034
 1943TIP3    H130024   4.552   0.764  16.248  0.3397 -0.9876 -0.7958
 1943TIP3    H230025   4.465   0.704  16.357  2.5257 -1.6278  0.6641
 1944TIP3   OH230026   2.772   2.060  13.281  0.0967  0.2161  0.0963
 1944TIP3    H130027   2.728   1.977  13.299  2.0171 -0.6091  1.3461
 1944TIP3    H230028   2.823   2.042  13.201 -0.0085  0.4075 -0.0139
 1945TIP3   OH230029   0.280   3.413  16.483 -0.1390 -0.1984  0.3528
 1945TIP3    H130030   0.278   3.500  16.524 -1.6592 -0.4301  0.8238
 1945TIP3    H230031   0.231   3.423  16.402 -3.3173 -1.2856  1.9554
 1946TIP3   OH230032   2.187   3.185  16.573  0.0620 -0.0799 -0.6429
 1946TIP3    H130033   2.116   3.248  16.559 -2.1418 -1.9218  1.3571
 1946TIP3    H230034   2.253   3.233  16.623 -1.5092  0.7194  0.7439
 1947TIP3   OH230035   5.406   4.073  17.143  0.1686 -0.4318 -0.1762
 1947TIP3    H130036   5.415   4.153  17.093 -0.5649  1.5661  2.6148
 1947TIP3    H230037   5.336   4.092  17.206 -0.1844 -3.3520  0.4673
 1948TIP3   OH230038   2.398   3.682  16.211  0.1372 -0.5317 -0.4204
 1948TIP3    H130039   2.473   3.656  16.265 -0.5369 -1.8917 -0.0981
 1948TIP3    H230040   2.421   3.769  16.178  1.1291 -0.2220  1.0113
 1949TIP3   OH230041   0.794   5.615  16.797 -0.2089 -0.0900 -0.3967
 1949TIP3    H130042   0.805   5.538  16.740 -0.6142  0.0117 -0.6211
 1949TIP3    H230043   0.727   5.588  16.860 -1.9319  0.7677 -1.7713
 1950TIP3   OH230044   0.262   6.633  16.464  0.1329 -0.3714 -0.3089
 1950TIP3    H130045   0.230   6.640  16.554 -1.0715  1.5677 -0.8162
 1950TIP3    H230046   0.232   6.547  16.434  0.7410 -1.1290  1.1915
 1951TIP3   OH230047   1.359   3.616  14.423  0.1106  0.3182  0.1401
 1951TIP3    H130048   1.276   3.651  14.390 -0.8487 -0.7123  1.3478
 1951TIP3    H230049   1.418   3.692  14.423 -0.8229  1.0818 -0.7268
 1952TIP3   OH230050   0.947   4.650  15.428  0.7968 -0.6051  0.2100
 1952TIP3    H130051   0.942   4.591  15.352  0.2372  0.4028 -0.5457
 1952TIP3    H230052   0.991   4.728  15.394 -0.3716  0.2560  0.6620
 1953TIP3   OH230053   3.938   6.536  15.052  0.2355  0.3942  0.0217
 1953TIP3    H130054   3.928   6.537  14.957  0.1872  1.0325  0.0319
 1953TIP3    H230055   3.856   6.500  15.084  0.1381  0.4540 -0.1614
 1954TIP3   OH230056   0.446   3.970  15.566 -0.6759  0.0309  0.1385
 1954TIP3    H130057   0.521   3.935  15.517 -0.6840 -0.7602  0.6824
 1954TIP3    H230058   0.453   4.065  15.554  2.2570  0.2807  2.7120
 1955TIP3   OH230059   6.153   2.527  15.281 -0.0489  0.6205  0.4114
 1955TIP3    H130060   6.215   2.469  15.327 -1.2117 -0.0508  1.1767
 1955TIP3    H230061   6.207   2.599  15.250  1.2525 -0.3058  0.4248
 1956TIP3   OH230062   6.312   3.053  15.314 -0.0667 -0.3086  0.1282
 1956TIP3    H130063   6.248   2.990  15.348  0.9045 -1.2232  0.3489
 1956TIP3    H230064   6.273   3.139  15.329 -1.0835 -0.8380  0.5623
 1957TIP3   OH230065   4.232   2.242  16.593 -0.2798  0.3830 -0.3718
 1957TIP3    H130066   4.309   2.231  16.649 -0.5608  1.4433  0.2555
 1957TIP3    H230067   4.263   2.223  16.505  0.5849  0.3310 -0.0616
 1958TIP3   OH230068   5.888   6.198  16.552  0.0657 -0.7437 -0.3802
 1958TIP3    H130069   5.878   6.170  16.643 -1.6021  0.4344 -0.1378
 1958TIP3    H230070   5.852   6.126  16.500  1.4538 -1.6222 -0.1570
 1959TIP3   OH230071   4.558   0.293  16.318  0.2389 -0.0290 -0.3065
 1959TIP3    H130072   4.477   0.254  16.284 -0.2857 -0.9455  1.8581
 1959TIP3    H230073   4.628   0.249  16.269 -0.4564 -1.9220  0.2982
 1960TIP3   OH230074   3.964   4.290  14.955 -0.2491 -0.0875 -0.5533
 1960TIP3    H130075   3.974   4.219  14.892  0.6131 -1.2709  0.8742
 1960TIP3    H230076   3.923   4.361  14.905 -1.2500 -1.6127 -1.9726
 1961TIP3   OH230077   5.863   0.862  13.610 -0.3771  0.0820  0.7813
 1961TIP3    H130078   5.861   0.887  13.518  1.2146 -1.1450  0.3704
 1961TIP3    H230079   5.771   0.852  13.635 -0.8139 -0.0797 -0.8199
 1962TIP3   OH230080   4.088   1.675  14.415 -0.1103 -0.5628  0.1281
 1962TIP3    H130081   4.167   1.622  14.408 -1.0762 -2.2096  0.9780
 1962TIP3    H230082   4.112   1.745  14.477  1.6238  0.9931 -2.1151
 1963TIP3   OH230083   4.294   3.761  16.341  0.0344 -0.0986  0.6850
 1963TIP3    H130084   4.330   3.819  16.407 -1.0854  0.8074  0.5214
 1963TIP3    H230085   4.216   3.723  16.381 -0.5638  0.3328 -0.0400
 1964TIP3   OH230086   1.122   2.255  16.671  0.5266 -0.4780  0.2634
 1964TIP3    H130087   1.051   2.239  16.733 -0.4635 -0.4838 -0.8374
 1964TIP3    H230088   1.160   2.337  16.699 -2.5865  1.7651 -1.4566
 1965TIP3   OH230089   3.543   5.250  16.635 -0.2797 -0.8218 -0.0082
 1965TIP3    H130090   3.573   5.197  16.710 -0.6767  0.7740  1.3324
 1965TIP3    H230091   3.484   5.314  16.674  0.8846  1.2048 -1.4447
 1966TIP3   OH230092   5.498   0.566  15.752  0.8069  0.5396 -0.1980
 1966TIP3    H130093   5.427   0.504  15.769  0.5177  0.8983 -0.1045
 1966TIP3    H230094   5.578   0.516  15.769  0.6633 -0.4677 -2.1426
 1967TIP3   OH230095   2.685   5.795  13.670 -0.2687  0.5655  0.1800
 1967TIP3    H130096   2.631   5.846  13.730 -0.4466  0.5944 -0.0061
 1967TIP3    H230097   2.766   5.847  13.662  0.2573 -0.0275  1.3445
 1968TIP3   OH230098   5.578   2.348  14.391  0.0574  0.5190 -0.0584
 1968TIP3    H130099   5.617   2.377  14.473  1.7400  2.3974 -1.4311
 1968TIP3    H230100   5.489   2.384  14.393 -0.2832 -0.3231  1.3420
 1969TIP3   OH230101   3.841   2.623  15.392 -0.1008  0.1588 -0.2352
 1969TIP3    H130102   3.789   2.626  15.312 -1.7060 -2.4096  0.5930
 1969TIP3    H230103   3.834   2.532  15.423  0.9862  0.8740  2.4710
 1970TIP3   OH230104   4.099   2.044  15.462  0.6355  0.3352 -0.0135
 1970TIP3    H130105   4.058   2.028  15.377  1.5748  0.8487 -0.5750
 1970TIP3    H230106   4.032   2.020  15.526 -0.0291 -0.1966 -0.8961
 1971TIP3   OH230107   4.988   3.520  15.786 -0.2812 -0.1726  0.6054
 1971TIP3    H130108   5.048   3.570  15.841  0.4975  0.0830 -0.4317
 1971TIP3    H230109   4.924   3.585  15.756 -0.0255 -0.0535  0.3002
 1972TIP3   OH230110   5.182   5.837  17.016  0.0077 -0.4045  0.9767
 1972TIP3    H130111   5.092   5.867  17.031  0.1584  0.0232  1.0369
 1972TIP3    H230112   5.177   5.742  17.023 -0.1609 -0.3094  2.5283
 1973TIP3   OH230113   4.812   2.879  16.141 -0.0905  0.4122 -0.3233
 1973TIP3    H130114   4.741   2.854  16.082  0.6878 -0.1701 -1.0414
 1973TIP3    H230115   4.884   2.820  16.118  0.4085  0.5309  0.8548
 1974TIP3   OH230116   5.463   3.427  15.350 -0.2396  0.1028 -0.5387
 1974TIP3    H130117   5.471   3.513  15.309  0.3844  0.8264  0.9993
 1974TIP3    H230118   5.544   3.418  15.402 -1.1232 -0.5776  0.7856
 1975TIP3   OH230119   3.781   4.314  14.007  0.2772  0.0042  0.9056
 1975TIP3    H130120   3.693   4.308  14.042  0.1474  1.0591  0.8061
 1975TIP3    H230121   3.799   4.227  13.971 -2.3570  0.7370 -2.8804
 1976TIP3   OH230122   6.378   6.737  16.832  0.4302  0.4489 -0.1090
 1976TIP3    H130123   6.451   6.800  16.828  0.1840  0.9897  2.4814
 1976TIP3    H230124   6.311   6.781  16.883 -1.9152  0.0511 -2.6225
 1977TIP3   OH230125   6.003   6.379  16.029 -0.5701 -0.1008 -0.9620
 1977TIP3    H130126   6.013   6.469  16.059  1.6051 -0.9165  1.1526
 1977TIP3    H230127   5.969   6.332  16.105  0.2059 -1.3813 -1.3678
 1978TIP3   OH230128   5.293   3.777  15.841  0.1571 -0.4096 -0.1817
 1978TIP3    H130129   5.385   3.800  15.828  0.0770 -0.4540 -0.8823
 1978TIP3    H230130   5.270   3.727  15.762 -0.6997  0.3394 -0.4266
 1979TIP3   OH230131   0.277   1.499  14.679 -0.1805 -0.0937  0.0237
 1979TIP3    H130132   0.209   1.563  14.699 -1.0087 -0.8210 -0.3832
 1979TIP3    H230133   0.353   1.529  14.727 -1.1185  0.1099  1.4573
 1980TIP3   OH230134   0.999   3.269  15.799  0.0687  0.4212 -0.3670
 1980TIP3    H130135   1.068   3.265  15.732  0.1947  0.7857 -0.2599
 1980TIP3    H230136   0.965   3.179  15.803  0.0336  0.4041 -0.9469
 1981TIP3   OH230137   2.535   6.035  13.803 -1.0691  0.0395  0.3146
 1981TIP3    H130138   2.537   6.099  13.731 -0.4554  0.4857  0.7154
 1981TIP3    H230139   2.620   6.045  13.846 -0.3263 -2.1345 -0.5364
 1982TIP3   OH230140   4.411   5.064  13.617 -0.0239  0.4134 -0.0340
 1982TIP3    H130141   4.403   5.107  13.702  0.7009  0.8891 -0.1978
 1982TIP3    H230142   4.455   4.981  13.636 -0.9758 -0.0586  0.2131
 1983TIP3   OH230143   3.997   3.427  15.142  0.2002 -0.4526 -0.1694
 1983TIP3    H130144   4.036   3.511  15.120  1.6529 -1.6844 -2.5784
 1983TIP3    H230145   4.065   3.381  15.191  0.2420 -1.0560 -0.7914
 1984TIP3   OH230146   5.963   1.499  14.411  0.0371  0.1244  0.4837
 1984TIP3    H130147   5.953   1.593  14.422  0.7819  0.2465  0.1903
 1984TIP3    H230148   6.035   1.475  14.469  0.2069 -0.1762  0.1568
 1985TIP3   OH230149   1.710   6.734  15.843  0.5728 -0.2713 -0.7121
 1985TIP3    H130150   1.634   6.785  15.873  1.8812  0.7998  0.9683
 1985TIP3    H230151   1.678   6.644  15.837 -1.4441  0.4685 -2.4073
 1986TIP3   OH230152   3.268   4.868  15.831 -0.1668  0.3509  0.8402
 1986TIP3    H130153   3.345   4.850  15.885  0.6315  1.5450  0.1514
 1986TIP3    H230154   3.218   4.931  15.883 -0.4277 -0.0229  1.0515
 1987TIP3   OH230155   4.083   1.200  14.493  0.4133 -0.4748  0.5313
 1987TIP3    H130156   4.086   1.104  14.485 -0.0880 -0.4413 -0.1750
 1987TIP3    H230157   3.990   1.221  14.490  0.5660  0.1426 -0.9141
 1988TIP3   OH230158   4.841   5.067  14.415  0.3908  0.3724  0.0854
 1988TIP3    H130159   4.773   5.001  14.402  0.3474  0.2584  0.8617
 1988TIP3    H230160   4.833   5.124  14.339  1.6682 -1.5652 -1.6347
 1989TIP3   OH230161   5.873   2.245  16.880 -0.3090 -0.2546 -0.4112
 1989TIP3    H130162   5.930   2.294  16.822 -1.1652  1.3966  0.0503
 1989TIP3    H230163   5.865   2.158  16.841  1.6897 -0.2086 -0.9870
 1990TIP3   OH230164   0.375   1.550  14.009 -0.8162  0.4047  0.0668
 1990TIP3    H130165   0.296   1.552  13.955 -1.0095 -1.3115  0.2360
 1990TIP3    H230166   0.368   1.469  14.059  0.6368  0.6594  0.7435
 1991TIP3   OH230167   0.580   5.633  17.153 -0.1752 -0.1802 -0.0218
 1991TIP3    H130168   0.628   5.554  17.131 -1.1719 -0.5753 -0.8079
 1991TIP3    H230169   0.490   5.616  17.126 -0.2881  1.4554 -0.8362
 1992TIP3   OH230170   2.572   1.348  15.346 -0.0650  0.2920 -0.0489
 1992TIP3    H130171   2.636   1.405  15.304  1.0849 -0.7881  0.1809
 1992TIP3    H230172   2.529   1.404  15.411 -1.7843  1.9584 -2.4326
 1993TIP3   OH230173   5.789   2.497  14.513 -0.3161  0.1034 -0.9081
 1993TIP3    H130174   5.881   2.475  14.499 -0.3230 -0.9020  0.4881
 1993TIP3    H230175   5.773   2.476  14.605 -1.9432  0.2791 -1.1322
 1994TIP3   OH230176   6.629   2.094  17.191 -0.6643  0.2076 -0.6484
 1994TIP3    H130177   6.561   2.160  17.193 -1.5084 -0.6555 -0.0474
 1994TIP3    H230178   6.583   2.011  17.204  0.6322 -0.2841  1.3365
 1995TIP3   OH230179   5.419   0.964  16.934 -0.0652  0.5519  0.4349
 1995TIP3    H130180   5.441   0.871  16.927  0.5523  0.7007  0.3233
 1995TIP3    H230181   5.501   1.006  16.962 -1.0190  0.6974  3.4116
 1996TIP3   OH230182   0.641   5.399  15.271  0.3779 -0.3510 -0.3876
 1996TIP3    H130183   0.618   5.465  15.206  0.0406  0.2979  0.3759
 1996TIP3    H230184   0.702   5.341  15.225 -0.0981 -0.0976 -1.3783
 1997TIP3   OH230185   1.761   3.286  13.669 -0.5553  0.2577 -0.2436
 1997TIP3    H130186   1.817   3.295  13.591  0.5265  1.1346  0.5896
 1997TIP3    H230187   1.803   3.217  13.721  0.1536  1.3383  0.6740
 1998TIP3   OH230188   4.560   1.051  15.236 -0.1396  0.3751 -0.2301
 1998TIP3    H130189   4.534   1.111  15.305  2.1379 -1.5187  2.5065
 1998TIP3    H230190   4.482   0.998  15.219 -1.1977  1.9096 -0.3677
 1999TIP3   OH230191   5.496   0.908  14.946 -0.0338  0.1089  0.1221
 1999TIP3    H130192   5.502   1.001  14.968 -1.3293  0.2823 -0.1636
 1999TIP3    H230193   5.583   0.886  14.912  0.0344  1.4418 -0.6386
 2000TIP3   OH230194   3.952   5.900  15.986 -0.1650  0.2302 -0.5283
 2000TIP3    H130195   3.988   5.818  15.953  0.5527  0.4216 -0.2300
 2000TIP3    H230196   3.863   5.903  15.949 -0.0435 -0.4595 -0.9025
 2001TIP3   OH230197   5.915   4.223  14.581  0.3310 -0.4498  0.2175
 2001TIP3    H130198   5.889   4.259  14.496 -0.0930 -1.0159  0.1002
 2001TIP3    H230199   5.899   4.294  14.643 -0.2751 -0.3515 -0.0465
 2002TIP3   OH230200   6.116   4.908  15.876  0.5841 -0.4312  0.4666
 2002TIP3    H130201   6.098   4.838  15.938  0.2270  0.2859  1.1854
 2002TIP3    H230202   6.199   4.883  15.835  0.7983 -0.9456  1.1934
 2003TIP3   OH230203   3.160   1.760  14.849  0.1665 -0.0477 -0.1352
 2003TIP3    H130204   3.246   1.760  14.807  1.0727 -0.7038  1.6110
 2003TIP3    H230205   3.179   1.778  14.941 -1.7818  1.9563 -0.0413
 2004TIP3   OH230206   2.856   1.925  15.388 -0.2557 -0.3117  0.0086
 2004TIP3    H130207   2.946   1.959  15.387  0.0596 -1.0297  1.0835
 2004TIP3    H230208   2.849   1.881  15.473 -1.6073 -0.3401 -0.1000
 2005TIP3   OH230209   3.453   2.129  13.439  0.6715 -0.4346 -0.2430
 2005TIP3    H130210   3.528   2.102  13.492  0.8018  1.0266  0.3768
 2005TIP3    H230211   3.402   2.049  13.426  1.9079 -1.2934  0.0062
 2006TIP3   OH230212   4.785   1.640  15.527  0.4747  0.1188  0.0297
 2006TIP3    H130213   4.806   1.582  15.600 -0.9012  1.7789  1.8537
 2006TIP3    H230214   4.735   1.585  15.466  1.8907 -1.3755  0.1572
 2007TIP3   OH230215   1.534   0.334  14.741 -0.0851 -0.3176 -0.3051
 2007TIP3    H130216   1.598   0.295  14.800  0.8967  1.5555 -0.0604
 2007TIP3    H230217   1.453   0.285  14.757  0.3213 -0.3002  2.1191
 2008TIP3   OH230218   3.739   4.601  14.957  0.5892 -0.4504  0.1497
 2008TIP3    H130219   3.711   4.513  14.981  0.1230 -0.6823 -1.1592
 2008TIP3    H230220   3.672   4.632  14.895  1.1594  0.5105 -0.0144
 2009TIP3   OH230221   5.466   2.222  15.326 -0.3772  0.4918 -0.3254
 2009TIP3    H130222   5.455   2.314  15.348 -1.6895  0.1635  0.5058
 2009TIP3    H230223   5.534   2.191  15.387 -1.8737  0.2939  1.3200
 2010TIP3   OH230224   3.271   1.506  16.051  0.1016 -0.5485 -0.3730
 2010TIP3    H130225   3.363   1.518  16.075 -0.2708  0.0421  0.8296
 2010TIP3    H230226   3.251   1.579  15.992  0.9732 -1.9043 -2.4601
 2011TIP3   OH230227   2.630   3.248  16.280 -0.4291  0.0466  0.2985
 2011TIP3    H130228   2.553   3.209  16.322 -0.8524  2.3594  1.8372
 2011TIP3    H230229   2.610   3.341  16.275  2.3927  0.7836  1.0223
 2012TIP3   OH230230   1.051   1.770  15.567  0.4855 -0.1010  0.5023
 2012TIP3    H130231   1.065   1.864  15.583  1.4249 -0.2633  0.6928
 2012TIP3    H230232   0.988   1.768  15.494  2.3514  0.7275 -1.2409
 2013TIP3   OH230233   0.208   0.226  15.582 -0.0481 -0.5172 -0.0348
 2013TIP3    H130234   0.118   0.195  15.596 -0.6243  0.3190 -1.6845
 2013TIP3    H230235   0.261   0.146  15.581 -1.1975 -1.3380 -2.0601
 2014TIP3   OH230236   6.455   3.738  14.401 -1.0108  0.4091 -0.1432
 2014TIP3    H130237   6.519   3.782  14.458  0.4126 -0.7874 -0.7533
 2014TIP3    H230238   6.507   3.705  14.328 -2.3422 -0.6301 -0.6548
 2015TIP3   OH230239   4.674   5.642  14.214 -0.3908 -0.2603  0.4057
 2015TIP3    H130240   4.582   5.643  14.186 -0.6655  0.7093  1.2583
 2015TIP3    H230241   4.723   5.625  14.134 -1.3204 -1.0293 -0.0222
 2016TIP3   OH230242   3.045   6.332  14.107 -0.2928 -0.3849 -0.6127
 2016TIP3    H130243   3.033   6.320  14.013 -0.0467  1.9306 -1.0068
 2016TIP3    H230244   3.104   6.261  14.133 -1.5688 -1.9900 -1.8546
 2017TIP3   OH230245   6.504   5.860  15.093  0.2381  0.7744 -0.0730
 2017TIP3    H130246   6.468   5.841  15.007 -1.6734  2.7545  0.2112
 2017TIP3    H230247   6.532   5.951  15.088 -0.0259  0.9670  1.4218
 2018TIP3   OH230248   2.745   3.764  15.869 -0.2981  0.5123 -0.4250
 2018TIP3    H130249   2.806   3.754  15.797  0.6585 -0.5483  0.4900
 2018TIP3    H230250   2.754   3.683  15.920  0.6767  2.0572  2.0718
 2019TIP3   OH230251   1.785   3.198  15.416 -0.1954 -0.0825  0.7692
 2019TIP3    H130252   1.691   3.194  15.404 -0.6388  1.5459  2.9899
 2019TIP3    H230253   1.822   3.159  15.337 -2.7075 -1.0094 -0.0251
 2020TIP3   OH230254   2.662   0.997  15.435 -0.2498 -0.7410 -0.5128
 2020TIP3    H130255   2.746   1.034  15.463  0.8308 -2.0970 -1.7937
 2020TIP3    H230256   2.631   0.949  15.512  0.5748 -0.8979 -0.2588
 2021TIP3   OH230257   5.161   0.825  16.008 -0.0616 -0.0498  0.3204
 2021TIP3    H130258   5.181   0.793  16.096 -1.7973 -0.0791  0.7373
 2021TIP3    H230259   5.163   0.920  16.017 -0.3661 -0.0520  0.4363
 2022TIP3   OH230260   6.250   4.229  16.845 -0.1337  0.3456  0.2024
 2022TIP3    H130261   6.213   4.187  16.923  0.4916 -2.4929 -0.9057
 2022TIP3    H230262   6.343   4.237  16.863 -0.0158 -0.1430 -0.1800
 2023TIP3   OH230263   4.397   6.000  16.556 -0.2531  0.2502 -0.1887
 2023TIP3    H130264   4.320   6.016  16.501 -0.7201 -0.8031  0.1155
 2023TIP3    H230265   4.451   6.078  16.546 -1.9032  1.5442  0.4808
 2024TIP3   OH230266   4.019   0.645  16.269 -0.3485  0.3593 -0.1645
 2024TIP3    H130267   4.045   0.650  16.361 -1.8518  2.5674  0.2372
 2024TIP3    H230268   4.095   0.607  16.224  0.9936  0.6153  1.7692
 2025TIP3   OH230269   4.920   1.150  14.978  0.5310  0.1475 -0.0560
 2025TIP3    H130270   4.831   1.177  15.001  0.6259 -1.4833  2.6394
 2025TIP3    H230271   4.969   1.232  14.970 -0.9864  1.0308 -0.6337
 2026TIP3   OH230272   5.831   5.555  13.832 -1.0450 -0.6198  0.5127
 2026TIP3    H130273   5.749   5.602  13.815 -1.6790 -1.8087  0.1728
 2026TIP3    H230274   5.830   5.482  13.771  0.5170 -0.3873  0.1808
 2027TIP3   OH230275   6.167   5.314  14.574 -0.6621  0.7814  0.3138
 2027TIP3    H130276   6.201   5.361  14.650  1.5060 -1.9259  1.1910
 2027TIP3    H230277   6.108   5.248  14.611  1.9343 -1.8973  0.0759
 2028TIP3   OH230278   4.798   1.578  16.073 -0.1204 -0.0029 -0.1685
 2028TIP3    H130279   4.825   1.605  16.161 -0.1361 -0.8071  0.0920
 2028TIP3    H230280   4.705   1.559  16.081 -0.4161  1.1152 -0.6667
 2029TIP3   OH230281   1.713   0.399  16.996  0.8252  0.1115  0.5024
 2029TIP3    H130282   1.740   0.482  16.956  1.5857 -0.0348  0.6871
 2029TIP3    H230283   1.795   0.361  17.029  0.7606 -1.5773 -1.1495
 2030TIP3   OH230284   0.250   5.980  16.646 -0.2387  0.3347 -0.2222
 2030TIP3    H130285   0.231   6.018  16.560 -0.2329  0.9767  0.0610
 2030TIP3    H230286   0.175   5.922  16.663  0.4085 -0.8747 -1.2651
 2031TIP3   OH230287   2.016   0.331  15.549  0.3655 -0.0149  0.7284
 2031TIP3    H130288   2.044   0.345  15.458 -0.1866 -2.0028  0.2125
 2031TIP3    H230289   2.095   0.301  15.594  0.3850 -0.0882  0.6452
 2032TIP3   OH230290   5.991   1.852  14.175 -0.0652 -0.1069 -0.2743
 2032TIP3    H130291   6.036   1.772  14.149  0.2966  0.1307 -0.3839
 2032TIP3    H230292   6.061   1.910  14.206 -0.4408 -0.2690  0.9493
 2033TIP3   OH230293   3.734   3.908  17.068 -0.0543  0.0459  0.0552
 2033TIP3    H130294   3.671   3.838  17.049 -0.8398  0.3738  1.3010
 2033TIP3    H230295   3.733   3.963  16.990 -1.0812 -0.1489 -0.0872
 2034TIP3   OH230296   2.976   5.869  16.205  0.2574 -0.6103  0.0118
 2034TIP3    H130297   2.952   5.935  16.140 -0.0035 -0.4666  0.2476
 2034TIP3    H230298   2.898   5.815  16.215  0.4550 -0.9240 -0.1436
 2035TIP3   OH230299   1.283   1.135  14.952 -0.6791 -0.0891 -0.1062
 2035TIP3    H130300   1.249   1.056  14.911 -0.2415 -0.8447  0.9307
 2035TIP3    H230301   1.293   1.198  14.880 -2.4331 -0.4705 -0.7180
 2036TIP3   OH230302   0.136   1.586  13.848  1.1487 -0.4071 -0.1944
 2036TIP3    H130303   0.059   1.530  13.839  0.1299  0.5438  1.9612
 2036TIP3    H230304   0.127   1.651  13.779 -0.2124 -0.0751  0.2725
 2037TIP3   OH230305   4.550   3.222  16.744 -0.1789  0.4481  0.9260
 2037TIP3    H130306   4.615   3.223  16.814  0.5521 -1.6902  0.3444
 2037TIP3    H230307   4.564   3.305  16.697  3.5487 -0.6984 -0.3509
 2038TIP3   OH230308   3.391   5.896  13.868 -0.1720 -0.6209  0.8837
 2038TIP3    H130309   3.443   5.840  13.925  0.6014  0.3159  1.1342
 2038TIP3    H230310   3.302   5.888  13.901  0.2738 -0.0256  2.3131
 2039TIP3   OH230311   1.279   0.429  14.964  0.4902  0.3023 -0.1301
 2039TIP3    H130312   1.253   0.462  14.878  0.9135  1.5945  0.2093
 2039TIP3    H230313   1.217   0.470  15.025 -0.0618 -0.9241  0.1592
 2040TIP3   OH230314   6.464   5.912  14.161 -0.4717 -1.0271  0.2803
 2040TIP3    H130315   6.461   5.858  14.082 -1.7612 -1.5196  0.6369
 2040TIP3    H230316   6.373   5.936  14.177 -0.1003 -0.0612  1.0280
 2041TIP3   OH230317   1.161   0.725  16.656  0.1162 -0.6228 -0.2136
 2041TIP3    H130318   1.087   0.683  16.698  1.0024 -1.7732  0.2517
 2041TIP3    H230319   1.238   0.685  16.697  1.0084 -1.1851 -2.3088
 2042TIP3   OH230320   2.593   5.303  14.662  0.4907  0.5215 -0.0007
 2042TIP3    H130321   2.583   5.237  14.730  0.4553  0.3999 -0.1240
 2042TIP3    H230322   2.527   5.369  14.683  0.3247  0.3715 -0.0502
 2043TIP3   OH230323   6.277   2.372  14.903  0.4599  0.1191  0.2957
 2043TIP3    H130324   6.227   2.292  14.886 -0.3164  1.1781 -3.3552
 2043TIP3    H230325   6.211   2.436  14.931 -0.1982  1.0956 -3.0449
 2044TIP3   OH230326   3.322   1.978  14.266 -0.1682  0.3857  0.4772
 2044TIP3    H130327   3.406   2.002  14.306 -0.3664 -0.9589  1.7805
 2044TIP3    H230328   3.258   2.031  14.314 -0.3239 -0.6156  1.3920
 2045TIP3   OH230329   6.007   2.714  14.968 -0.3117 -0.4247  0.2503
 2045TIP3    H130330   6.012   2.619  14.965 -0.4730 -0.4231 -0.4008
 2045TIP3    H230331   6.049   2.742  14.886 -0.2730  0.0627  0.4340
 2046TIP3   OH230332   5.336   6.032  14.467 -0.4212  0.5769  0.3017
 2046TIP3    H130333   5.415   6.072  14.430 -0.5013 -0.3070 -0.8877
 2046TIP3    H230334   5.286   6.003  14.391 -1.8981  1.1190  1.0461
 2047TIP3   OH230335   6.447   2.476  16.371  0.9152 -0.2618  0.0804
 2047TIP3    H130336   6.447   2.558  16.321  1.1505 -0.5158 -0.3447
 2047TIP3    H230337   6.354   2.455  16.381  0.8401  0.3080  0.6164
 2048TIP3   OH230338   3.136   6.122  13.116 -0.6745 -0.1792  0.0615
 2048TIP3    H130339   3.218   6.113  13.067 -0.3469  0.8678  0.3736
 2048TIP3    H230340   3.079   6.053  13.082  0.3652 -0.9735 -0.0959
 2049TIP3   OH230341   1.129   0.074  15.286  0.1763 -0.1639  0.2078
 2049TIP3    H130342   1.144   0.029  15.203  0.7950  1.5203 -0.6176
 2049TIP3    H230343   1.069   0.146  15.264  0.2010  0.1915  1.2573
 2050TIP3   OH230344   5.382   0.350  14.487  0.4804  0.4090  0.0750
 2050TIP3    H130345   5.472   0.369  14.459  0.6393 -0.7738 -0.2854
 2050TIP3    H230346   5.357   0.272  14.436 -1.0453  1.1848 -0.4400
 2051TIP3   OH230347   4.975   2.753  14.433  0.1680  0.1130  0.0901
 2051TIP3    H130348   4.975   2.657  14.427  0.5492  0.0495  1.0455
 2051TIP3    H230349   5.058   2.775  14.474 -0.8850  0.7004  2.0193
 2052TIP3   OH230350   6.222   6.560  16.303 -0.0676  0.0308  0.2823
 2052TIP3    H130351   6.182   6.474  16.319 -0.5956  0.4078  1.0210
 2052TIP3    H230352   6.237   6.596  16.391 -1.8283  1.6012 -0.0009
 2053TIP3   OH230353   6.357   3.137  15.631 -0.2052  0.9867 -0.0967
 2053TIP3    H130354   6.268   3.171  15.633 -0.0734  1.3192  0.6396
 2053TIP3    H230355   6.355   3.062  15.691 -0.0659  0.8115 -0.3124
 2054TIP3   OH230356   3.905   2.242  14.652  0.2709  0.3159 -0.2469
 2054TIP3    H130357   3.991   2.273  14.626 -0.0608  0.2248 -1.5559
 2054TIP3    H230358   3.846   2.272  14.582 -0.7934  0.5479  0.7136
 2055TIP3   OH230359   1.034   6.100  13.977  0.2368 -0.0469 -0.6027
 2055TIP3    H130360   1.112   6.057  13.941 -0.4733 -1.4469 -0.5480
 2055TIP3    H230361   1.031   6.070  14.068 -1.2874 -1.4387 -1.0560
 2056TIP3   OH230362   3.018   3.191  14.356  0.3082 -0.2479 -0.7136
 2056TIP3    H130363   3.103   3.220  14.390  0.7133 -1.3013 -0.7763
 2056TIP3    H230364   3.032   3.099  14.334 -1.1617 -0.7476  0.3153
 2057TIP3   OH230365   1.636   0.411  12.655  0.3685  0.8179 -0.1725
 2057TIP3    H130366   1.556   0.387  12.700 -0.1052  0.3996 -1.2136
 2057TIP3    H230367   1.684   0.466  12.718 -0.1836  0.1064  0.8834
 2058TIP3   OH230368   3.784   2.043  16.254  0.1380  0.1292  0.4330
 2058TIP3    H130369   3.844   2.040  16.179 -1.0931  1.4221 -0.6427
 2058TIP3    H230370   3.815   1.973  16.311  0.7243 -1.3309 -1.5648
 2059TIP3   OH230371   0.088   6.686  15.547  0.3918 -0.5439  0.4013
 2059TIP3    H130372   0.170   6.734  15.557  0.1027  0.1716 -0.5140
 2059TIP3    H230373   0.054   6.677  15.636  0.1299  1.5541  0.5616
 2060TIP3   OH230374   5.906   5.969  16.263 -0.2045 -0.5222 -0.8263
 2060TIP3    H130375   5.884   5.924  16.181 -1.5389  1.3780 -1.5884
 2060TIP3    H230376   5.969   6.036  16.237  1.1943 -1.4169  0.1600
 2061TIP3   OH230377   6.332   3.497  16.089 -0.0319  0.2589  0.8568
 2061TIP3    H130378   6.316   3.515  16.181 -0.4182 -1.2505  1.1001
 2061TIP3    H230379   6.266   3.433  16.064  0.8341 -0.2929 -0.1426
 2062TIP3   OH230380   6.413   0.592  16.667 -0.1055 -0.3766  0.0889
 2062TIP3    H130381   6.505   0.612  16.681 -0.5536 -0.1971  3.4051
 2062TIP3    H230382   6.413   0.513  16.613  2.0061 -0.9468  0.8488
 2063TIP3   OH230383   2.268   5.357  16.726  0.1009 -0.7640  0.4680
 2063TIP3    H130384   2.275   5.308  16.645  1.5358 -3.8749  2.2741
 2063TIP3    H230385   2.174   5.370  16.738 -0.1220  2.8385 -3.1620
 2064TIP3   OH230386   0.526   0.807  12.839 -0.2311 -0.6130  0.1308
 2064TIP3    H130387   0.498   0.874  12.901 -0.2750 -2.2956  2.0332
 2064TIP3    H230388   0.622   0.816  12.835 -0.3857  0.8203 -1.2092
 2065TIP3   OH230389   3.907   1.139  13.640  0.3251 -0.5273 -0.0496
 2065TIP3    H130390   3.818   1.173  13.635  0.7522  0.4053 -2.5260
 2065TIP3    H230391   3.956   1.208  13.684  0.4081  0.4013 -1.5372
 2066TIP3   OH230392   4.639   1.574  16.877  0.5218 -0.4793 -0.0413
 2066TIP3    H130393   4.556   1.618  16.897  0.6838  1.0053 -2.2488
 2066TIP3    H230394   4.705   1.643  16.888  1.1269 -0.9223 -0.8486
 2067TIP3   OH230395   2.389   5.911  16.105 -0.1818 -0.1723  0.0165
 2067TIP3    H130396   2.307   5.935  16.061 -0.5415 -1.3664 -0.0215
 2067TIP3    H230397   2.377   5.938  16.195  0.5566  2.3001 -0.5571
 2068TIP3   OH230398   0.554   4.981  14.878  0.0313  0.8716 -0.5623
 2068TIP3    H130399   0.498   5.049  14.842 -0.7750  1.3798  1.5213
 2068TIP3    H230400   0.581   5.015  14.963  2.4221  0.0376 -0.9151
 2069TIP3   OH230401   4.612   0.571  14.701  0.3499 -0.0342 -0.3002
 2069TIP3    H130402   4.616   0.476  14.701  0.5300 -0.0466 -1.7510
 2069TIP3    H230403   4.592   0.594  14.792 -1.0852 -1.5060 -0.1930
 2070TIP3   OH230404   6.045   3.819  17.177  0.5471 -0.2025 -0.4106
 2070TIP3    H130405   6.078   3.775  17.098  3.9852  0.8420  0.3111
 2070TIP3    H230406   6.032   3.747  17.239 -0.2782 -0.8283 -1.2690
 2071TIP3   OH230407   3.893   1.816  16.728 -0.1290  0.3251  0.0498
 2071TIP3    H130408   3.950   1.869  16.784 -0.9460 -0.3954  1.6182
 2071TIP3    H230409   3.828   1.779  16.788 -0.6732 -0.9810 -1.2861
 2072TIP3   OH230410   1.765   2.796  15.252 -0.0480  0.5612  0.0501
 2072TIP3    H130411   1.691   2.854  15.235 -0.7468 -0.0593  0.8345
 2072TIP3    H230412   1.785   2.810  15.345  0.1253 -0.0466  0.1083
 2073TIP3   OH230413   1.985   6.202  14.062  0.1537 -0.0692 -0.2394
 2073TIP3    H130414   1.976   6.119  14.016 -1.5000  0.7018 -1.4123
 2073TIP3    H230415   1.896   6.236  14.069  0.5579  0.7366  1.9370
 2074TIP3   OH230416   2.739   5.193  15.077 -0.3761  0.0403  0.2363
 2074TIP3    H130417   2.820   5.218  15.122 -0.7943  1.3472  0.3232
 2074TIP3    H230418   2.700   5.125  15.131  0.0323  0.3072  0.8710
 2075TIP3   OH230419   2.497   0.368  14.055  0.0233 -0.5460  0.3292
 2075TIP3    H130420   2.461   0.280  14.040  1.0206 -0.7004 -1.3806
 2075TIP3    H230421   2.495   0.410  13.969  0.7336  0.6522  0.8732
 2076TIP3   OH230422   3.005   3.642  15.212 -0.2214 -0.2731 -0.7236
 2076TIP3    H130423   3.087   3.614  15.172  1.8010 -0.3682  3.0360
 2076TIP3    H230424   3.024   3.731  15.244 -0.4872 -1.3132  2.6273
 2077TIP3   OH230425   2.395   4.235  16.869  0.4766  0.9978 -0.3245
 2077TIP3    H130426   2.372   4.302  16.934 -0.9487 -0.1902  0.4679
 2077TIP3    H230427   2.395   4.153  16.919  0.7424  0.2260 -1.5529
 2078TIP3   OH230428   4.348   1.083  13.653  0.3196 -0.2054 -0.4282
 2078TIP3    H130429   4.295   1.113  13.727  1.4335 -1.6417  1.0468
 2078TIP3    H230430   4.285   1.064  13.584 -0.6969  1.8090 -0.1123
 2079TIP3   OH230431   1.350   2.462  15.870 -0.2031  0.5268  0.3685
 2079TIP3    H130432   1.431   2.481  15.824 -0.6677  0.9595 -0.2916
 2079TIP3    H230433   1.338   2.368  15.860 -0.2550  0.6050 -0.3268
 2080TIP3   OH230434   2.010   1.069  13.048 -0.1410  0.1898  0.2985
 2080TIP3    H130435   2.100   1.042  13.068 -0.5949 -0.9951  0.8202
 2080TIP3    H230436   2.012   1.165  13.054  1.3823  0.2827 -1.0180
 2081TIP3   OH230437   3.521   1.761  14.123 -0.1338  0.0432 -0.9902
 2081TIP3    H130438   3.433   1.796  14.135  0.1111  0.4835 -0.4676
 2081TIP3    H230439   3.553   1.744  14.211  0.9389  1.4595 -1.0779
 2082TIP3   OH230440   3.343   0.313  14.212 -0.0814  0.3172 -0.0558
 2082TIP3    H130441   3.351   0.218  14.209  1.3130  0.4002  0.3782
 2082TIP3    H230442   3.432   0.345  14.204 -0.2228  1.5114  2.2067
 2083TIP3   OH230443   1.989   6.477  15.805 -0.2450 -0.1769 -0.1328
 2083TIP3    H130444   1.973   6.525  15.886 -1.4115  0.1239 -0.5314
 2083TIP3    H230445   2.007   6.545  15.740  2.7204 -0.4656  0.2425
 2084TIP3   OH230446   0.508   6.587  16.262 -0.3546 -0.7892 -0.4829
 2084TIP3    H130447   0.548   6.602  16.347  1.9089  0.7397 -1.7259
 2084TIP3    H230448   0.414   6.586  16.279  0.0640 -2.1820  2.2231
 2085TIP3   OH230449   2.376   3.368  15.145  0.0429  0.0428  0.0839
 2085TIP3    H130450   2.379   3.443  15.204 -0.9697  0.4679 -0.3888
 2085TIP3    H230451   2.467   3.356  15.119  0.6692 -0.7097  2.3798
 2086TIP3   OH230452   1.647   1.289  16.767  0.2198 -0.2242 -0.0230
 2086TIP3    H130453   1.644   1.378  16.803  1.2657 -0.6816  1.2533
 2086TIP3    H230454   1.557   1.272  16.740 -0.3760  0.5931  1.3144
 2087TIP3   OH230455   1.458   4.235  16.567 -0.1417  0.2479  0.3209
 2087TIP3    H130456   1.484   4.174  16.497 -0.3501  0.6896 -0.1481
 2087TIP3    H230457   1.375   4.201  16.599 -0.6313  0.6886 -0.4470
 2088TIP3   OH230458   3.705   2.144  16.565 -0.3515 -0.2043 -0.0969
 2088TIP3    H130459   3.701   2.240  16.561  0.6611 -0.0915  1.0477
 2088TIP3    H230460   3.794   2.125  16.597 -0.6525 -1.5205  0.0218
 2089TIP3   OH230461   3.406   1.276  15.058 -0.4422 -0.0368 -0.2141
 2089TIP3    H130462   3.322   1.234  15.079 -1.3615  0.8038 -1.9734
 2089TIP3    H230463   3.386   1.332  14.982  0.6914  3.5542  1.9034
 2090TIP3   OH230464   3.077   0.523  13.726 -0.3606 -0.0661 -0.2663
 2090TIP3    H130465   3.013   0.462  13.689 -0.4940  0.0559 -0.2401
 2090TIP3    H230466   3.135   0.544  13.653  0.2567 -0.9505 -0.0436
 2091TIP3   OH230467   5.988   2.318  16.615 -0.5989  0.6012  0.1267
 2091TIP3    H130468   5.963   2.287  16.528 -0.8904 -0.1815  0.4783
 2091TIP3    H230469   6.070   2.272  16.634 -0.6679  0.5813  0.3707
 2092TIP3   OH230470   1.727   1.730  15.870  0.0365 -0.5275  0.1592
 2092TIP3    H130471   1.793   1.675  15.829 -0.4705 -0.9402 -0.1189
 2092TIP3    H230472   1.665   1.668  15.909 -0.5259 -0.1545 -0.1343
 2093TIP3   OH230473   5.434   4.656  15.457 -0.1676 -0.1132 -0.7619
 2093TIP3    H130474   5.444   4.733  15.514  0.8584 -0.7228 -0.1006
 2093TIP3    H230475   5.341   4.634  15.463 -0.4334  0.9509 -0.8026
 2094TIP3   OH230476   5.955   4.292  15.978  0.0848  0.0156  0.0584
 2094TIP3    H130477   5.940   4.346  15.901  1.4961 -0.1858 -0.3936
 2094TIP3    H230478   6.003   4.216  15.945 -1.6609 -1.4485  0.7202
 2095TIP3   OH230479   2.680   2.357  16.177 -0.1136  0.3232  0.3456
 2095TIP3    H130480   2.611   2.418  16.204  1.3800  1.3384  2.0513
 2095TIP3    H230481   2.657   2.275  16.223 -0.4610  0.4942  0.4848
 2096TIP3   OH230482   1.921   0.051  14.810 -0.6388  0.1900 -0.2436
 2096TIP3    H130483   1.981   0.115  14.849  0.0612  0.1339 -1.1963
 2096TIP3    H230484   1.974  -0.028  14.799 -0.8848  0.1369 -1.0883
 2097TIP3   OH230485   0.358   6.747  15.574  0.0598 -0.1444 -0.2584
 2097TIP3    H130486   0.438   6.757  15.523  0.2762  0.7833  0.2262
 2097TIP3    H230487   0.375   6.672  15.631 -0.0760 -1.0060 -1.3111
 2098TIP3   OH230488   1.010   3.998  14.867  0.3252 -0.6540  0.1731
 2098TIP3    H130489   1.032   4.040  14.784  1.6785 -0.0648  0.7837
 2098TIP3    H230490   0.925   4.035  14.890  0.1002 -0.5549 -0.7794
 2099TIP3   OH230491   4.902   5.208  16.228 -0.2324  0.0288 -0.1261
 2099TIP3    H130492   4.966   5.142  16.256  0.9228 -0.1089 -2.7928
 2099TIP3    H230493   4.830   5.157  16.190 -0.6933  0.2670  0.4044
 2100TIP3   OH230494   2.316   3.938  15.722  0.0066  0.6262 -0.0082
 2100TIP3    H130495   2.246   3.985  15.769 -0.1592 -1.3051  1.8481
 2100TIP3    H230496   2.396   3.985  15.746 -0.3829  1.3173 -0.0435
 2101TIP3   OH230497   2.685   5.474  16.514  0.4440 -0.2213 -0.4940
 2101TIP3    H130498   2.647   5.492  16.600  1.5476 -1.4782  0.3114
 2101TIP3    H230499   2.774   5.508  16.520  0.5256 -0.2974 -1.1579
 2102TIP3   OH230500   5.230   1.120  14.109 -0.0075  0.2535 -0.9504
 2102TIP3    H130501   5.206   1.205  14.146  1.7505  1.2105 -1.8787
 2102TIP3    H230502   5.153   1.065  14.125 -0.0973  1.1303  2.3230
 2103TIP3   OH230503   2.214   4.020  14.335  0.0370 -0.8142 -0.3303
 2103TIP3    H130504   2.255   4.018  14.421 -1.1514  2.1520  0.4533
 2103TIP3    H230505   2.233   3.935  14.296  3.5965 -0.9839  1.4309
 2104TIP3   OH230506   5.765   0.905  14.859 -0.8256  0.2042  0.3871
 2104TIP3    H130507   5.798   0.994  14.850 -0.7812  0.1883  0.3911
 2104TIP3    H230508   5.788   0.862  14.776  0.7538 -0.3211  1.0515
 2105TIP3   OH230509   2.982   6.390  15.762 -0.2657  0.5506  0.3094
 2105TIP3    H130510   2.973   6.392  15.667 -2.0953  0.3218  0.4483
 2105TIP3    H230511   2.958   6.301  15.787  0.2215  0.6005  0.9854
 2106TIP3   OH230512   0.006   0.910  15.751 -0.2446 -0.3258  0.3581
 2106TIP3    H130513  -0.089   0.913  15.756 -0.2163  0.1345  0.6179
 2106TIP3    H230514   0.025   0.904  15.657 -0.5373 -0.8076  0.3269
 2107TIP3   OH230515   1.132   5.146  14.974  0.0208  0.2053 -0.1458
 2107TIP3    H130516   1.170   5.232  14.985  0.5706  0.1242 -1.2962
 2107TIP3    H230517   1.190   5.101  14.912 -0.0665 -1.1084  0.6784
 2108TIP3   OH230518   0.128   5.639  15.402 -0.7142 -0.2553 -0.0224
 2108TIP3    H130519   0.175   5.559  15.425 -1.6224 -0.8989 -0.3489
 2108TIP3    H230520   0.193   5.693  15.357 -0.1959 -0.9882 -0.1723
 2109TIP3   OH230521   1.275   0.242  14.702 -0.2441 -0.0452 -0.6046
 2109TIP3    H130522   1.309   0.290  14.626  1.6861  0.7520  0.6691
 2109TIP3    H230523   1.286   0.150  14.679  0.1062  0.1724 -1.3662
 2110TIP3   OH230524   3.165   5.517  14.072 -0.1224 -0.2930 -0.1188
 2110TIP3    H130525   3.131   5.445  14.019 -1.2906 -0.6993  1.1343
 2110TIP3    H230526   3.251   5.487  14.101  0.3223 -0.2656 -1.3546
 2111TIP3   OH230527   6.661   0.666  15.168  0.0341  0.0149  0.3657
 2111TIP3    H130528   6.715   0.591  15.141 -1.1645 -0.1393 -1.8494
 2111TIP3    H230529   6.723   0.735  15.190  1.1292 -0.8863  0.1631
 2112TIP3   OH230530   0.359   1.003  16.125 -0.0103 -0.4811 -0.1204
 2112TIP3    H130531   0.314   0.926  16.159  1.6800 -2.3610 -1.8281
 2112TIP3    H230532   0.300   1.037  16.057 -0.7455 -0.2975  0.6041
 2113TIP3   OH230533   6.013   4.255  16.673  0.3866  0.0862  0.1186
 2113TIP3    H130534   5.998   4.173  16.625 -0.2575 -0.5545  1.3616
 2113TIP3    H230535   6.107   4.258  16.687  0.4747 -0.1720 -0.4109
 2114TIP3   OH230536   0.247   5.102  15.428 -0.2833 -0.3314  0.1440
 2114TIP3    H130537   0.318   5.079  15.488 -1.1318 -0.7979  0.9906
 2114TIP3    H230538   0.245   5.031  15.364 -0.9930 -1.1587  1.0473
 2115TIP3   OH230539   0.845   3.534  16.500  0.5061 -0.0562  0.0394
 2115TIP3    H130540   0.749   3.533  16.509  0.2700  0.8123 -1.8991
 2115TIP3    H230541   0.862   3.483  16.421  1.5056  1.2081 -0.5911
 2116TIP3   OH230542   2.975   3.130  16.944 -0.4850 -0.3692 -0.4429
 2116TIP3    H130543   2.987   3.078  16.864 -0.3465 -1.6556  0.3859
 2116TIP3    H230544   2.880   3.131  16.956 -0.4860 -0.4455 -0.4437
 2117TIP3   OH230545   3.799   5.610  13.915 -0.3205  0.8282 -0.0373
 2117TIP3    H130546   3.842   5.560  13.846 -1.1366 -0.7083  0.5162
 2117TIP3    H230547   3.846   5.586  13.995  0.1508  2.0322  0.0706
 2118TIP3   OH230548   1.230   6.257  15.989  0.0691  0.2400 -0.0865
 2118TIP3    H130549   1.280   6.176  16.000  0.4266  0.3406 -0.9348
 2118TIP3    H230550   1.195   6.253  15.901 -1.0343  0.4015  0.3260
 2119TIP3   OH230551   2.480   1.591  17.200  0.3949 -0.1832 -0.2576
 2119TIP3    H130552   2.530   1.605  17.280 -0.9572 -0.7822  0.7129
 2119TIP3    H230553   2.514   1.509  17.164  0.5328 -0.2643  0.0594
 2120TIP3   OH230554   0.826   4.299  15.513  0.3074  0.0461  0.3440
 2120TIP3    H130555   0.914   4.275  15.544  0.5671  0.1606 -0.2905
 2120TIP3    H230556   0.808   4.237  15.443  0.1046  0.3623  0.1142
 2121TIP3   OH230557   0.215   0.640  14.106 -0.0042  0.4140  0.1093
 2121TIP3    H130558   0.300   0.622  14.066  0.5621  0.4396  1.2379
 2121TIP3    H230559   0.231   0.717  14.161 -0.6770  0.2372  0.5576
 2122TIP3   OH230560   5.931   6.668  16.321  0.1885  0.3078  0.4031
 2122TIP3    H130561   5.867   6.601  16.297 -0.4065  1.2783 -0.8355
 2122TIP3    H230562   6.009   6.646  16.271 -0.1909  0.8436 -0.4356
 2123TIP3   OH230563   0.160   2.146  15.991  0.1964  0.1348  0.1489
 2123TIP3    H130564   0.214   2.162  15.914 -0.9292 -0.4115 -0.7892
 2123TIP3    H230565   0.092   2.214  15.986 -1.3633 -1.4197 -0.7793
 2124TIP3   OH230566   1.604   4.425  15.280 -0.2155 -0.4362 -0.1667
 2124TIP3    H130567   1.536   4.391  15.222  0.9238 -1.1456 -1.1384
 2124TIP3    H230568   1.686   4.393  15.243  0.8164  1.8304 -0.0518
 2125TIP3   OH230569   6.123   5.097  14.727 -0.0897  0.3488 -0.1644
 2125TIP3    H130570   6.103   5.037  14.655 -0.5062 -0.2691  0.4519
 2125TIP3    H230571   6.204   5.064  14.765  0.5439  1.1293 -0.8270
 2126TIP3   OH230572   3.233   3.013  17.059 -0.1595  0.3948 -0.0903
 2126TIP3    H130573   3.164   3.073  17.031  0.2508  0.3739 -1.1810
 2126TIP3    H230574   3.296   3.013  16.987  1.3525  0.9607  1.1775
 2127TIP3   OH230575   5.854   0.681  14.996  0.4828 -0.0526  0.2856
 2127TIP3    H130576   5.945   0.663  14.973  0.0618 -1.4144 -0.4068
 2127TIP3    H230577   5.832   0.760  14.946  0.8189 -0.6073 -0.7563
 2128TIP3   OH230578   5.833   6.414  15.135 -0.0057 -0.0676 -0.2669
 2128TIP3    H130579   5.785   6.334  15.156  0.8759 -0.7386 -0.7439
 2128TIP3    H230580   5.922   6.398  15.168 -0.6411  2.1753  3.0588
 2129TIP3   OH230581   3.870   5.208  16.392 -0.0283 -0.2073 -0.2903
 2129TIP3    H130582   3.811   5.215  16.317 -0.1009  2.2817 -0.0831
 2129TIP3    H230583   3.824   5.255  16.462  1.1287 -0.3324  0.5719
 2130TIP3   OH230584   1.962   6.270  13.003  0.2518  0.1267 -0.1917
 2130TIP3    H130585   1.938   6.223  13.083  3.5746  0.5799  1.2604
 2130TIP3    H230586   1.950   6.206  12.933  0.8902 -1.6311  1.2187
 2131TIP3   OH230587   2.872   1.174  16.901  0.2668  0.3524 -0.2702
 2131TIP3    H130588   2.797   1.197  16.956  0.2053 -1.6804  0.5700
 2131TIP3    H230589   2.938   1.239  16.923 -0.2074  0.3454  1.2661
 2132TIP3   OH230590   0.739   1.444  13.237 -0.0851  0.0130  0.0968
 2132TIP3    H130591   0.657   1.457  13.189 -0.2707  0.0143  0.4080
 2132TIP3    H230592   0.743   1.517  13.298 -0.5130 -0.6986  0.9949
 2133TIP3   OH230593   2.039   0.048  14.052  1.3001  0.3830 -0.3048
 2133TIP3    H130594   2.059  -0.045  14.049  0.6606  0.2614 -2.3258
 2133TIP3    H230595   1.944   0.053  14.058  1.2321  0.8561 -1.3756
 2134TIP3   OH230596   3.843   4.941  15.149  0.1556 -0.0936 -0.0374
 2134TIP3    H130597   3.858   5.035  15.152  0.1784 -0.0732 -0.7101
 2134TIP3    H230598   3.758   4.931  15.106 -0.4706 -0.3288  1.2036
 2135TIP3   OH230599   4.122   5.679  16.110 -0.4756 -0.4332 -0.1638
 2135TIP3    H130600   4.117   5.677  16.015  0.8162 -2.2221 -0.2374
 2135TIP3    H230601   4.063   5.610  16.140  0.3248 -0.9584  0.2444
 2136TIP3   OH230602   1.469   0.679  16.695 -0.6215  0.3527 -0.3101
 2136TIP3    H130603   1.440   0.621  16.625 -1.8695  0.1722  0.3243
 2136TIP3    H230604   1.564   0.684  16.685 -0.6822 -0.4535 -1.3966
 2137TIP3   OH230605   3.973   6.461  17.190 -0.0315  0.5572 -0.5503
 2137TIP3    H130606   3.934   6.437  17.274  0.9588 -1.2093 -0.5253
 2137TIP3    H230607   3.924   6.537  17.160 -1.8354 -0.1065  0.5977
 2138TIP3   OH230608   1.596   5.601  16.548 -0.2193 -0.2431  0.0625
 2138TIP3    H130609   1.534   5.650  16.494  0.4891 -0.6737 -1.1920
 2138TIP3    H230610   1.668   5.580  16.489  2.2036  2.0741  1.9632
 2139TIP3   OH230611   3.645   1.632  15.340  0.1175  0.0104 -0.0011
 2139TIP3    H130612   3.613   1.624  15.430 -0.4902 -2.4180 -0.3644
 2139TIP3    H230613   3.620   1.720  15.313 -0.7656  0.3500  1.8062
 2140TIP3   OH230614   3.879   5.537  16.190 -0.3652  0.0198 -0.7886
 2140TIP3    H130615   3.873   5.447  16.223 -1.3405 -0.9860 -3.4005
 2140TIP3    H230616   3.857   5.592  16.265 -2.5410 -2.0725  0.2497
 2141TIP3   OH230617   0.387   4.581  16.176 -0.6280 -0.1646  0.6702
 2141TIP3    H130618   0.381   4.486  16.174 -0.4052 -0.1724  0.3746
 2141TIP3    H230619   0.480   4.600  16.165 -0.6397  0.0806  0.9902
 2142TIP3   OH230620   5.973   6.420  16.806  0.1527  0.1699  0.4284
 2142TIP3    H130621   5.947   6.399  16.896  0.9607  1.5036  1.0140
 2142TIP3    H230622   6.045   6.360  16.787 -0.2824 -0.3863  0.5240
 2143TIP3   OH230623   2.833   6.618  13.903  0.0200 -0.3454  0.1238
 2143TIP3    H130624   2.772   6.563  13.854 -1.4356  0.7891  0.5782
 2143TIP3    H230625   2.809   6.708  13.878  0.0830  0.2089  1.9287
 2144TIP3   OH230626   0.865   3.039  15.863  0.4054 -0.1831  0.1372
 2144TIP3    H130627   0.778   3.057  15.828  0.0021 -0.3047  1.0527
 2144TIP3    H230628   0.857   3.055  15.957  1.6832  0.9548  0.0737
 2145TIP3   OH230629   4.498   2.912  15.882 -0.0632 -0.0104 -0.3716
 2145TIP3    H130630   4.553   2.986  15.856  0.7254 -0.6002 -0.4212
 2145TIP3    H230631   4.428   2.911  15.817  0.9770 -0.4611 -1.5230
 2146TIP3   OH230632   0.072   4.082  16.023 -0.9273 -0.2340 -0.4854
 2146TIP3    H130633   0.082   3.994  16.059 -1.4811 -0.1269 -0.0620
 2146TIP3    H230634  -0.018   4.107  16.044 -1.0246  0.1268 -1.2976
 2147TIP3   OH230635   0.412   0.370  13.734 -0.4587  0.5006 -0.4793
 2147TIP3    H130636   0.507   0.384  13.739 -0.7566  2.6380 -0.1959
 2147TIP3    H230637   0.402   0.275  13.739  1.6908  0.1942 -1.0334
 2148TIP3   OH230638   1.895   1.275  15.354  0.7150  0.2006  0.4028
 2148TIP3    H130639   1.834   1.344  15.328  1.6329  0.5570 -0.9271
 2148TIP3    H230640   1.974   1.322  15.381  2.1403 -0.2510 -2.5163
 2149TIP3   OH230641   1.304   5.028  15.956  0.0815 -0.1711 -0.8970
 2149TIP3    H130642   1.389   5.010  15.996 -0.1179  0.4773 -0.1495
 2149TIP3    H230643   1.323   5.044  15.864  0.6730 -0.7635 -0.8796
 2150TIP3   OH230644   3.393   3.054  14.767  0.1897 -0.1440  0.0821
 2150TIP3    H130645   3.327   3.077  14.702 -0.9946  0.5488  1.4671
 2150TIP3    H230646   3.372   2.964  14.793 -1.4970  0.6919  1.9007
 2151TIP3   OH230647   3.087   0.204  16.209 -0.6075 -0.6256  0.1539
 2151TIP3    H130648   3.093   0.268  16.280 -2.4225 -0.6151  0.3455
 2151TIP3    H230649   3.031   0.134  16.245 -0.5418 -1.2069 -0.8403
 2152TIP3   OH230650   5.503   3.697  15.222  0.2537  0.0852  0.0309
 2152TIP3    H130651   5.584   3.677  15.268  0.5187 -0.0137 -0.4756
 2152TIP3    H230652   5.514   3.787  15.192 -0.6223  0.7653  1.6363
 2153TIP3   OH230653   3.063   6.155  15.514  0.1203  0.0943 -0.0737
 2153TIP3    H130654   2.983   6.187  15.555 -0.5240 -1.3548 -0.1714
 2153TIP3    H230655   3.044   6.157  15.420  0.6153  0.8101 -0.1669
 2154TIP3   OH230656   3.662   2.440  16.877 -0.6540  0.8854  0.1696
 2154TIP3    H130657   3.578   2.453  16.833 -0.7527  1.4473  0.5056
 2154TIP3    H230658   3.665   2.347  16.896 -0.9806  0.7791 -0.2904
 2155TIP3   OH230659   1.210   6.381  16.466 -0.2816 -0.4311 -0.0143
 2155TIP3    H130660   1.184   6.322  16.537 -0.6928 -0.4130 -0.1445
 2155TIP3    H230661   1.146   6.452  16.470 -0.0795 -0.2410 -0.1656
 2156TIP3   OH230662   4.392   3.387  15.934 -0.1018  0.0411 -0.0967
 2156TIP3    H130663   4.471   3.333  15.932 -0.0862  0.0407  0.3675
 2156TIP3    H230664   4.391   3.425  16.021 -2.0256 -2.1238  0.9490
 2157TIP3   OH230665   4.362   5.154  15.737 -0.9089 -0.0235 -0.7953
 2157TIP3    H130666   4.271   5.171  15.716 -0.7274  0.1560 -1.4572
 2157TIP3    H230667   4.400   5.241  15.750 -0.3162  0.0370 -2.7483
 2158TIP3   OH230668   0.934   6.032  15.753  0.1884 -0.5427 -0.1962
 2158TIP3    H130669   0.907   6.010  15.842  0.4411  1.4909  0.4489
 2158TIP3    H230670   0.945   5.948  15.709 -0.4954 -1.5806  1.5197
 2159TIP3   OH230671   6.615   4.376  15.118 -0.5716 -0.4446 -0.1387
 2159TIP3    H130672   6.554   4.326  15.173 -0.7244  0.2563  0.3417
 2159TIP3    H230673   6.700   4.364  15.160 -0.7265  0.2894  0.4135
 2160TIP3   OH230674   6.174   2.020  14.536 -0.3690 -0.4790 -0.2296
 2160TIP3    H130675   6.088   2.057  14.518  0.1446  0.5737 -0.5681
 2160TIP3    H230676   6.236   2.089  14.512  0.5557 -1.0596  0.4209
 2161TIP3   OH230677   6.286   1.232  16.014  0.0505  0.0872  0.4220
 2161TIP3    H130678   6.334   1.152  16.034 -0.4832 -0.1989  0.5606
 2161TIP3    H230679   6.249   1.260  16.097 -0.5286 -0.0277  0.2068
 2162TIP3   OH230680   6.013   3.154  14.803  0.0433  0.1563  0.3865
 2162TIP3    H130681   6.066   3.173  14.726  1.1244 -1.0019  0.8115
 2162TIP3    H230682   6.072   3.167  14.877 -1.1755  1.9755  1.1133
 2163TIP3   OH230683   0.895   1.586  14.519 -0.2451  0.2394 -0.3860
 2163TIP3    H130684   0.946   1.552  14.445 -1.3529 -0.3431 -0.9003
 2163TIP3    H230685   0.837   1.514  14.544 -0.3862  0.6774  0.5937
 2164TIP3   OH230686   5.503   5.403  13.929 -0.0963 -0.2570 -0.4054
 2164TIP3    H130687   5.546   5.484  13.901 -0.6951  0.2766  0.1939
 2164TIP3    H230688   5.459   5.371  13.850 -1.1587  0.8426 -0.2839
 2165TIP3   OH230689   6.259   5.661  16.797  0.1269 -0.5068  0.3912
 2165TIP3    H130690   6.258   5.751  16.766  3.4760 -0.1252  1.0041
 2165TIP3    H230691   6.254   5.608  16.718 -0.5628  0.2148 -0.0622
 2166TIP3   OH230692   3.198   4.900  16.608 -0.0813 -0.0402  0.2566
 2166TIP3    H130693   3.163   4.975  16.657  0.1054  0.2531 -0.0568
 2166TIP3    H230694   3.200   4.930  16.517  0.0942 -0.3911  0.1448
 2167TIP3   OH230695   0.250   3.646  16.627  0.4559 -0.1506 -0.0703
 2167TIP3    H130696   0.328   3.635  16.682  0.6658 -0.0827 -0.3504
 2167TIP3    H230697   0.239   3.741  16.620  1.4618 -0.1119 -1.5747
 2168TIP3   OH230698   2.815   6.020  17.027  0.7979  0.0355 -0.4971
 2168TIP3    H130699   2.736   6.016  16.973  0.6825 -0.0223 -0.3231
 2168TIP3    H230700   2.794   5.966  17.103  1.0373 -0.0520 -0.4940
 2169TIP3   OH230701   5.584   5.784  15.649  0.3482 -0.4614 -0.4125
 2169TIP3    H130702   5.611   5.702  15.608  1.3741 -1.4707  2.0420
 2169TIP3    H230703   5.529   5.757  15.723 -1.4941  1.2397 -1.0815
 2170TIP3   OH230704   2.383   2.955  13.708  0.7337 -0.3508 -0.3153
 2170TIP3    H130705   2.304   2.953  13.653 -0.1963 -0.8655  0.9919
 2170TIP3    H230706   2.393   3.048  13.731 -0.1440 -0.4077  0.3831
 2171TIP3   OH230707   2.423   0.474  13.803  0.1392  0.1697  0.5164
 2171TIP3    H130708   2.426   0.478  13.707  1.5851 -2.1683  0.3645
 2171TIP3    H230709   2.333   0.450  13.823  0.0813 -0.4326 -0.3649
 2172TIP3   OH230710   5.526   2.033  16.269 -0.1008 -0.1531 -0.2208
 2172TIP3    H130711   5.460   2.072  16.327  0.5307  1.8482 -0.7754
 2172TIP3    H230712   5.573   2.108  16.232  2.5183 -1.4839  0.1507
 2173TIP3   OH230713   0.964   2.923  15.531 -0.1234 -0.0911  0.2885
 2173TIP3    H130714   1.039   2.934  15.589 -1.0940 -1.1274  1.8260
 2173TIP3    H230715   1.001   2.899  15.446  1.3882  2.4899  0.1373
 2174TIP3   OH230716   5.856   5.190  15.181  0.3588 -0.4054 -0.1682
 2174TIP3    H130717   5.786   5.193  15.115 -1.2483 -2.0766  1.3524
 2174TIP3    H230718   5.936   5.203  15.131 -0.7084 -2.2821 -2.5705
 2175TIP3   OH230719   3.587   0.843  15.268 -0.6051  0.8379 -0.4767
 2175TIP3    H130720   3.531   0.911  15.305  2.5133  3.4353 -0.1214
 2175TIP3    H230721   3.650   0.823  15.337  0.6146  0.0675 -1.7483
 2176TIP3   OH230722   3.810   0.358  14.970 -0.6023  0.3628 -0.2802
 2176TIP3    H130723   3.757   0.415  15.025 -2.7824 -1.6844 -0.1249
 2176TIP3    H230724   3.827   0.281  15.024  0.3403 -0.1264 -1.2292
 2177TIP3   OH230725   1.882   0.677  13.516  0.4514  0.0930  0.6047
 2177TIP3    H130726   1.975   0.654  13.507  0.2389 -0.6411  0.3044
 2177TIP3    H230727   1.839   0.597  13.544 -0.2477  0.1873 -0.1545
 2178TIP3   OH230728   2.120   1.541  16.219  0.1798  0.1802 -0.1067
 2178TIP3    H130729   2.199   1.514  16.266 -0.5236 -1.0282  0.4332
 2178TIP3    H230730   2.097   1.625  16.258  0.7437  0.1567  0.2932
 2179TIP3   OH230731   0.086   4.943  14.439  0.1297 -0.1243  0.0654
 2179TIP3    H130732   0.072   4.849  14.450 -0.0664 -0.2106 -0.8313
 2179TIP3    H230733   0.087   4.956  14.344  1.5827  0.5682  0.1474
 2180TIP3   OH230734   0.281   6.177  14.941  0.6456  0.2090  0.1623
 2180TIP3    H130735   0.345   6.178  14.870  0.7648  0.5087  0.2736
 2180TIP3    H230736   0.250   6.087  14.944  0.3552  0.2723 -0.5267
 2181TIP3   OH230737   1.876   5.922  14.484 -0.3306  0.2124  0.0050
 2181TIP3    H130738   1.804   5.859  14.479  0.5551 -0.7376 -1.4222
 2181TIP3    H230739   1.845   5.989  14.545 -3.3192  0.9976 -2.1627
 2182TIP3   OH230740   5.261   3.066  15.341  0.3422 -0.1798 -0.0254
 2182TIP3    H130741   5.207   3.133  15.298  0.2415 -0.3526 -0.1660
 2182TIP3    H230742   5.351   3.088  15.314  0.3424  0.0868  0.1824
 2183TIP3   OH230743   1.636   4.762  14.374 -0.0754  0.5827 -0.4056
 2183TIP3    H130744   1.615   4.847  14.412  1.1143  0.3650  0.8210
 2183TIP3    H230745   1.668   4.782  14.286  0.8344  1.4817  0.1118
 2184TIP3   OH230746   4.605   6.294  14.803 -0.2403  0.0415 -0.5682
 2184TIP3    H130747   4.653   6.284  14.721 -2.8483  0.5387 -2.2697
 2184TIP3    H230748   4.637   6.376  14.840  0.5637  0.1011 -1.3662
 2185TIP3   OH230749   1.952   6.304  16.468 -0.5146 -0.6382  0.3215
 2185TIP3    H130750   1.950   6.257  16.384  1.6286 -0.4732  0.0969
 2185TIP3    H230751   1.894   6.255  16.525 -0.9772 -1.5525 -0.8858
 2186TIP3   OH230752   4.438   1.239  15.418 -0.8538 -0.9190  0.1321
 2186TIP3    H130753   4.393   1.162  15.454 -0.0629 -0.0138  3.3700
 2186TIP3    H230754   4.378   1.312  15.436 -0.8338 -0.5178 -1.3403
 2187TIP3   OH230755   3.363   6.583  14.540  0.1207  0.9766 -0.1625
 2187TIP3    H130756   3.441   6.536  14.570 -0.1480  0.0001 -0.9644
 2187TIP3    H230757   3.352   6.555  14.449 -1.4558  0.6999  0.0968
 2188TIP3   OH230758   5.700   3.154  15.235  0.0735 -0.5721  0.0934
 2188TIP3    H130759   5.609   3.161  15.207 -0.2283 -0.1520  1.1376
 2188TIP3    H230760   5.707   3.066  15.272  0.9886 -1.9287 -2.9648
 2189TIP3   OH230761   4.156   6.586  15.493  0.3850  0.1075  0.2834
 2189TIP3    H130762   4.129   6.596  15.401  0.0188 -0.2357  0.3491
 2189TIP3    H230763   4.100   6.646  15.541  1.7229  1.5683  0.1155
 2190TIP3   OH230764   5.640   6.151  17.013  0.3094  0.1657  0.1914
 2190TIP3    H130765   5.569   6.100  16.973 -0.2298 -0.3047  1.6923
 2190TIP3    H230766   5.619   6.153  17.106  1.4775  1.3228  0.4642
 2191TIP3   OH230767   0.333   3.930  16.619  0.0723 -0.2212  0.0270
 2191TIP3    H130768   0.404   3.957  16.677  0.5489  0.2467 -0.7605
 2191TIP3    H230769   0.260   3.988  16.643  0.7844  1.1507 -0.9725
 2192TIP3   OH230770   5.848   3.094  17.063 -0.4868  0.2474 -1.0239
 2192TIP3    H130771   5.829   3.137  17.146 -0.0207 -0.4197 -0.5669
 2192TIP3    H230772   5.784   3.131  17.002 -0.8302  0.7453 -0.3727
 2193TIP3   OH230773   1.520   3.251  16.530 -0.3010  0.2650 -0.5086
 2193TIP3    H130774   1.533   3.341  16.500 -1.3830  0.6420  0.0835
 2193TIP3    H230775   1.448   3.218  16.475  0.0223 -0.2078 -0.6530
 2194TIP3   OH230776   2.160   4.218  14.633  0.4680 -0.1049  0.1025
 2194TIP3    H130777   2.182   4.127  14.612 -1.5497 -0.6566  0.1761
 2194TIP3    H230778   2.066   4.224  14.616  0.7728  2.3224 -1.0728
 2195TIP3   OH230779   3.707   2.335  14.456 -0.2981 -0.0978 -0.9667
 2195TIP3    H130780   3.742   2.397  14.393  4.4955 -0.3368  1.0871
 2195TIP3    H230781   3.713   2.250  14.412  0.7945  0.0005 -1.0284
 2196TIP3   OH230782   4.052   6.004  14.790  0.2470 -0.2232 -0.3423
 2196TIP3    H130783   4.144   6.028  14.799  0.2693 -0.4399 -0.0100
 2196TIP3    H230784   4.004   6.075  14.833  0.2753 -0.3408 -0.1204
 2197TIP3   OH230785   2.215   1.558  13.815 -0.1753  0.6148 -0.0104
 2197TIP3    H130786   2.181   1.637  13.857 -1.7637 -0.7797  1.5140
 2197TIP3    H230787   2.172   1.555  13.730 -0.2231  1.2943 -0.0166
 2198TIP3   OH230788   2.771   1.698  14.841 -0.6155  0.5429 -0.3496
 2198TIP3    H130789   2.714   1.762  14.799 -1.1549  0.4523  0.2308
 2198TIP3    H230790   2.842   1.751  14.879 -1.4053  0.8898  0.7011
 2199TIP3   OH230791   4.445   4.746  14.644  0.0835  0.6532  0.5994
 2199TIP3    H130792   4.436   4.651  14.654 -0.5403  0.7119  0.6664
 2199TIP3    H230793   4.363   4.773  14.602 -0.5660  1.4129  2.2577
 2200TIP3   OH230794   2.568   1.387  16.192 -0.3767  0.3393  0.6083
 2200TIP3    H130795   2.549   1.327  16.120  0.4306 -1.4201  1.7602
 2200TIP3    H230796   2.658   1.365  16.219 -0.4791  1.2631  1.8345
 2201TIP3   OH230797   2.192   3.466  16.188 -0.4217  0.1682 -0.0146
 2201TIP3    H130798   2.138   3.497  16.116 -0.6428 -0.2526 -0.0292
 2201TIP3    H230799   2.264   3.530  16.193 -1.0863  0.9135  0.2204
 2202TIP3   OH230800   2.064   3.387  16.437  0.3174 -0.2630  0.3961
 2202TIP3    H130801   2.000   3.457  16.444  0.1696 -0.5246  1.7698
 2202TIP3    H230802   2.122   3.415  16.366 -0.9403  0.2549 -0.4626
 2203TIP3   OH230803   4.601   2.329  14.829  0.3472  0.8049 -0.4028
 2203TIP3    H130804   4.685   2.298  14.862 -0.1104  0.0696  0.1393
 2203TIP3    H230805   4.555   2.360  14.908  0.0401  1.0092 -0.6607
 2204TIP3   OH230806   2.988   2.256  15.151 -0.5422  0.1292 -0.6644
 2204TIP3    H130807   2.917   2.212  15.198 -0.4497  1.6094  0.9895
 2204TIP3    H230808   3.004   2.336  15.202  2.3344 -0.1580 -0.9210
 2205TIP3   OH230809   4.792   4.389  14.684  0.4464  0.4221 -0.1054
 2205TIP3    H130810   4.778   4.483  14.678  1.0411  0.5927  1.0159
 2205TIP3    H230811   4.746   4.353  14.608  1.7218  1.7713 -1.5765
 2206TIP3   OH230812   1.198   3.267  15.375 -0.1532 -0.5799  0.1439
 2206TIP3    H130813   1.104   3.287  15.367  0.0673  0.7515  0.5906
 2206TIP3    H230814   1.213   3.261  15.469  0.1997 -0.8538  0.0702
 2207TIP3   OH230815   5.839   3.970  17.096  0.9700 -0.2758  0.3006
 2207TIP3    H130816   5.768   3.930  17.146  1.2313  0.0070  0.9185
 2207TIP3    H230817   5.917   3.921  17.124  0.9479 -0.9423 -0.7746
 2208TIP3   OH230818   4.937   0.802  16.531  0.2625  0.1339  0.2976
 2208TIP3    H130819   5.014   0.745  16.536  0.2817  0.2017  0.8676
 2208TIP3    H230820   4.939   0.838  16.442  0.1377 -0.9027 -0.1490
 2209TIP3   OH230821   2.007   2.625  15.771  0.2110 -0.0826  0.2654
 2209TIP3    H130822   2.095   2.659  15.751  1.2361 -2.4466  0.4623
 2209TIP3    H230823   1.948   2.696  15.744  2.0105  0.6056 -2.2960
 2210TIP3   OH230824   0.021   2.229  14.923 -0.2792 -0.0574  0.0173
 2210TIP3    H130825  -0.055   2.232  14.865  0.6921 -0.4949 -1.3311
 2210TIP3    H230826  -0.014   2.254  15.009 -1.9411 -0.2838 -0.5434
 2211TIP3   OH230827   5.969   5.977  15.353  0.2363 -0.0010  0.0253
 2211TIP3    H130828   5.929   5.908  15.300 -1.9847  1.8124 -0.7930
 2211TIP3    H230829   5.948   5.953  15.444 -0.0424 -0.6634 -0.2109
 2212TIP3   OH230830   6.289   2.525  14.304 -0.0100  0.3949 -0.4297
 2212TIP3    H130831   6.274   2.560  14.392  0.0914  0.5356 -0.4664
 2212TIP3    H230832   6.316   2.601  14.252  1.5810  0.0371 -0.1756
 2213TIP3   OH230833   3.080   4.808  14.521 -0.2242 -0.1339  0.3068
 2213TIP3    H130834   3.119   4.855  14.596 -1.2850 -1.4782  1.7570
 2213TIP3    H230835   3.002   4.766  14.557 -0.1531 -1.7441 -1.3039
 2214TIP3   OH230836   6.275   6.680  14.616 -0.2301  0.4576  0.7635
 2214TIP3    H130837   6.265   6.643  14.528  2.2992  1.6843 -0.1460
 2214TIP3    H230838   6.298   6.606  14.671  0.4134 -0.0079 -0.1129
 2215TIP3   OH230839   1.393   1.021  14.560 -0.0308 -0.0766  0.0637
 2215TIP3    H130840   1.475   1.018  14.609  0.8677  0.9795 -1.2959
 2215TIP3    H230841   1.417   0.987  14.473 -1.1732 -0.2995 -0.1734
 2216TIP3   OH230842   3.368   2.227  15.560 -0.1561 -0.2825  0.0757
 2216TIP3    H130843   3.287   2.273  15.540 -0.5380  0.3304  2.6767
 2216TIP3    H230844   3.343   2.161  15.625  1.4112 -0.1186  0.8960
 2217TIP3   OH230845   1.893   1.699  14.262  0.3764  0.0413  0.0368
 2217TIP3    H130846   1.861   1.654  14.183 -2.4880  1.2169  0.4100
 2217TIP3    H230847   1.974   1.741  14.234 -0.0526 -0.3764 -2.0147
 2218TIP3   OH230848   0.724   6.153  16.722 -0.0037 -0.2644 -0.7314
 2218TIP3    H130849   0.751   6.229  16.773  0.5808 -0.5469 -0.6025
 2218TIP3    H230850   0.629   6.158  16.720 -0.0029  0.1188 -0.1770
 2219TIP3   OH230851   4.513   5.980  15.084 -0.0722 -0.2377 -0.0859
 2219TIP3    H130852   4.418   5.987  15.082 -0.0255  0.9485  0.8333
 2219TIP3    H230853   4.531   5.890  15.055 -1.4863 -0.6187  0.1291
 2220TIP3   OH230854   5.587   3.406  14.417 -0.1345 -0.3581  0.5975
 2220TIP3    H130855   5.614   3.363  14.498  0.6768 -1.2965 -0.1439
 2220TIP3    H230856   5.596   3.338  14.350 -1.0806  0.3052 -0.2434
 2221TIP3   OH230857   2.471   3.525  15.363  0.0025  0.2980  0.0995
 2221TIP3    H130858   2.550   3.568  15.395 -0.3422  0.2547  1.0319
 2221TIP3    H230859   2.406   3.536  15.433 -0.9397  0.6447 -0.7947
 2222TIP3   OH230860   6.262   0.820  15.432  0.4290 -0.2519  0.7879
 2222TIP3    H130861   6.251   0.912  15.411 -0.7868 -0.5211  0.1251
 2222TIP3    H230862   6.209   0.774  15.367 -1.1302 -1.2765  2.6471
 2223TIP3   OH230863   4.435   1.568  16.376 -0.2022  0.6584  0.0332
 2223TIP3    H130864   4.396   1.481  16.369  1.8638 -0.1775 -3.0446
 2223TIP3    H230865   4.493   1.562  16.452  1.9148 -1.6574 -1.5969
 2224TIP3   OH230866   6.441   3.036  15.074  0.2314  0.1775 -0.4619
 2224TIP3    H130867   6.364   3.062  15.023  0.3660  1.0624 -0.2251
 2224TIP3    H230868   6.406   3.018  15.162  0.4033  1.4701 -0.1040
 2225TIP3   OH230869   2.827   0.192  16.649  0.1853 -0.2781 -0.4242
 2225TIP3    H130870   2.806   0.099  16.650  1.4732 -0.6562  2.3660
 2225TIP3    H230871   2.806   0.222  16.737 -1.4183  2.4338 -1.6173
 2226TIP3   OH230872   2.515   3.399  17.114 -0.0826 -0.2115  0.0208
 2226TIP3    H130873   2.483   3.341  17.183 -1.7130 -0.6136 -1.0229
 2226TIP3    H230874   2.449   3.468  17.108 -0.5781 -0.8174 -1.9146
 2227TIP3   OH230875   0.967   1.708  14.752  0.0388  0.3673 -0.1560
 2227TIP3    H130876   0.947   1.670  14.667  0.0332  0.4185 -0.1777
 2227TIP3    H230877   1.062   1.718  14.753 -0.1250  3.6936 -1.6372
 2228TIP3   OH230878   3.037   1.212  14.404 -0.1203  0.6438 -0.1181
 2228TIP3    H130879   3.038   1.152  14.330  0.0755  1.4431 -0.7734
 2228TIP3    H230880   3.077   1.292  14.371 -0.3236  1.1205  0.7600
 2229TIP3   OH230881   2.560   1.716  13.898 -0.1949  0.4779  0.1069
 2229TIP3    H130882   2.535   1.758  13.816 -1.4834  1.9814  1.2220
 2229TIP3    H230883   2.531   1.625  13.889  0.1104  0.4984 -1.2596
 2230TIP3   OH230884   1.165   4.194  16.575 -0.2749 -0.2850  0.2379
 2230TIP3    H130885   1.094   4.193  16.639  0.1223  2.5048  0.8406
 2230TIP3    H230886   1.174   4.286  16.550  1.2410 -0.9472 -2.0047
 2231TIP3   OH230887   2.815   2.558  15.602  0.3639 -0.5404  0.1397
 2231TIP3    H130888   2.904   2.580  15.630  0.6942 -0.9752 -0.5525
 2231TIP3    H230889   2.760   2.584  15.677  1.0589 -0.2479  0.5658
 2232TIP3   OH230890   3.647   2.917  14.405 -0.1020 -0.1312  0.1693
 2232TIP3    H130891   3.700   2.850  14.447  1.4058 -0.3472 -1.9189
 2232TIP3    H230892   3.665   2.906  14.312 -1.0115  2.1881 -0.3346
 2233TIP3   OH230893   0.944   2.674  15.223  0.7539 -0.0719 -0.6917
 2233TIP3    H130894   0.863   2.683  15.274  0.8870 -2.2289  0.0267
 2233TIP3    H230895   0.915   2.649  15.136  0.5880  2.0079 -1.2811
 2234TIP3   OH230896   5.758   2.842  16.147 -0.5892 -0.6014  0.4179
 2234TIP3    H130897   5.805   2.760  16.129  0.4670  0.0523  0.1056
 2234TIP3    H230898   5.799   2.876  16.226  0.4024  0.6401 -0.5882
 2235TIP3   OH230899   6.542   1.912  14.912 -0.4141 -0.4697 -0.2258
 2235TIP3    H130900   6.503   1.976  14.854  0.7596  0.7499  0.2771
 2235TIP3    H230901   6.636   1.917  14.894 -0.2330 -1.5896  0.2829
 2236TIP3   OH230902   6.393   4.878  15.575  0.2664 -0.2632  0.3785
 2236TIP3    H130903   6.449   4.955  15.571  1.1574 -0.8922  0.3215
 2236TIP3    H230904   6.366   4.872  15.666 -0.6313  0.6685  0.1901
 2237TIP3   OH230905   3.751   5.620  15.974  0.1380  0.2442 -0.0003
 2237TIP3    H130906   3.821   5.584  16.029 -0.4752 -0.7334  0.1665
 2237TIP3    H230907   3.687   5.655  16.036  0.9096  2.0634 -0.1608
 2238TIP3   OH230908   1.937   1.859  15.192 -0.2657  0.4428  0.1180
 2238TIP3    H130909   1.991   1.888  15.266  0.3749  1.1911 -0.6145
 2238TIP3    H230910   1.997   1.857  15.117 -1.4665  2.6571 -1.0435
 2239TIP3   OH230911   2.516   6.487  16.458  0.3570  0.2769  0.4738
 2239TIP3    H130912   2.590   6.427  16.462 -0.5279 -0.9009 -0.1870
 2239TIP3    H230913   2.463   6.465  16.535 -1.7968 -2.3525 -1.5673
 2240TIP3   OH230914   5.438   1.729  15.324  0.0608  0.1622  0.0127
 2240TIP3    H130915   5.404   1.639  15.326 -0.2484  0.2773 -0.0448
 2240TIP3    H230916   5.473   1.743  15.412  0.9489 -0.3337 -0.2434
 2241TIP3   OH230917   3.813   4.885  16.204  0.1390 -0.2425 -0.0688
 2241TIP3    H130918   3.828   4.823  16.275  0.4660 -1.4156 -1.1217
 2241TIP3    H230919   3.720   4.908  16.212  0.0461 -0.7622  0.4325
 2242TIP3   OH230920   1.061   1.203  14.235 -0.3818  0.5030 -0.2640
 2242TIP3    H130921   0.973   1.235  14.254 -0.2316  1.0566 -0.4985
 2242TIP3    H230922   1.059   1.179  14.142 -0.6762 -0.7823  0.0473
 2243TIP3   OH230923   4.985   3.017  14.597 -0.2776  0.4843 -0.1955
 2243TIP3    H130924   5.043   3.032  14.522  0.1988 -0.3229 -0.0045
 2243TIP3    H230925   5.034   2.958  14.654 -1.6790 -1.0994 -0.5456
 2244TIP3   OH230926   0.950   1.790  13.783 -0.8903  0.4282 -0.1677
 2244TIP3    H130927   0.911   1.849  13.718  2.7066  0.4081 -2.6951
 2244TIP3    H230928   1.013   1.845  13.830  0.1298 -0.6477 -0.2254
 2245TIP3   OH230929   4.494   6.194  15.837  0.2519  0.2191  0.0722
 2245TIP3    H130930   4.492   6.199  15.741 -2.3176  1.0377  0.0759
 2245TIP3    H230931   4.538   6.275  15.864 -1.8762  1.6298 -0.4462
 2246TIP3   OH230932   5.250   5.554  17.018 -0.3091 -0.1426  0.6547
 2246TIP3    H130933   5.253   5.538  16.924  1.1127  1.6470  0.3346
 2246TIP3    H230934   5.335   5.524  17.050 -0.1192  0.7878  1.0640
 2247TIP3   OH230935   2.488   2.995  16.406 -0.0484  0.5087  0.3324
 2247TIP3    H130936   2.453   2.949  16.483 -2.0314  1.1886 -0.1113
 2247TIP3    H230937   2.414   3.045  16.373  1.1237  1.2305 -1.2905
 2248TIP3   OH230938   1.323   5.120  16.673  0.0441 -0.3111  0.3671
 2248TIP3    H130939   1.365   5.205  16.658 -0.3866 -0.2313 -0.5110
 2248TIP3    H230940   1.348   5.067  16.597 -2.1668  0.0550 -0.7113
 2249TIP3   OH230941   2.555   5.128  14.888  0.0537 -0.2239 -0.5003
 2249TIP3    H130942   2.535   5.037  14.906  0.8855 -0.2601  0.3213
 2249TIP3    H230943   2.631   5.147  14.943 -0.4715  1.1315 -0.2069
 2250TIP3   OH230944   0.870   2.497  14.994 -0.1156 -0.5329  0.1638
 2250TIP3    H130945   0.776   2.508  14.979 -0.4518 -3.1082 -0.1515
 2250TIP3    H230946   0.876   2.460  15.083  0.6816  0.4489  0.5303
 2251TIP3   OH230947   5.539   0.702  16.839  0.0101  0.6624 -0.0883
 2251TIP3    H130948   5.556   0.728  16.748  2.0694  1.3923  0.4622
 2251TIP3    H230949   5.535   0.606  16.836 -0.7218  0.7024 -1.0476
 2252TIP3   OH230950   4.600   0.648  14.442  0.0863 -0.2533 -0.5758
 2252TIP3    H130951   4.624   0.618  14.529 -1.7829  1.1646  0.4993
 2252TIP3    H230952   4.599   0.744  14.449  0.4308 -0.0831 -2.3148
 2253TIP3   OH230953   0.647   1.806  13.534 -0.4053  0.2892  0.1230
 2253TIP3    H130954   0.713   1.873  13.556  0.3817 -0.2904 -0.4119
 2253TIP3    H230955   0.586   1.808  13.608 -0.0557  1.1773  0.4066
 2254TIP3   OH230956   4.509   3.316  16.400  0.3035  0.3531  0.3122
 2254TIP3    H130957   4.504   3.312  16.304  1.9938 -1.2073  0.2245
 2254TIP3    H230958   4.420   3.337  16.428 -0.3923  0.1045 -1.5710
 2255TIP3   OH230959   6.014   6.699  16.778 -0.2121 -0.4751  0.3457
 2255TIP3    H130960   5.944   6.706  16.714 -0.4798 -0.9345  0.5843
 2255TIP3    H230961   6.033   6.605  16.784  1.2478 -0.2670 -0.5879
 2256TIP3   OH230962   5.971   4.574  14.207  0.2130  0.0845 -0.2039
 2256TIP3    H130963   6.033   4.646  14.195 -0.2221  0.2210 -1.8548
 2256TIP3    H230964   5.984   4.547  14.298 -0.2889  2.8323  0.7816
 2257TIP3   OH230965   3.083   3.938  15.260  0.0377 -0.3095  0.4005
 2257TIP3    H130966   3.074   4.028  15.227 -0.1400 -0.5185 -0.1284
 2257TIP3    H230967   3.159   3.942  15.318  0.0329  0.1829  0.3823
 2258TIP3   OH230968   0.132   4.691  16.130  0.1889  0.0917  0.3056
 2258TIP3    H130969   0.225   4.672  16.138  0.4467  0.7282 -0.9167
 2258TIP3    H230970   0.092   4.607  16.110  0.4810 -0.1987  0.9052
 2259TIP3   OH230971   0.059   0.870  15.492  0.2176  0.5691  0.4107
 2259TIP3    H130972   0.154   0.878  15.495  0.2977 -0.3711  0.7939
 2259TIP3    H230973   0.037   0.885  15.400  0.9553 -1.1958 -0.1029
 2260TIP3   OH230974   3.159   2.930  15.014 -0.3058  0.0452 -0.0084
 2260TIP3    H130975   3.233   2.989  15.029  1.0694 -1.9917  2.0954
 2260TIP3    H230976   3.188   2.873  14.943 -1.1996  1.1707 -1.3180
 2261TIP3   OH230977   2.759   1.188  16.635  0.0477  0.0832 -0.2619
 2261TIP3    H130978   2.812   1.172  16.713 -0.1961 -0.0254 -0.1199
 2261TIP3    H230979   2.811   1.250  16.584 -0.1087  0.6988  0.3118
 2262TIP3   OH230980   6.538   1.856  16.192 -0.4734  0.2162 -0.1328
 2262TIP3    H130981   6.596   1.881  16.264 -1.0225 -1.0927  0.8149
 2262TIP3    H230982   6.586   1.881  16.113  1.4091 -0.8030  0.6105
 2263TIP3   OH230983   0.702   6.733  14.524  0.1386  0.5097  0.1595
 2263TIP3    H130984   0.740   6.681  14.595  1.7240 -0.6110 -1.4245
 2263TIP3    H230985   0.742   6.819  14.534 -0.1484  0.5499  1.0071
 2264TIP3   OH230986   0.103   2.545  14.130  0.0061  0.0181  0.1729
 2264TIP3    H130987   0.166   2.540  14.202 -0.5458 -0.5669  0.6272
 2264TIP3    H230988   0.153   2.581  14.056  1.0193 -0.9758  0.3605
 2265TIP3   OH230989   5.996   1.516  15.977  0.7349  0.3108 -0.0128
 2265TIP3    H130990   5.921   1.567  15.947  0.5814 -0.3331 -0.7644
 2265TIP3    H230991   6.071   1.554  15.930  0.7331  0.3496  0.0160
 2266TIP3   OH230992   1.442   6.753  14.653 -0.2196 -0.0853 -0.7278
 2266TIP3    H130993   1.514   6.729  14.595  1.4109 -0.6679  1.3960
 2266TIP3    H230994   1.483   6.768  14.738 -2.1203  3.3402 -0.2259
 2267TIP3   OH230995   3.516   1.992  16.395  0.3460  0.2445 -0.4676
 2267TIP3    H130996   3.577   2.060  16.423  0.6314 -0.2473  0.1416
 2267TIP3    H230997   3.547   1.912  16.438  2.0942 -1.1045 -3.8470
 2268TIP3   OH230998   2.236   2.185  14.753  0.2073  0.3788  0.3720
 2268TIP3    H130999   2.164   2.148  14.805 -1.0468 -1.0818 -2.2360
 2268TIP3    H231000   2.240   2.277  14.780 -2.0398  0.2801  1.2631
 2269TIP3   OH231001   1.336   4.642  17.197 -0.1998  0.1561  0.4723
 2269TIP3    H131002   1.358   4.735  17.196  0.2487  0.0562  0.8567
 2269TIP3    H231003   1.419   4.597  17.185 -0.0761 -0.2310  2.4623
 2270TIP3   OH231004   2.864   2.329  17.091  0.3407 -0.5742 -0.0506
 2270TIP3    H131005   2.838   2.273  17.017 -0.4357  0.2842 -0.4532
 2270TIP3    H231006   2.896   2.269  17.157 -0.5921 -1.5076 -0.4286
 2271TIP3   OH231007   0.688   3.190  15.226 -0.2660 -0.4810  0.3464
 2271TIP3    H131008   0.654   3.125  15.164 -1.5965  1.4461 -1.0803
 2271TIP3    H231009   0.610   3.235  15.258  0.5873  0.0683  1.7130
 2272TIP3   OH231010   3.802   2.273  17.385  0.0231  0.2863 -0.0290
 2272TIP3    H131011   3.857   2.257  17.462  0.0272  0.8938  0.0945
 2272TIP3    H231012   3.751   2.350  17.407  0.3542  0.7410 -0.8123
 2273TIP3   OH231013   0.809   6.687  14.766 -0.0963  0.1142 -0.6880
 2273TIP3    H131014   0.818   6.608  14.819 -0.3709  0.9658  0.6853
 2273TIP3    H231015   0.872   6.748  14.803 -2.4303  1.8050  0.8197
 2274TIP3   OH231016   0.254   4.635  15.662  0.2838  0.1836  0.1645
 2274TIP3    H131017   0.178   4.625  15.604  1.0819  0.1541 -0.8835
 2274TIP3    H231018   0.225   4.595  15.744 -0.5869 -0.4825 -0.4387
 2275TIP3   OH231019   1.855   4.314  14.072 -0.3136 -0.0277  0.2514
 2275TIP3    H131020   1.924   4.357  14.022 -0.2488  0.5652  0.8407
 2275TIP3    H231021   1.899   4.278  14.149 -0.5307 -0.3060  0.2446
 2276TIP3   OH231022   3.496   3.412  14.472  0.3051 -0.0484  0.1120
 2276TIP3    H131023   3.519   3.320  14.476 -0.0433 -0.1644 -0.3984
 2276TIP3    H231024   3.560   3.451  14.411 -0.5811 -0.3004 -1.0227
 2277TIP3   OH231025   2.367   2.164  15.400 -0.1864 -0.0893  0.1225
 2277TIP3    H131026   2.378   2.161  15.495  0.0002  0.5310  0.1205
 2277TIP3    H231027   2.455   2.146  15.366 -0.0916  0.4588  0.0744
 2278TIP3   OH231028   5.909   5.890  14.625  0.2577  0.4326  0.0274
 2278TIP3    H131029   5.882   5.959  14.565  0.2276  0.8552  0.5227
 2278TIP3    H231030   5.827   5.861  14.666  0.1959 -0.2795 -0.5725
 2279TIP3   OH231031   3.052   6.053  14.393  0.3495  0.2359  0.1705
 2279TIP3    H131032   3.115   6.120  14.419 -1.1970  2.5483 -1.6296
 2279TIP3    H231033   3.067   6.040  14.300  1.5008 -3.0612  0.6809
 2280TIP3   OH231034   3.404   5.878  15.757 -0.1753 -0.3346  0.2168
 2280TIP3    H131035   3.310   5.877  15.738  0.1634 -2.4179 -1.8525
 2280TIP3    H231036   3.440   5.946  15.699 -0.0348 -2.0127 -1.7997
 2281TIP3   OH231037   3.174   0.795  16.582  0.1780  0.0597 -0.2876
 2281TIP3    H131038   3.238   0.724  16.569  0.3440  0.3054 -0.8744
 2281TIP3    H231039   3.092   0.759  16.548  0.3725  0.3108 -1.0675
 2282TIP3   OH231040   2.101   5.726  16.188  0.2503  0.2607  0.0038
 2282TIP3    H131041   2.136   5.786  16.122  0.4913 -0.8000 -0.8538
 2282TIP3    H231042   2.030   5.776  16.229  1.5168  1.7362  0.4683
 2283TIP3   OH231043   1.898   1.206  16.684  0.4356  0.6794  0.1196
 2283TIP3    H131044   1.814   1.223  16.728  0.2022 -0.4412  0.1500
 2283TIP3    H231045   1.963   1.251  16.738 -0.1866  2.0142 -0.2037
 2284TIP3   OH231046   2.755   0.873  16.394 -0.3880  0.0567 -0.0834
 2284TIP3    H131047   2.723   0.937  16.457  1.5254 -0.5297  1.6129
 2284TIP3    H231048   2.839   0.908  16.365 -0.6203 -0.3504 -1.2966
 2285TIP3   OH231049   0.577   1.973  14.897 -0.7311 -0.1046 -0.2413
 2285TIP3    H131050   0.646   1.978  14.831 -1.9260  2.2318 -1.4720
 2285TIP3    H231051   0.504   1.929  14.853 -0.5847 -1.1301  0.5140
 2286TIP3   OH231052   6.439   6.430  14.497  0.3139 -0.4294  0.0148
 2286TIP3    H131053   6.458   6.522  14.514  1.2760 -0.5772 -0.1950
 2286TIP3    H231054   6.391   6.400  14.574 -0.9692  0.5120 -0.3794
 2287TIP3   OH231055   3.731   1.113  16.069  0.2757  0.1159  0.1436
 2287TIP3    H131056   3.697   1.045  16.127  1.7020 -0.2500  0.5895
 2287TIP3    H231057   3.772   1.176  16.128  2.3760 -0.6149 -0.4416
 2288TIP3   OH231058   5.594   3.091  14.818 -0.0875  0.5381  0.4246
 2288TIP3    H131059   5.612   3.180  14.849  1.6322  0.6773 -0.8335
 2288TIP3    H231060   5.670   3.040  14.845  0.2976  0.1213 -1.3142
 2289TIP3   OH231061   1.127   6.027  15.524  0.0627  0.1016 -0.1330
 2289TIP3    H131062   1.101   5.945  15.483  1.7107  0.7027 -2.6012
 2289TIP3    H231063   1.158   6.002  15.611  2.0816 -2.2114 -1.3786
 2290TIP3   OH231064   0.259   0.586  13.723  0.6996 -0.3300  0.5797
 2290TIP3    H131065   0.304   0.503  13.731  0.7128 -0.2334  1.6265
 2290TIP3    H231066   0.328   0.649  13.701  0.7920 -0.4797  0.4404
 2291TIP3   OH231067   2.066   1.903  15.409  0.1862  0.3998 -0.8640
 2291TIP3    H131068   2.039   1.918  15.499 -1.5626  0.6874 -1.3934
 2291TIP3    H231069   2.082   1.809  15.404 -2.3655 -0.1053 -0.8669
 2292TIP3   OH231070   0.776   1.151  15.251 -0.2626  0.2579 -0.5408
 2292TIP3    H131071   0.694   1.172  15.207  0.2056 -0.3548 -1.7364
 2292TIP3    H231072   0.754   1.149  15.344 -1.9397 -1.3299 -0.9320
 2293TIP3   OH231073   1.940   4.502  14.451  0.0855 -0.0007  0.0167
 2293TIP3    H131074   1.951   4.535  14.362 -1.0868  0.5292  0.0517
 2293TIP3    H231075   1.945   4.580  14.507  2.2552 -0.4824  0.5877
 2294TIP3   OH231076   3.511   6.700  15.373 -0.3170  0.0862  0.6669
 2294TIP3    H131077   3.467   6.684  15.456 -0.4699 -1.6414  0.2816
 2294TIP3    H231078   3.600   6.668  15.386 -0.0051  0.8374  0.4934
 2295TIP3   OH231079   5.949   2.103  14.446 -0.1530  0.0152 -0.2818
 2295TIP3    H131080   5.893   2.132  14.374 -0.5265  1.2069  0.4510
 2295TIP3    H231081   5.890   2.097  14.521  0.0601 -2.0626 -0.2445
 2296TIP3   OH231082   2.125   2.413  17.238  0.7118  0.2383 -0.0736
 2296TIP3    H131083   2.040   2.382  17.209  0.2395  1.4433 -0.0129
 2296TIP3    H231084   2.123   2.404  17.333  0.6772  0.2227 -0.0751
 2297TIP3   OH231085   5.424   0.765  15.966 -0.0113  0.4718  0.4897
 2297TIP3    H131086   5.464   0.726  15.889 -0.6155 -1.0488  0.9027
 2297TIP3    H231087   5.334   0.784  15.939  0.2674  1.5800  0.3037
 2298TIP3   OH231088   0.597   1.956  16.859  0.2338 -0.2561 -0.5967
 2298TIP3    H131089   0.519   1.945  16.912 -0.0651 -1.0826 -1.1817
 2298TIP3    H231090   0.566   1.998  16.779  0.4433 -0.3028 -0.7039
 2299TIP3   OH231091   6.527   2.215  16.283  0.4239 -0.0968  0.3927
 2299TIP3    H131092   6.513   2.306  16.310  0.2555 -0.0234  0.0685
 2299TIP3    H231093   6.541   2.221  16.188  2.7955 -0.1375  0.6778
 2300TIP3   OH231094   1.331   1.968  15.026 -0.7564  0.0786  0.7581
 2300TIP3    H131095   1.298   1.879  15.016  0.5742 -0.3504 -0.1371
 2300TIP3    H231096   1.343   1.979  15.120  2.2543 -1.9728  0.7778
 2301TIP3   OH231097   0.623   5.005  15.372 -0.3187  0.5640 -0.0860
 2301TIP3    H131098   0.596   5.090  15.406  0.3093  0.6397  0.2371
 2301TIP3    H231099   0.690   5.025  15.307 -2.0962  0.4829 -2.0606
 2302TIP3   OH231100   0.428   1.130  16.594 -0.2270  0.1381  0.3842
 2302TIP3    H131101   0.422   1.184  16.515 -1.3518  0.2625  0.5391
 2302TIP3    H231102   0.512   1.154  16.633  0.4607 -0.0952 -0.8886
 2303TIP3   OH231103   2.145   4.661  14.844 -0.1176 -0.0571 -0.2263
 2303TIP3    H131104   2.063   4.701  14.817 -0.4333 -1.0026 -0.7278
 2303TIP3    H231105   2.193   4.731  14.888 -0.9890  0.6309 -0.3452
 2304TIP3   OH231106   3.170   0.796  13.765  0.1399 -0.2635  0.8895
 2304TIP3    H131107   3.134   0.842  13.689  0.1234  0.3011  1.2348
 2304TIP3    H231108   3.140   0.706  13.755  1.0862 -0.4772 -0.3845
 2305TIP3   OH231109   1.755   4.054  14.982 -0.6787 -0.0961 -0.1788
 2305TIP3    H131110   1.817   4.062  14.909 -1.6533  0.4569 -0.9648
 2305TIP3    H231111   1.811   4.053  15.060  0.3749 -0.5342 -0.9099
 2306TIP3   OH231112   2.899   0.816  15.903 -0.3481  0.0464  0.2777
 2306TIP3    H131113   2.863   0.769  15.978  0.6581 -0.3058  0.5542
 2306TIP3    H231114   2.930   0.748  15.843  0.3233  0.3339  0.2858
 2307TIP3   OH231115   0.709   5.776  15.787 -0.4076 -0.4849  0.2020
 2307TIP3    H131116   0.718   5.801  15.695  0.4904  0.1132  0.4416
 2307TIP3    H231117   0.718   5.681  15.787 -0.6149 -0.5108 -0.3453
 2308TIP3   OH231118   2.579   2.632  16.306  0.6880  0.1558 -0.2061
 2308TIP3    H131119   2.548   2.619  16.216  1.9408 -2.5733 -0.3493
 2308TIP3    H231120   2.500   2.657  16.355 -0.4066 -0.2269 -1.6982
 2309TIP3   OH231121   6.474   1.252  16.633 -0.1857 -0.0071  0.4970
 2309TIP3    H131122   6.523   1.195  16.692  0.3911  0.1233  0.1492
 2309TIP3    H231123   6.539   1.281  16.568 -1.1451 -1.5063 -1.2272
 2310TIP3   OH231124   5.333   1.393  15.350  0.3542 -0.2905  0.5191
 2310TIP3    H131125   5.310   1.449  15.424 -0.6660  1.5429 -1.1180
 2310TIP3    H231126   5.251   1.377  15.304  0.8640 -1.9310  0.0803
 2311TIP3   OH231127   5.019   0.314  16.844  0.4249 -0.6293 -0.3131
 2311TIP3    H131128   5.098   0.316  16.790  0.5712 -1.3926 -0.1470
 2311TIP3    H231129   5.001   0.220  16.855 -1.4925 -0.4840 -1.7665
 2312TIP3   OH231130   0.822   2.138  16.626  0.0163  0.1018 -0.0827
 2312TIP3    H131131   0.839   2.203  16.557 -0.7169 -1.4917 -1.8460
 2312TIP3    H231132   0.728   2.144  16.642 -0.0107 -0.3647 -0.0720
 2313TIP3   OH231133   5.265   1.446  16.404  0.0282 -0.1596 -0.3807
 2313TIP3    H131134   5.317   1.472  16.480 -2.0366  2.1080  0.3843
 2313TIP3    H231135   5.320   1.468  16.329  1.4933 -1.0338  0.3870
 2314TIP3   OH231136   3.899   5.731  16.385  0.4463  0.1706 -0.7343
 2314TIP3    H131137   3.816   5.772  16.406 -0.4586 -0.3068 -3.0552
 2314TIP3    H231138   3.937   5.786  16.316  2.3462  0.6650  0.6118
 2315TIP3   OH231139   3.241   4.638  16.641 -0.6612 -0.3098  0.1286
 2315TIP3    H131140   3.214   4.728  16.622 -0.7752 -0.0537  1.4227
 2315TIP3    H231141   3.335   4.637  16.624 -0.7952 -0.1726 -0.6656
 2316TIP3   OH231142   1.681   4.031  15.877  0.2863  0.2901  0.3437
 2316TIP3    H131143   1.773   4.030  15.904  1.0298  1.1220 -1.9302
 2316TIP3    H231144   1.675   4.104  15.816 -1.2756 -1.2424 -1.4780
 2317TIP3   OH231145   5.545   0.402  15.222  0.1590 -0.1326  0.2195
 2317TIP3    H131146   5.480   0.468  15.198  0.0475 -0.7478 -1.2667
 2317TIP3    H231147   5.628   0.448  15.218  0.1930 -0.3013 -1.8802
 2318TIP3   OH231148   6.684   2.273  16.639  0.0708  0.7613  0.3199
 2318TIP3    H131149   6.659   2.203  16.579 -0.3231  0.3666  0.9278
 2318TIP3    H231150   6.733   2.228  16.708  1.0189  1.2923  0.0061
 2319TIP3   OH231151   2.546   0.215  15.068 -0.0617 -0.5231  0.0223
 2319TIP3    H131152   2.567   0.295  15.116 -1.1436 -0.2663  0.0864
 2319TIP3    H231153   2.630   0.187  15.032 -0.0250  2.0919 -2.2544
 2320TIP3   OH231154   0.712   6.529  17.199  0.7908  0.3190 -0.2651
 2320TIP3    H131155   0.731   6.602  17.141 -0.0848  1.4375  0.7952
 2320TIP3    H231156   0.796   6.488  17.215  1.3887  1.4345 -0.4520
 2321TIP3   OH231157   1.854   3.376  15.873 -0.3871 -0.1814 -0.2581
 2321TIP3    H131158   1.847   3.390  15.779 -0.7416 -0.3173 -0.2530
 2321TIP3    H231159   1.796   3.303  15.891 -0.6417  0.1101  0.1271
 2322TIP3   OH231160   4.674   2.961  16.699 -0.0547 -0.3169 -0.9363
 2322TIP3    H131161   4.646   3.053  16.700  0.8136 -0.0473 -0.5698
 2322TIP3    H231162   4.685   2.940  16.607 -1.9499 -0.5954 -1.1380
 2323TIP3   OH231163   6.362   4.291  15.814  0.6305  0.0468  0.4641
 2323TIP3    H131164   6.305   4.333  15.878  1.4492  3.3836 -0.7668
 2323TIP3    H231165   6.319   4.307  15.730  1.5864 -0.6417 -0.1827
 2324TIP3   OH231166   4.958   4.258  15.084  0.3541  0.1164  0.2221
 2324TIP3    H131167   4.972   4.285  14.993 -0.7214 -0.8742 -0.2680
 2324TIP3    H231168   4.908   4.330  15.123  0.7770  0.5218  0.0142
 2325TIP3   OH231169   3.478   1.171  14.217 -0.0310 -0.0489  0.2562
 2325TIP3    H131170   3.395   1.211  14.191  0.3632  2.2093  2.1734
 2325TIP3    H231171   3.545   1.235  14.192  0.6571  0.4934  3.1103
 2326TIP3   OH231172   0.329   2.050  15.604  0.2044  0.2063  0.4491
 2326TIP3    H131173   0.342   2.108  15.679  3.0815  1.0025 -0.5251
 2326TIP3    H231174   0.340   2.106  15.528 -1.1883 -0.8643 -0.5837
 2327TIP3   OH231175   4.958   2.018  13.245 -0.6659 -0.2584  0.1898
 2327TIP3    H131176   4.892   2.006  13.178  0.5689 -0.6526 -0.9999
 2327TIP3    H231177   4.960   1.936  13.293  0.5697 -1.1646 -1.3087
 2328TIP3   OH231178   3.201   3.534  15.049  0.1155 -0.4372  0.7573
 2328TIP3    H131179   3.198   3.439  15.047  1.4475 -0.5175  1.2447
 2328TIP3    H231180   3.294   3.554  15.061 -0.0754  0.9322  0.1240
 2329TIP3   OH231181   4.695   2.723   6.006  0.0091 -0.3167  0.6113
 2329TIP3    H131182   4.688   2.653   6.070 -0.9262  0.1099  0.9896
 2329TIP3    H231183   4.773   2.701   5.955 -0.2059 -1.5744  0.7896
 2330TIP3   OH231184   2.172   3.399  15.323  0.2154  0.3369 -0.6160
 2330TIP3    H131185   2.219   3.324  15.360 -2.7798 -1.1165  0.5554
 2330TIP3    H231186   2.195   3.399  15.231 -0.0686 -2.4041 -0.7625
 2331TIP3   OH231187   1.439   2.365  16.207  0.0863 -0.0868  0.1811
 2331TIP3    H131188   1.475   2.280  16.181 -0.4489 -0.1072 -0.5413
 2331TIP3    H231189   1.347   2.361  16.179 -0.6146 -0.1817  2.3262
 2332TIP3   OH231190   0.777   5.280  16.335  0.0522 -0.1242 -0.4963
 2332TIP3    H131191   0.746   5.309  16.249  0.9502  1.0964 -0.4233
 2332TIP3    H231192   0.697   5.274  16.388 -0.8249 -2.9596 -1.9298
 2333TIP3   OH231193   2.832   0.651  16.099 -0.0080 -0.3211 -0.3302
 2333TIP3    H131194   2.753   0.662  16.152 -0.3404  0.2152 -0.9188
 2333TIP3    H231195   2.902   0.637  16.162 -0.5023 -0.3610  0.2186
 2334TIP3   OH231196   2.626   1.570  15.196  0.0051 -0.3637 -0.0697
 2334TIP3    H131197   2.657   1.659  15.180 -1.2718 -0.2009 -1.9795
 2334TIP3    H231198   2.542   1.566  15.149 -0.1986 -2.4201  0.4107
 2335TIP3   OH231199   0.442   0.180  12.841  0.3447  0.1740 -0.1019
 2335TIP3    H131200   0.399   0.236  12.776 -1.1777  0.2678  0.9132
 2335TIP3    H231201   0.416   0.218  12.925 -1.0485 -2.2201  0.6471
 2336TIP3   OH231202   3.580   0.880  13.848 -0.2329  0.6563 -0.0771
 2336TIP3    H131203   3.494   0.840  13.842 -0.2458  0.8319 -1.2956
 2336TIP3    H231204   3.615   0.850  13.932 -1.2392  0.1226  0.1630
 2337TIP3   OH231205   4.197   6.122  16.988 -0.3069  0.6334 -0.0797
 2337TIP3    H131206   4.180   6.037  17.029 -2.0946  0.1646 -1.6100
 2337TIP3    H231207   4.111   6.165  16.988  0.5950  2.5069  0.7577
 2338TIP3   OH231208   1.916   4.893  14.807 -1.0122 -0.3435 -0.1149
 2338TIP3    H131209   1.911   4.885  14.712 -0.9369 -2.3512 -0.0003
 2338TIP3    H231210   1.861   4.822  14.839 -0.3472 -0.2332  1.3354
 2339TIP3   OH231211   0.677   5.865  16.852 -0.3487 -0.0044  0.9849
 2339TIP3    H131212   0.694   5.956  16.826  0.9745  0.3423  2.9022
 2339TIP3    H231213   0.736   5.813  16.798 -0.0021  0.4142  0.9562
 2340TIP3   OH231214   5.651   4.371  14.670  0.1440  0.0810 -0.0449
 2340TIP3    H131215   5.584   4.304  14.688  0.9249 -0.9007 -0.6759
 2340TIP3    H231216   5.621   4.414  14.591 -0.1889  0.2461  0.1692
 2341TIP3   OH231217   1.694   1.115  16.264  0.6873 -0.6146  0.7593
 2341TIP3    H131218   1.778   1.152  16.235  0.8817 -3.0974 -2.4446
 2341TIP3    H231219   1.630   1.184  16.246  1.6605  0.1174  0.0054
 2342TIP3   OH231220   3.598   6.433  14.687  0.3212  0.4114  0.0925
 2342TIP3    H131221   3.593   6.338  14.685  0.5107  0.3999  0.0971
 2342TIP3    H231222   3.677   6.452  14.739  0.9847  0.5472 -0.9311
 2343TIP3   OH231223   0.920   5.261  14.816  0.0859  0.3495 -0.0359
 2343TIP3    H131224   0.998   5.215  14.846 -1.0209 -0.7000  1.3288
 2343TIP3    H231225   0.953   5.345  14.785  1.8438 -0.3677 -0.2326
 2344TIP3   OH231226   4.026   1.076  14.142 -0.0402 -0.4555  0.3580
 2344TIP3    H131227   4.035   1.164  14.178  0.1318 -1.3042  2.5682
 2344TIP3    H231228   3.937   1.073  14.105  0.0306  0.6818  0.0822
 2345TIP3   OH231229   1.098   6.257  15.756 -0.0117  0.0393  0.5467
 2345TIP3    H131230   1.156   6.191  15.718 -0.9923  0.0252 -0.9973
 2345TIP3    H231231   1.010   6.221  15.744 -0.8126  2.6056 -2.5722
 2346TIP3   OH231232   3.775   3.525  13.656 -0.3845 -0.6776 -0.5480
 2346TIP3    H131233   3.695   3.569  13.628 -1.0081 -1.9711 -0.8979
 2346TIP3    H231234   3.843   3.592  13.650 -1.6756  0.9162  1.2510
 2347TIP3   OH231235   6.595   5.731  15.731  0.1808 -0.4724  0.5180
 2347TIP3    H131236   6.685   5.714  15.762  0.2345  0.6460  1.0328
 2347TIP3    H231237   6.606   5.788  15.655 -0.0319 -1.9028 -0.6284
 2348TIP3   OH231238   1.006   0.292  14.774 -0.4962  0.1277  0.4098
 2348TIP3    H131239   1.099   0.268  14.778  0.0626  1.8186 -1.1411
 2348TIP3    H231240   0.979   0.296  14.866  1.1040  0.1372  0.9143
 2349TIP3   OH231241   6.186   6.339  14.355 -0.0878  0.4419 -0.2060
 2349TIP3    H131242   6.255   6.392  14.393 -0.9122  1.1995  0.2630
 2349TIP3    H231243   6.202   6.341  14.261  1.1148 -0.2484 -0.0378
 2350TIP3   OH231244   6.202   3.601  15.237  0.2391  0.2971 -0.3427
 2350TIP3    H131245   6.208   3.528  15.298 -0.9720  1.6276  1.4423
 2350TIP3    H231246   6.255   3.670  15.277  0.4801  0.7860 -1.4630
 2351TIP3   OH231247   2.281   5.396  15.325 -0.1216  0.2291 -0.2138
 2351TIP3    H131248   2.303   5.487  15.345 -0.7121  0.1532  0.8149
 2351TIP3    H231249   2.227   5.402  15.246  0.3768  0.7029 -0.5340
 2352TIP3   OH231250   0.501   2.876  14.653  0.1255 -0.7199 -0.2666
 2352TIP3    H131251   0.459   2.875  14.567  0.6580  0.7810 -0.5704
 2352TIP3    H231252   0.594   2.890  14.634  0.0955  0.7975  0.5900
 2353TIP3   OH231253   2.451   0.557  16.516 -0.4130  0.0288 -0.7620
 2353TIP3    H131254   2.432   0.634  16.570 -0.0285  0.0246 -0.6237
 2353TIP3    H231255   2.425   0.483  16.570  0.0207  0.0223 -0.5615
 2354TIP3   OH231256   2.514   4.375  14.572 -0.6226 -0.8400 -0.2151
 2354TIP3    H131257   2.444   4.439  14.556 -0.8092 -1.3518 -1.6100
 2354TIP3    H231258   2.469   4.300  14.612 -0.3590 -0.0415  1.6918
 2355TIP3   OH231259   4.666   5.182  15.905  0.3466  0.3783  0.2578
 2355TIP3    H131260   4.587   5.138  15.875 -0.6970  1.0433  1.8822
 2355TIP3    H231261   4.709   5.213  15.825 -1.4027  0.6251 -0.6207
 2356TIP3   OH231262   3.373   6.019  14.721 -0.2950 -0.2566 -0.3866
 2356TIP3    H131263   3.348   6.100  14.765 -0.3921 -1.4256  1.8331
 2356TIP3    H231264   3.290   5.973  14.706 -0.1134 -0.6952 -0.0756
 2357TIP3   OH231265   0.845   2.943  14.075 -0.1993  0.6270  0.0644
 2357TIP3    H131266   0.928   2.980  14.045  0.9104 -0.5247  1.5716
 2357TIP3    H231267   0.838   2.859  14.029  0.0226  0.2412  0.7121
 2358TIP3   OH231268   2.958   1.507  14.884 -0.6668  0.0597 -0.0732
 2358TIP3    H131269   2.986   1.565  14.955  2.0133  0.1282 -1.0838
 2358TIP3    H231270   2.875   1.545  14.853 -0.5317  1.5499  1.2555
 2359TIP3   OH231271   5.404   2.128  16.506  0.6034  0.5584  0.0498
 2359TIP3    H131272   5.488   2.143  16.549 -0.0777  2.6795  0.8208
 2359TIP3    H231273   5.339   2.140  16.576 -0.3667 -1.5781 -0.3966
 2360TIP3   OH231274   4.978   0.730  14.933  0.0838 -0.1964 -0.0272
 2360TIP3    H131275   5.073   0.735  14.927  0.0375  0.5673 -0.2763
 2360TIP3    H231276   4.947   0.748  14.845 -0.3471  2.3180  0.5506
 2361TIP3   OH231277   3.463   1.890  13.252  0.1338  0.2323  0.5666
 2361TIP3    H131278   3.513   1.962  13.289  1.3361  0.0949 -0.6990
 2361TIP3    H231279   3.523   1.816  13.254 -0.6860 -0.4375  0.7733
 2362TIP3   OH231280   3.915   4.492  15.950  0.8103 -0.5012  0.0588
 2362TIP3    H131281   3.820   4.491  15.966  0.8224 -0.1763  0.1609
 2362TIP3    H231282   3.954   4.506  16.036  0.8764  1.2491 -0.2169
 2363TIP3   OH231283   4.278   1.893  14.220 -0.4483 -0.7321 -0.2111
 2363TIP3    H131284   4.225   1.883  14.141 -0.9008 -1.3092  0.1590
 2363TIP3    H231285   4.236   1.965  14.268 -0.4367 -0.6766 -0.2834
 2364TIP3   OH231286   4.210   6.461  14.032  0.5252 -0.2830  0.0755
 2364TIP3    H131287   4.119   6.458  14.003  0.5355 -0.8557  0.1032
 2364TIP3    H231288   4.260   6.481  13.953  0.5082 -1.3793 -0.2241
 2365TIP3   OH231289   4.204   2.242  16.175  0.2809  0.6512 -0.0233
 2365TIP3    H131290   4.129   2.284  16.218  0.0981 -0.1596  0.4787
 2365TIP3    H231291   4.278   2.259  16.233 -0.1878 -1.4674  1.3331
 2366TIP3   OH231292   3.443   0.151  15.656  0.6440  0.2086  0.5864
 2366TIP3    H131293   3.533   0.182  15.662  0.5141  0.6495  0.2825
 2366TIP3    H231294   3.413   0.178  15.570  0.1525  0.2476  0.7621
 2367TIP3   OH231295   4.552   5.813  14.399 -0.3995 -0.5471  1.1438
 2367TIP3    H131296   4.523   5.749  14.334 -1.1741 -1.3010  2.1865
 2367TIP3    H231297   4.472   5.860  14.422  0.3228  1.5663 -0.3565
 2368TIP3   OH231298   0.983   1.499  15.067  0.2909 -0.8901  0.4537
 2368TIP3    H131299   0.971   1.404  15.064  1.6839 -1.0676 -0.2890
 2368TIP3    H231300   0.963   1.523  15.157  0.7844 -2.0162  0.8833
 2369TIP3   OH231301   2.003   4.517  16.216 -0.2489  0.0325  0.0977
 2369TIP3    H131302   2.076   4.487  16.160  0.9144 -0.4206  1.7784
 2369TIP3    H231303   1.981   4.440  16.269 -3.0170 -0.3086 -1.3721
 2370TIP3   OH231304   2.004   1.948  14.711  0.3037 -0.1255 -0.2453
 2370TIP3    H131305   1.996   1.991  14.796  0.1774 -1.2392  0.3199
 2370TIP3    H231306   1.981   2.016  14.648  0.6663  0.7957  0.5876
 2371TIP3   OH231307   5.715   0.540  15.560  0.1153 -0.6186 -0.0046
 2371TIP3    H131308   5.698   0.450  15.533  1.2762 -0.8498 -0.0117
 2371TIP3    H231309   5.649   0.592  15.513 -1.0629 -1.5272  0.6000
 2372TIP3   OH231310   2.655   0.710  15.552 -0.3958 -0.5380 -0.1495
 2372TIP3    H131311   2.573   0.664  15.533 -0.8500  0.6425 -1.2076
 2372TIP3    H231312   2.724   0.646  15.532 -1.0402 -1.1928 -0.2898
 2373TIP3   OH231313   2.792   2.659  15.928  0.5068  0.2898  0.8357
 2373TIP3    H131314   2.721   2.599  15.902 -0.0002  1.7532 -1.4970
 2373TIP3    H231315   2.794   2.654  16.024 -1.8574 -0.8142  0.9013
 2374TIP3   OH231316   1.486   0.328  16.372 -0.0066  0.5345  0.6615
 2374TIP3    H131317   1.420   0.328  16.303  1.1463 -0.4918 -0.5087
 2374TIP3    H231318   1.466   0.405  16.425 -0.6609  1.6592 -1.1088
 2375TIP3   OH231319   4.548   6.408  15.137  0.3454  0.1075  0.4023
 2375TIP3    H131320   4.622   6.460  15.106  0.1402  0.9468  1.2768
 2375TIP3    H231321   4.475   6.434  15.081  0.2379  0.8051  0.8479
 2376TIP3   OH231322   6.235   3.555  16.343 -0.0088 -0.0136 -0.2746
 2376TIP3    H131323   6.199   3.467  16.333  2.5833 -1.2225  0.1418
 2376TIP3    H231324   6.248   3.564  16.438  1.8352 -0.1347 -0.4888
 2377TIP3   OH231325   1.782   5.663  14.263 -0.2202 -0.7485  0.0653
 2377TIP3    H131326   1.859   5.659  14.206 -0.4473  0.4289 -0.3630
 2377TIP3    H231327   1.711   5.689  14.204 -0.5058  0.2769  0.8276
 2378TIP3   OH231328   1.442   4.433  15.052 -0.1307  0.6151  0.6673
 2378TIP3    H131329   1.435   4.376  14.976  1.4654 -0.1130  1.0309
 2378TIP3    H231330   1.355   4.473  15.060 -0.3000  0.8516 -1.6210
 2379TIP3   OH231331   2.809   0.457  15.893 -0.1109 -0.1196 -0.4202
 2379TIP3    H131332   2.824   0.507  15.973  0.7757 -1.4625  0.2869
 2379TIP3    H231333   2.777   0.372  15.923 -1.7714  0.0312 -1.5986
 2380TIP3   OH231334   6.699   0.822  13.664  0.5556 -0.0211 -0.3804
 2380TIP3    H131335   6.775   0.834  13.608  0.6676  1.7507  0.0827
 2380TIP3    H231336   6.734   0.825  13.753 -0.1192  1.7288 -0.1385
 2381TIP3   OH231337   5.061   0.744  15.735 -0.1289  0.5691 -0.8494
 2381TIP3    H131338   5.135   0.793  15.698  0.9638  0.0540  0.5760
 2381TIP3    H231339   5.043   0.788  15.818 -0.1643 -0.4821 -0.2911
 2382TIP3   OH231340   1.551   4.056  15.168  0.4669 -0.5912 -0.3770
 2382TIP3    H131341   1.486   4.123  15.147 -0.2882 -1.7449 -1.9656
 2382TIP3    H231342   1.602   4.046  15.087  2.6748  0.2694  0.8261
 2383TIP3   OH231343   1.805   6.385  16.979  0.5387 -0.5282  0.4428
 2383TIP3    H131344   1.755   6.349  16.906  1.4604  1.4160 -1.2288
 2383TIP3    H231345   1.742   6.389  17.051 -0.8412 -1.0696 -0.6817
 2384TIP3   OH231346   1.286   3.335  14.676 -0.0126 -0.3395  0.0466
 2384TIP3    H131347   1.238   3.287  14.609  0.3784  0.4065 -0.7882
 2384TIP3    H231348   1.375   3.342  14.641 -0.3116  2.0129 -0.4446
 2385TIP3   OH231349   0.268   4.898  15.252 -0.1171  0.2004 -0.9198
 2385TIP3    H131350   0.181   4.897  15.291  0.5476  1.7684  0.7738
 2385TIP3    H231351   0.310   4.817  15.284 -0.0424  0.8074  0.5925
 2386TIP3   OH231352   4.633   0.298  14.711 -0.6344 -0.2915  0.0126
 2386TIP3    H131353   4.722   0.264  14.722 -0.7557 -0.6843 -0.1634
 2386TIP3    H231354   4.577   0.229  14.748 -0.9315 -0.7064 -1.1570
 2387TIP3   OH231355   4.641   3.236  15.487 -0.5327  0.0089  0.2014
 2387TIP3    H131356   4.716   3.178  15.501  1.6231  1.9760 -2.1913
 2387TIP3    H231357   4.578   3.182  15.440  0.3269 -1.1013  0.2786
 2388TIP3   OH231358   5.271   0.122  14.666 -0.6246 -0.1793  0.2230
 2388TIP3    H131359   5.212   0.198  14.674 -1.8519 -1.2545  2.4849
 2388TIP3    H231360   5.354   0.155  14.699 -0.1385  1.0687 -2.0235
 2389TIP3   OH231361   1.766   0.565  12.858  0.2195 -0.2344  0.2873
 2389TIP3    H131362   1.760   0.520  12.942  1.9959 -0.0816  0.5371
 2389TIP3    H231363   1.833   0.632  12.871 -0.2191  0.4891 -0.9545
 2390TIP3   OH231364   2.978   1.983  13.867  0.0813 -0.0087 -0.2663
 2390TIP3    H131365   2.910   1.979  13.800  0.1682  0.1746 -0.3666
 2390TIP3    H231366   3.056   1.946  13.825  0.4466  1.1548 -0.6548
 2391TIP3   OH231367   3.674   2.304  15.717  0.3101 -0.3787 -0.1695
 2391TIP3    H131368   3.597   2.249  15.705  0.8781 -1.4807  0.9610
 2391TIP3    H231369   3.678   2.319  15.812  0.7790  0.7306 -0.3501
 2392TIP3   OH231370   2.773   2.715  16.746  0.2603  0.2943 -0.2777
 2392TIP3    H131371   2.770   2.788  16.808 -0.7712  0.2616 -0.2734
 2392TIP3    H231372   2.828   2.650  16.788 -0.0350  0.4683  0.3980
 2393TIP3   OH231373   2.270   0.809  13.747 -0.0886 -0.2789  0.1985
 2393TIP3    H131374   2.259   0.901  13.721 -1.3590 -0.0219  1.4907
 2393TIP3    H231375   2.282   0.762  13.665 -1.0814  0.8521 -0.6353
 2394TIP3   OH231376   4.101   5.718  15.837 -0.1492 -0.5104  0.0370
 2394TIP3    H131377   4.184   5.759  15.816  0.5301 -1.4150  0.8464
 2394TIP3    H231378   4.075   5.673  15.756 -0.0240  0.0338 -0.3103
 2395TIP3   OH231379   3.106   6.352  13.804 -0.0957 -0.5774 -0.0266
 2395TIP3    H131380   3.120   6.349  13.710  1.2768 -0.7630  0.1612
 2395TIP3    H231381   3.080   6.263  13.828 -1.9873 -0.1724 -0.4161
 2396TIP3   OH231382   4.979   1.524  16.673  0.4052 -0.4043  0.0401
 2396TIP3    H131383   4.933   1.459  16.619 -1.9931 -0.1493  1.6228
 2396TIP3    H231384   5.050   1.475  16.714  0.2127 -1.3852 -0.7565
 2397TIP3   OH231385   5.009   5.207  15.947 -0.0160  0.8138  0.6787
 2397TIP3    H131386   5.038   5.287  15.904 -1.1355  0.7744 -0.1807
 2397TIP3    H231387   5.062   5.202  16.027  0.6299  1.9721  0.3387
 2398TIP3   OH231388   1.164   6.648  14.071  0.1336  0.1179  0.1869
 2398TIP3    H131389   1.245   6.646  14.020 -0.1727  0.4413 -0.3180
 2398TIP3    H231390   1.171   6.572  14.130  0.4319 -0.3389 -0.4281
 2399TIP3   OH231391   2.267   6.567  17.075 -0.3179  0.1456 -0.2304
 2399TIP3    H131392   2.228   6.573  17.162 -0.5369 -0.8256 -0.2546
 2399TIP3    H231393   2.194   6.542  17.018  0.1462 -0.8414 -0.4152
 2400TIP3   OH231394   1.193   3.536  15.953 -0.1756  0.0479  0.3411
 2400TIP3    H131395   1.286   3.558  15.955 -0.4052  1.0505  0.6464
 2400TIP3    H231396   1.150   3.610  15.996 -1.1112 -0.4349  0.2663
 2401TIP3   OH231397   6.022   4.408  13.995 -0.7597 -0.0359  0.4560
 2401TIP3    H131398   6.098   4.352  14.009 -0.1625  0.5108 -0.5053
 2401TIP3    H231399   6.025   4.472  14.066 -0.2066  0.0974  0.3165
 2402TIP3   OH231400   2.432   3.486  13.573 -0.2624 -0.3747  0.8088
 2402TIP3    H131401   2.487   3.434  13.632 -0.1598  0.0148  1.0644
 2402TIP3    H231402   2.494   3.540  13.523 -0.3581 -0.5930  0.4486
 2403TIP3   OH231403   1.725   3.012  15.694  0.2297  0.0771 -0.0724
 2403TIP3    H131404   1.735   2.932  15.642 -0.3461  0.1318 -0.2754
 2403TIP3    H231405   1.708   2.980  15.783  0.5213 -0.0204 -0.0510
 2404TIP3   OH231406   4.844   0.565  16.849 -0.0738 -0.0860  0.3962
 2404TIP3    H131407   4.918   0.513  16.817  0.1889  0.6045 -0.1504
 2404TIP3    H231408   4.855   0.567  16.944  0.1062 -0.7273  0.3933
 2405TIP3   OH231409   5.385   4.999  14.925 -0.1808 -0.2673  0.0139
 2405TIP3    H131410   5.414   4.910  14.904  0.8711 -0.2104  1.0815
 2405TIP3    H231411   5.294   4.988  14.954 -0.5670 -0.7661 -1.3141
 2406TIP3   OH231412   3.300   2.826  13.782 -0.2564  0.2345  0.0042
 2406TIP3    H131413   3.271   2.914  13.759  0.0953  0.6491  1.0611
 2406TIP3    H231414   3.391   2.837  13.808  0.1842 -0.6705 -1.0698
 2407TIP3   OH231415   5.492   6.505  16.544 -0.0028 -0.3263  0.1294
 2407TIP3    H131416   5.528   6.489  16.632 -0.6356 -1.2178  0.2419
 2407TIP3    H231417   5.552   6.459  16.485 -0.5993 -1.3205  0.2687
 2408TIP3   OH231418   2.615   1.724  16.291  0.0987  0.2562  0.0058
 2408TIP3    H131419   2.629   1.788  16.360 -0.5859  0.2041  0.2054
 2408TIP3    H231420   2.619   1.639  16.335 -0.7079  0.2373  0.0606
 2409TIP3   OH231421   1.222   1.234  14.574  0.1915 -0.3428  0.3008
 2409TIP3    H131422   1.263   1.297  14.633  1.4952  0.5468 -1.4518
 2409TIP3    H231423   1.295   1.184  14.537 -0.4379 -0.0660 -1.4259
 2410TIP3   OH231424   4.228   4.330  16.290 -0.1815 -0.1681 -0.6408
 2410TIP3    H131425   4.284   4.406  16.278  0.9192 -0.7970  0.2340
 2410TIP3    H231426   4.160   4.359  16.350  0.2838  0.1151 -0.2432
 2411TIP3   OH231427   4.100   2.714  15.333  0.4008  0.0862  0.5090
 2411TIP3    H131428   4.153   2.653  15.281  1.2483  0.0242  1.4128
 2411TIP3    H231429   4.018   2.668  15.348  0.0609  0.1802 -0.9250
 2412TIP3   OH231430   0.178   5.940  13.891  0.5609 -0.4012  0.0975
 2412TIP3    H131431   0.156   6.030  13.866  0.5778 -0.5778 -0.5760
 2412TIP3    H231432   0.140   5.929  13.978  1.5502  0.6290  0.6920
 2413TIP3   OH231433   4.204   5.119  15.091 -0.2508 -0.3305 -0.1863
 2413TIP3    H131434   4.258   5.040  15.088 -1.7465 -1.3656 -2.5514
 2413TIP3    H231435   4.254   5.184  15.041 -0.5401 -0.8788 -1.2206
 2414TIP3   OH231436   6.272   0.959  13.759 -0.0624  0.1349 -0.2564
 2414TIP3    H131437   6.366   0.977  13.763  0.2693 -1.5379  1.1051
 2414TIP3    H231438   6.252   0.956  13.666  1.3504  0.0925 -0.5831
 2415TIP3   OH231439   4.558   1.256  16.647 -0.1539  0.1131 -0.1937
 2415TIP3    H131440   4.626   1.209  16.696  1.1412  0.2058 -1.8024
 2415TIP3    H231441   4.595   1.343  16.632 -0.3384 -0.0290 -1.6122
 2416TIP3   OH231442   2.826   0.669  13.739 -0.2704 -0.7662  0.2906
 2416TIP3    H131443   2.763   0.716  13.685 -0.1967 -3.9782 -2.9974
 2416TIP3    H231444   2.912   0.693  13.704  0.3659  1.7544  3.1902
 2417TIP3   OH231445   4.815   6.542  15.797  0.2182  0.2284  0.2908
 2417TIP3    H131446   4.786   6.540  15.706  0.8145  1.2517  0.0663
 2417TIP3    H231447   4.749   6.489  15.844  0.0536 -0.5252 -0.7539
 2418TIP3   OH231448   2.447   1.455  13.835 -0.5197  0.2197 -0.0868
 2418TIP3    H131449   2.465   1.382  13.775 -0.5549  1.6245 -1.8951
 2418TIP3    H231450   2.353   1.467  13.829 -0.6938 -0.3611  1.1948
 2419TIP3   OH231451   0.669   6.721  13.837 -0.3999 -0.6087  0.1928
 2419TIP3    H131452   0.601   6.763  13.784  0.0932 -0.4780 -0.3477
 2419TIP3    H231453   0.730   6.685  13.773  0.9429  0.7500  0.6784
 2420TIP3   OH231454   0.815   3.113  16.140 -0.0505  0.7538 -0.5646
 2420TIP3    H131455   0.781   3.039  16.190  0.3759  0.1141 -1.2093
 2420TIP3    H231456   0.739   3.171  16.128 -0.3810  0.4242 -0.0517
 2421TIP3   OH231457   2.101   0.496  16.594  0.0769 -0.1048 -0.0907
 2421TIP3    H131458   2.120   0.448  16.513  0.4259 -0.4393  0.1851
 2421TIP3    H231459   2.038   0.441  16.641  0.7236 -0.4596  0.3750
 2422TIP3   OH231460   3.971   0.182  14.374 -0.3192 -0.8263 -0.1801
 2422TIP3    H131461   3.906   0.249  14.396  1.4064  1.2366 -1.0528
 2422TIP3    H231462   3.962   0.171  14.279  0.0169 -1.2038 -0.1697
 2423TIP3   OH231463   5.410   1.790  14.562  0.2161  0.2577  0.0752
 2423TIP3    H131464   5.448   1.759  14.644  0.7621  1.3087  0.2433
 2423TIP3    H231465   5.409   1.713  14.505 -1.3880 -0.8173  1.4577
 2424TIP3   OH231466   0.093   1.195  16.574 -0.3581 -0.3890 -0.4488
 2424TIP3    H131467   0.061   1.144  16.648 -2.0641 -0.0142 -0.8924
 2424TIP3    H231468   0.077   1.140  16.498 -1.9026  0.5994 -0.8902
 2425TIP3   OH231469   0.808   3.656  16.194  0.3049  0.3425  0.0584
 2425TIP3    H131470   0.796   3.563  16.212 -0.1145  0.5151  0.7045
 2425TIP3    H231471   0.720   3.691  16.187  0.4546  0.8073  0.4547
 2426TIP3   OH231472   5.158   2.944  16.235 -0.3955  0.2759  0.4601
 2426TIP3    H131473   5.244   2.986  16.233 -0.6634  0.8662  1.0480
 2426TIP3    H231474   5.160   2.884  16.160  1.8152 -2.3354  2.4161
 2427TIP3   OH231475   5.443   3.476  15.822 -0.1062 -0.1705 -0.3074
 2427TIP3    H131476   5.466   3.384  15.831 -0.9006 -0.2930  0.6720
 2427TIP3    H231477   5.374   3.478  15.757  0.0258 -0.2456 -0.4491
 2428TIP3   OH231478   1.048   1.261  13.921  0.5590  0.4706  0.3013
 2428TIP3    H131479   1.028   1.261  13.828 -0.4926 -0.2137  0.5162
 2428TIP3    H231480   1.144   1.257  13.925  0.5873 -0.2817 -0.7566
 2429TIP3   OH231481   1.779   2.573  15.977 -0.4770 -0.1450 -0.2337
 2429TIP3    H131482   1.810   2.484  15.958 -0.3160 -0.1626  0.0839
 2429TIP3    H231483   1.699   2.583  15.926 -0.0005 -0.1382 -0.9988
 2430TIP3   OH231484   1.028   5.381  17.034  0.2022 -0.2836 -0.1566
 2430TIP3    H131485   1.015   5.292  17.066  3.4269  0.0444  2.7483
 2430TIP3    H231486   1.080   5.371  16.954  2.0189 -1.0922  1.0568
 2431TIP3   OH231487   3.296   2.064  16.983 -0.0525  0.1549  0.9038
 2431TIP3    H131488   3.342   2.089  16.903  1.5130 -0.2896  1.6143
 2431TIP3    H231489   3.224   2.009  16.953  0.5561 -0.0669 -0.2105
 2432TIP3   OH231490   6.275   6.434  15.703  0.1739  0.0234  0.5320
 2432TIP3    H131491   6.313   6.355  15.664  1.0235 -0.1198  1.6016
 2432TIP3    H231492   6.183   6.432  15.675  0.4049 -0.8562 -0.2109
 2433TIP3   OH231493   4.948   1.255  13.555 -0.0467  0.9986 -0.1593
 2433TIP3    H131494   4.921   1.212  13.474 -1.7844  1.4578  0.1390
 2433TIP3    H231495   4.964   1.346  13.529 -2.6718  1.6754  0.3191
 2434TIP3   OH231496   2.560   0.459  15.165 -0.6273  0.5298  0.9007
 2434TIP3    H131497   2.481   0.487  15.211  0.1077  1.7165  1.4920
 2434TIP3    H231498   2.566   0.518  15.089 -1.4043 -0.9014 -0.3326
 2435TIP3   OH231499   2.507   0.892  13.848  0.5750  0.4136  0.3530
 2435TIP3    H131500   2.574   0.861  13.788 -2.8779  0.8068 -4.2806
 2435TIP3    H231501   2.435   0.830  13.838  0.5790 -1.3757  6.8212
 2436TIP3   OH231502   0.411   5.755  15.526  0.2735 -0.1667  0.5052
 2436TIP3    H131503   0.466   5.678  15.545 -0.1113  0.0873  2.8556
 2436TIP3    H231504   0.469   5.814  15.477  0.6148 -1.8436 -1.2442
 2437TIP3   OH231505   2.902   1.629  16.613 -0.0177 -0.5005  0.1112
 2437TIP3    H131506   2.914   1.642  16.707  1.4645  0.4168 -0.1800
 2437TIP3    H231507   2.903   1.717  16.576  1.3343 -0.9490 -0.9680
 2438TIP3   OH231508   4.117   0.803  14.066  0.2771 -0.0947 -0.3010
 2438TIP3    H131509   4.193   0.861  14.061  0.1143  0.0208 -1.5615
 2438TIP3    H231510   4.042   0.862  14.064  0.1188 -0.3255 -1.1187
 2439TIP3   OH231511   4.297   0.784  13.482 -0.3400 -0.0198 -0.3636
 2439TIP3    H131512   4.373   0.773  13.425  0.0431  1.1148 -0.1099
 2439TIP3    H231513   4.269   0.875  13.466 -0.5594  0.1375  0.8392
 2440TIP3   OH231514   2.625   2.365  15.511 -0.4971  0.1668 -0.1959
 2440TIP3    H131515   2.552   2.425  15.494  0.3981  0.6847 -2.5175
 2440TIP3    H231516   2.695   2.422  15.544 -0.1178  0.2008 -1.0343
 2441TIP3   OH231517   3.107   0.501  14.110  0.4718 -0.2359 -0.5726
 2441TIP3    H131518   3.081   0.443  14.182  0.8567 -0.3283 -0.5095
 2441TIP3    H231519   3.194   0.472  14.085 -0.1346 -1.0051 -1.9123
 2442TIP3   OH231520   2.664   2.960  14.704  0.3748  0.0351  0.7342
 2442TIP3    H131521   2.697   3.015  14.633  1.3415  1.7309  2.4045
 2442TIP3    H231522   2.743   2.928  14.749 -0.0931  2.1597  3.3154
 2443TIP3   OH231523   3.575   1.150  16.528  0.3463  0.2927  0.0475
 2443TIP3    H131524   3.588   1.055  16.522  2.0035  0.5101 -0.4022
 2443TIP3    H231525   3.480   1.161  16.519  0.0465 -1.3459  0.7046
 2444TIP3   OH231526   4.534   3.943  16.286  0.2919 -0.2374 -0.4545
 2444TIP3    H131527   4.534   4.016  16.348  0.6707 -2.1551  1.9410
 2444TIP3    H231528   4.445   3.939  16.253  0.1413  0.9923 -0.2235
 2445TIP3   OH231529   2.955   3.853  14.138 -0.0098  0.2320  0.2926
 2445TIP3    H131530   2.886   3.919  14.147 -0.2369 -0.0252  0.4738
 2445TIP3    H231531   2.966   3.818  14.227 -1.3328 -1.4005 -0.1368
 2446TIP3   OH231532   1.668   6.521  16.178 -0.0089  0.1869 -0.2396
 2446TIP3    H131533   1.622   6.519  16.094  2.1963  0.3175 -1.5194
 2446TIP3    H231534   1.602   6.554  16.240 -1.1857  1.8927 -2.2543
 2447TIP3   OH231535   5.383   0.106  16.449 -0.2937 -0.4280 -0.3323
 2447TIP3    H131536   5.360   0.025  16.494 -0.1049 -1.1260 -1.4532
 2447TIP3    H231537   5.419   0.078  16.365 -1.1837  0.8424 -1.1884
 2448TIP3   OH231538   0.502   6.738  15.070 -0.2830  0.4290 -0.7236
 2448TIP3    H131539   0.535   6.762  14.984  1.8005 -0.8941 -0.3576
 2448TIP3    H231540   0.430   6.677  15.052 -0.8916  1.3590 -1.5159
 2449TIP3   OH231541   0.462   1.706  14.463 -0.1575  0.0420 -0.1107
 2449TIP3    H131542   0.525   1.778  14.466 -0.3686  0.2017  0.7806
 2449TIP3    H231543   0.406   1.720  14.540 -0.0842 -1.1726  0.1830
 2450TIP3   OH231544   4.362   2.100  16.349 -0.2048  0.0391  0.0478
 2450TIP3    H131545   4.357   2.005  16.353  0.4457 -0.1444 -2.0496
 2450TIP3    H231546   4.455   2.120  16.363 -0.0841  0.2309 -0.9570
 2451TIP3   OH231547   1.554   1.544  13.214  0.1035  0.1438 -0.2509
 2451TIP3    H131548   1.562   1.630  13.172 -1.8455  1.3544  1.6473
 2451TIP3    H231549   1.465   1.515  13.193  0.5922 -1.2326 -0.4962
 2452TIP3   OH231550   4.735   4.344  16.172  0.1350 -0.1306 -0.3238
 2452TIP3    H131551   4.736   4.440  16.180  1.8214 -0.1826  0.3681
 2452TIP3    H231552   4.809   4.314  16.225 -0.4160 -1.8376 -0.4584
 2453TIP3   OH231553   4.328   5.113  15.362 -0.4311 -0.2304 -0.2968
 2453TIP3    H131554   4.276   5.042  15.400 -0.1393 -0.4997 -0.3894
 2453TIP3    H231555   4.305   5.112  15.269  0.1916 -0.7575 -0.4535
 2454TIP3   OH231556   3.891   6.282  15.335 -0.5596 -0.1356  0.2015
 2454TIP3    H131557   3.967   6.271  15.391 -0.8167  0.7670  0.7491
 2454TIP3    H231558   3.816   6.267  15.393 -0.8394 -2.7856 -0.7036
 2455TIP3   OH231559   0.985   2.274  16.175  0.3039  0.2638 -0.2260
 2455TIP3    H131560   1.036   2.343  16.133 -0.7499 -0.0927 -2.2193
 2455TIP3    H231561   0.894   2.304  16.169  0.0042 -0.4462  0.5885
 2456TIP3   OH231562   0.862   1.123  16.773 -0.4863  0.1033  0.2074
 2456TIP3    H131563   0.933   1.184  16.753  0.3913 -1.0069 -0.1669
 2456TIP3    H231564   0.782   1.175  16.764  0.2500  1.2690  0.2216
 2457TIP3   OH231565   2.298   4.435  14.811 -0.1382 -0.1039 -0.7022
 2457TIP3    H131566   2.234   4.373  14.778 -0.6944  0.7056 -1.1671
 2457TIP3    H231567   2.252   4.519  14.815  0.6307  0.3152 -0.2009
 2458TIP3   OH231568   3.912   3.787  14.332 -0.1513  0.0356  0.6486
 2458TIP3    H131569   3.842   3.777  14.268 -1.6888  0.8890  2.1117
 2458TIP3    H231570   3.991   3.804  14.280 -1.5041  1.6169 -1.0020
 2459TIP3   OH231571   3.399   6.535  15.195 -0.5125  0.0378 -0.1112
 2459TIP3    H131572   3.458   6.524  15.121  0.5746 -0.1970  0.7447
 2459TIP3    H231573   3.423   6.619  15.233 -0.2663 -0.3469  0.6219
 2460TIP3   OH231574   0.438   3.440  15.078 -0.0486  0.0441  0.8876
 2460TIP3    H131575   0.374   3.389  15.127 -0.0762 -0.0103  0.7947
 2460TIP3    H231576   0.386   3.507  15.032  0.0297  0.4159  1.3360
 2461TIP3   OH231577   3.705   3.657  15.992 -0.5565  0.0801 -0.1165
 2461TIP3    H131578   3.700   3.745  15.954  0.7595 -0.6252 -2.1449
 2461TIP3    H231579   3.707   3.671  16.086 -1.4729  2.1464 -0.3528
 2462TIP3   OH231580   3.455   5.428  14.606  0.0532 -0.9423  0.6245
 2462TIP3    H131581   3.469   5.336  14.629 -0.8718 -0.9357  1.2663
 2462TIP3    H231582   3.544   5.464  14.594  0.4164 -1.9472  0.1975
 2463TIP3   OH231583   6.195   1.235  13.942  0.2571 -0.0258 -0.1709
 2463TIP3    H131584   6.233   1.151  13.914  0.9217  0.4116 -0.6074
 2463TIP3    H231585   6.143   1.264  13.867  0.0029 -0.0664 -0.0087
 2464TIP3   OH231586   5.271   3.167  17.171 -0.3385  0.0907 -0.4147
 2464TIP3    H131587   5.248   3.160  17.078 -0.6672  0.3673 -0.3553
 2464TIP3    H231588   5.208   3.109  17.215 -0.7049  0.5789 -0.2881
 2465TIP3   OH231589   6.525   1.117  14.662 -0.0987 -0.0004 -0.3803
 2465TIP3    H131590   6.601   1.082  14.708  0.0448  0.7898 -0.0146
 2465TIP3    H231591   6.451   1.098  14.720  0.0250  0.5964 -0.0164
 2466TIP3   OH231592   5.103   3.995  15.590  0.2184  0.0254 -0.4701
 2466TIP3    H131593   5.035   3.985  15.657  1.0856 -1.1997  0.2674
 2466TIP3    H231594   5.079   3.931  15.523  0.9983 -0.9466  0.1376
 2467TIP3   OH231595   3.788   1.916  15.544  0.0893  0.4351  0.5326
 2467TIP3    H131596   3.826   1.986  15.597  0.9438  0.8580 -0.6069
 2467TIP3    H231597   3.832   1.836  15.574 -0.9624  0.3303  1.9073
 2468TIP3   OH231598   4.382   4.878  15.816  0.8412 -0.2306 -0.1792
 2468TIP3    H131599   4.384   4.968  15.785  0.6629 -0.5575 -1.1675
 2468TIP3    H231600   4.290   4.852  15.807  0.7185 -0.2344  0.9431
 2469TIP3   OH231601   0.179   5.571  15.015 -0.2644  0.0754  0.3506
 2469TIP3    H131602   0.191   5.611  14.929 -1.2741 -0.3398  0.0049
 2469TIP3    H231603   0.237   5.621  15.073 -0.0840  0.7919 -0.4305
 2470TIP3   OH231604   1.447   0.385  12.812 -0.2059 -0.3390  0.0814
 2470TIP3    H131605   1.479   0.384  12.903 -0.0474  1.4663  0.0857
 2470TIP3    H231606   1.389   0.310  12.807  0.1693 -0.7731  1.5386
 2471TIP3   OH231607   6.541   3.954  15.797 -0.3842 -0.6123 -0.5030
 2471TIP3    H131608   6.547   3.988  15.887  0.3617 -1.0334 -0.3796
 2471TIP3    H231609   6.568   3.862  15.805 -3.2175 -1.5363 -0.6850
 2472TIP3   OH231610   5.123   1.258  16.521  0.6710 -0.3764  0.0973
 2472TIP3    H131611   5.166   1.273  16.605 -1.0008  2.7793  0.5538
 2472TIP3    H231612   5.173   1.312  16.459 -1.1131  1.5133  0.1976
 2473TIP3   OH231613   0.623   0.423  16.556  0.0772  0.2736  0.1474
 2473TIP3    H131614   0.632   0.503  16.607 -1.2906  0.7255 -0.2841
 2473TIP3    H231615   0.536   0.389  16.579 -0.1570 -0.0427 -1.0988
 2474TIP3   OH231616   0.426   5.679  16.819 -0.1746  0.0780  0.3847
 2474TIP3    H131617   0.353   5.740  16.806 -1.0163 -0.7760  1.0155
 2474TIP3    H231618   0.504   5.735  16.817 -0.7892  0.9487 -0.7942
 2475TIP3   OH231619   1.020   4.584  14.584  0.6006  0.3142  0.2112
 2475TIP3    H131620   0.959   4.565  14.655  0.0212 -1.8733 -0.7924
 2475TIP3    H231621   1.098   4.618  14.628 -0.3808  0.7556  1.7132
 2476TIP3   OH231622   0.228   5.145  16.230 -0.1439 -0.2377 -0.1256
 2476TIP3    H131623   0.245   5.211  16.162 -0.0696  2.6055  2.4380
 2476TIP3    H231624   0.242   5.062  16.186  1.3740  1.4562 -3.1984
 2477TIP3   OH231625   1.320   0.753  15.765  0.2559 -0.6558 -0.3901
 2477TIP3    H131626   1.334   0.682  15.827  0.7021 -1.0312 -0.9055
 2477TIP3    H231627   1.237   0.731  15.722  0.3356 -0.8026 -0.4688
 2478TIP3   OH231628   2.260   6.361  14.370  0.0647 -0.2133 -0.5346
 2478TIP3    H131629   2.272   6.442  14.320  1.3047 -0.0023  0.0423
 2478TIP3    H231630   2.254   6.292  14.304 -2.8020  0.4791 -1.1231
 2479TIP3   OH231631   4.537   1.735  14.607 -0.1764 -0.1237  0.6901
 2479TIP3    H131632   4.589   1.782  14.673  1.9246 -0.8332 -0.3717
 2479TIP3    H231633   4.498   1.804  14.554  1.3015  0.4908  0.3357
 2480TIP3   OH231634   0.879   5.058  14.612 -0.1201  0.0432 -0.6195
 2480TIP3    H131635   0.915   5.128  14.667  1.0406 -0.5683 -0.5776
 2480TIP3    H231636   0.818   5.103  14.554 -1.2813  0.7422  1.0468
 2481TIP3   OH231637   0.413   2.245  15.419 -0.5564 -0.6035 -0.0449
 2481TIP3    H131638   0.477   2.212  15.356 -1.3117 -1.0164 -0.6125
 2481TIP3    H231639   0.409   2.339  15.403 -1.8358 -0.8961 -1.6739
 2482TIP3   OH231640   1.240   6.005  15.781  0.5507  0.1155 -0.1617
 2482TIP3    H131641   1.322   6.018  15.828  0.2825 -0.7954  0.5787
 2482TIP3    H231642   1.227   5.910  15.781 -0.8136  0.2864  0.2973
 2483TIP3   OH231643   5.635   4.932  15.337  0.1774  0.1191 -0.2617
 2483TIP3    H131644   5.726   4.960  15.349 -0.1168  0.9514  0.1310
 2483TIP3    H231645   5.641   4.852  15.284  1.0985  0.4960 -0.7521
 2484TIP3   OH231646   2.222   6.428  15.991 -0.1765 -0.3188  0.3762
 2484TIP3    H131647   2.171   6.466  16.063 -1.1003 -0.7230 -0.0532
 2484TIP3    H231648   2.161   6.369  15.947  0.1909  0.3705 -1.1135
 2485TIP3   OH231649   3.658   5.625  14.898 -0.1110 -0.0739 -0.1540
 2485TIP3    H131650   3.660   5.537  14.860 -1.2950 -0.3261  0.3210
 2485TIP3    H231651   3.750   5.650  14.907  0.3352 -1.9928  1.3380
 2486TIP3   OH231652   1.028   1.266  13.385 -0.1061  0.8795 -0.0011
 2486TIP3    H131653   0.937   1.258  13.357 -0.7478 -1.5942  2.3171
 2486TIP3    H231654   1.073   1.194  13.342  0.3424  0.9612  0.3262
 2487TIP3   OH231655   3.583   5.636  14.300  0.1637  0.2248  0.5857
 2487TIP3    H131656   3.579   5.547  14.266 -2.2721  0.7024 -0.5771
 2487TIP3    H231657   3.569   5.626  14.394  0.3752 -0.6528  0.5301
 2488TIP3   OH231658   1.527   0.166  13.998  0.2439  0.0189 -0.0967
 2488TIP3    H131659   1.522   0.231  13.929  1.2634 -0.7845 -0.9585
 2488TIP3    H231660   1.436   0.143  14.016 -0.0286 -0.6635 -2.0857
 2489TIP3   OH231661   5.338   5.971  15.745  0.1544 -0.6827  0.0385
 2489TIP3    H131662   5.334   5.893  15.690 -0.1519  0.5899 -1.8485
 2489TIP3    H231663   5.247   5.993  15.764  0.1235  0.2981 -1.1167
 2490TIP3   OH231664   2.304   6.161  15.280 -0.0700  0.4093 -0.2960
 2490TIP3    H131665   2.302   6.157  15.376 -2.0129  0.9049 -0.2662
 2490TIP3    H231666   2.324   6.071  15.253 -0.7284 -0.0216  0.5864
 2491TIP3   OH231667   4.603   4.236  15.621  0.4633  0.1233  0.9344
 2491TIP3    H131668   4.552   4.184  15.559  0.9040 -0.0329  0.6959
 2491TIP3    H231669   4.603   4.324  15.584 -0.9658  0.5000  1.7510
 2492TIP3   OH231670   4.734   0.386  15.001  0.6122 -0.0530  0.3648
 2492TIP3    H131671   4.779   0.329  15.063 -1.7390 -2.1799  0.2999
 2492TIP3    H231672   4.744   0.342  14.916  0.3619  0.6452 -0.0348
 2493TIP3   OH231673   0.817   6.441  14.890 -0.6661  0.2328  0.6421
 2493TIP3    H131674   0.869   6.436  14.970 -0.7683 -1.3068  0.6401
 2493TIP3    H231675   0.880   6.426  14.819 -0.6832  0.9545  0.4705
 2494TIP3   OH231676   1.663   4.707  13.695 -0.4638  0.3148 -0.0507
 2494TIP3    H131677   1.609   4.692  13.773  1.4417 -0.7104  1.1639
 2494TIP3    H231678   1.700   4.794  13.708  1.3577 -0.5812  1.2481
 2495TIP3   OH231679   1.731   0.312  15.164 -0.1044 -0.7281 -0.3258
 2495TIP3    H131680   1.814   0.359  15.169 -0.3791 -0.3524  1.0759
 2495TIP3    H231681   1.716   0.279  15.252 -1.3789 -0.8985 -0.5831
 2496TIP3   OH231682   0.337   5.491  14.600  0.4839  0.4907 -1.4933
 2496TIP3    H131683   0.324   5.532  14.515 -1.4996  2.1404 -0.5063
 2496TIP3    H231684   0.415   5.533  14.636  0.7486  0.5211 -2.1010
 2497TIP3   OH231685   5.641   2.647  15.780 -0.4732 -0.1670  0.1269
 2497TIP3    H131686   5.598   2.629  15.864 -0.4522  0.3981  0.2657
 2497TIP3    H231687   5.631   2.741  15.768 -0.6741 -0.2767 -0.6210
 2498TIP3   OH231688   0.954   1.285  14.698 -0.9667  0.2757 -0.3612
 2498TIP3    H131689   1.014   1.290  14.624  0.5803  0.0303  0.8291
 2498TIP3    H231690   0.954   1.193  14.724 -2.3144  0.1651 -0.6783
 2499TIP3   OH231691   5.627   5.344  15.296  0.5505  0.1081 -0.0458
 2499TIP3    H131692   5.676   5.425  15.300  0.6493  0.0189  0.5238
 2499TIP3    H231693   5.691   5.278  15.271  0.1426  0.4768 -2.3320
 2500TIP3   OH231694   3.542   2.738  17.074  0.0992 -0.1893 -0.1999
 2500TIP3    H131695   3.514   2.785  17.152  1.9126 -0.1185  0.4662
 2500TIP3    H231696   3.512   2.792  17.000 -2.6857 -0.8434  0.3267
 2501TIP3   OH231697   4.538   5.908  15.937 -0.6829  0.3446 -0.2017
 2501TIP3    H131698   4.543   5.921  16.031  1.7296  0.6432 -0.3049
 2501TIP3    H231699   4.549   5.995  15.899 -0.0189  0.0259 -0.7686
 2502TIP3   OH231700   0.966   0.243  15.789  0.2663  0.0196  0.0902
 2502TIP3    H131701   0.884   0.241  15.840 -0.0591 -0.1790 -0.4325
 2502TIP3    H231702   0.950   0.309  15.722  0.4903 -0.1165 -0.0957
 2503TIP3   OH231703   1.651   5.350  16.003 -0.2834  1.1803 -0.0733
 2503TIP3    H131704   1.644   5.428  15.949 -2.3418 -0.0527 -1.7236
 2503TIP3    H231705   1.705   5.289  15.952 -2.0089  0.1069 -0.6996
 2504TIP3   OH231706   2.762   4.575  14.878  0.1728  0.3012 -0.4480
 2504TIP3    H131707   2.771   4.481  14.861 -2.1133  0.3717 -2.5768
 2504TIP3    H231708   2.769   4.582  14.973 -0.1344 -2.1177 -0.1680
 2505TIP3   OH231709   3.500   1.373  13.541 -0.0619 -0.4419  0.0738
 2505TIP3    H131710   3.433   1.307  13.525  1.2686 -2.0088  0.6023
 2505TIP3    H231711   3.572   1.347  13.483  1.0429 -0.3481  1.3623
 2506TIP3   OH231712   1.005   2.027  15.690 -0.2824 -0.7309  0.0975
 2506TIP3    H131713   0.939   2.088  15.722  0.0699 -0.8246  1.0452
 2506TIP3    H231714   0.999   1.952  15.749  0.8956 -0.5883  0.4240
 2507TIP3   OH231715   3.015   1.615  15.131 -0.5637 -0.4808 -0.1996
 2507TIP3    H131716   3.087   1.644  15.187  0.0083 -1.5645 -0.3422
 2507TIP3    H231717   2.944   1.675  15.151 -0.2051 -0.5107  1.3146
 2508TIP3   OH231718   0.673   3.794  15.571  0.4304  0.2135 -0.0310
 2508TIP3    H131719   0.682   3.831  15.484 -0.7071 -0.1249 -0.3096
 2508TIP3    H231720   0.724   3.713  15.569 -1.7165 -1.2302 -1.2882
 2509TIP3   OH231721   3.498   0.369  14.016  0.7094 -0.0607 -0.2587
 2509TIP3    H131722   3.406   0.357  13.995  0.1916  0.8305  1.2863
 2509TIP3    H231723   3.537   0.282  14.007 -0.7211 -0.8799  0.9812
 2510TIP3   OH231724   4.574   3.122  16.156  0.3789  0.0752 -0.4930
 2510TIP3    H131725   4.621   3.044  16.126 -1.6782 -2.6211  2.6409
 2510TIP3    H231726   4.482   3.094  16.163 -0.9299  3.5496 -1.4285
 2511TIP3   OH231727   2.017   4.088  14.885  0.2031  0.7165 -0.3742
 2511TIP3    H131728   2.061   4.115  14.966  1.0522  0.2318 -0.6591
 2511TIP3    H231729   2.065   4.011  14.857 -1.1223 -0.0949 -0.4745
 2512TIP3   OH231730   2.851   1.290  14.999  0.2931  0.0941 -0.1657
 2512TIP3    H131731   2.845   1.258  14.909  0.4855  0.7898 -0.4302
 2512TIP3    H231732   2.877   1.382  14.990 -0.4395  0.3822  0.5673
 2513TIP3   OH231733   1.514   1.485  15.892 -0.1266  0.2356 -0.2981
 2513TIP3    H131734   1.439   1.427  15.906  0.5161 -0.8821 -1.3450
 2513TIP3    H231735   1.589   1.437  15.927  0.4685  0.2783 -1.4907
 2514TIP3   OH231736   4.331   6.493  16.280 -0.4090  0.4645 -0.5752
 2514TIP3    H131737   4.326   6.499  16.375 -1.8259  2.1173 -0.6938
 2514TIP3    H231738   4.301   6.404  16.259  0.7620 -0.2134  0.5425
 2515TIP3   OH231739   6.350   3.428  14.763  0.0725 -0.3512  0.2677
 2515TIP3    H131740   6.283   3.386  14.709 -1.5252  1.3858  0.8041
 2515TIP3    H231741   6.301   3.468  14.835  1.8636 -0.2599  1.4975
 2516TIP3   OH231742   2.320   5.231  14.927  0.3731 -0.0500  0.1846
 2516TIP3    H131743   2.247   5.206  14.870  0.7820 -1.3851  0.2263
 2516TIP3    H231744   2.398   5.222  14.873  0.4885  2.5712 -0.2536
 2517TIP3   OH231745   3.644   6.142  14.996 -0.6068 -0.4715 -0.7771
 2517TIP3    H131746   3.553   6.168  14.979 -0.6694  0.9930  1.4148
 2517TIP3    H231747   3.650   6.053  14.961 -2.5383 -0.1792 -2.0049
 2518TIP3   OH231748   3.665   5.430  15.579 -0.2315  0.4388 -0.0380
 2518TIP3    H131749   3.630   5.419  15.491  0.0840  0.7280 -0.2039
 2518TIP3    H231750   3.752   5.390  15.575 -0.2246  0.4379  0.1415
 2519TIP3   OH231751   1.434   2.923  14.970 -0.2865  0.4936 -0.1264
 2519TIP3    H131752   1.521   2.958  14.953 -0.3083 -0.2759 -2.0548
 2519TIP3    H231753   1.383   2.945  14.892 -1.5576  0.1054  0.5661
 2520TIP3   OH231754   6.574   1.724  16.921 -0.4695  0.1985 -0.5200
 2520TIP3    H131755   6.501   1.784  16.908 -1.0806 -0.3209  0.3879
 2520TIP3    H231756   6.542   1.639  16.892 -0.1790 -0.0027 -0.2700
 2521TIP3   OH231757   1.997   1.178  15.023 -0.5525 -0.4897 -0.4224
 2521TIP3    H131758   2.025   1.265  15.052 -1.4224 -0.7134  1.1927
 2521TIP3    H231759   1.959   1.193  14.936 -1.2423  0.8582  0.0840
 2522TIP3   OH231760   6.716   4.991  16.418 -0.2205 -0.5356 -0.3217
 2522TIP3    H131761   6.761   4.982  16.334 -1.9586 -0.6459 -1.3034
 2522TIP3    H231762   6.628   4.956  16.402 -0.6440 -0.4284  1.5150
 2523TIP3   OH231763   6.749   4.922  16.159 -0.0152 -0.3954  0.1114
 2523TIP3    H131764   6.782   4.971  16.083  3.0481  1.8116  2.5721
 2523TIP3    H231765   6.790   4.836  16.153 -1.3152 -0.9397 -1.6156
 2524TIP3   OH231766   1.332   5.743  14.895 -0.1325 -0.4195 -0.0173
 2524TIP3    H131767   1.346   5.835  14.871  0.1379 -0.2613  0.7045
 2524TIP3    H231768   1.418   5.703  14.890  0.1632 -0.1064  1.7455
 2525TIP3   OH231769   4.798   4.472  15.153  0.1148  0.2861 -0.3621
 2525TIP3    H131770   4.772   4.481  15.061 -1.3322  0.1422  0.0032
 2525TIP3    H231771   4.715   4.460  15.200  0.8224  0.4356  0.9729
 2526TIP3   OH231772   1.288   2.165  14.045 -0.6658  0.3637  0.0373
 2526TIP3    H131773   1.219   2.205  14.098 -0.8877  0.3374 -0.2276
 2526TIP3    H231774   1.333   2.239  14.005 -1.2705  0.3530 -0.6959
 2527TIP3   OH231775   6.029   0.841  13.820  0.1971  0.2216 -0.2769
 2527TIP3    H131776   6.106   0.897  13.817  0.0821  0.4377  0.4958
 2527TIP3    H231777   5.974   0.872  13.748  0.5778  0.4428 -0.4773
 2528TIP3   OH231778   1.853   0.532  15.686 -0.1447 -0.6162 -0.2031
 2528TIP3    H131779   1.804   0.480  15.750  1.9256  0.1869  2.1757
 2528TIP3    H231780   1.902   0.467  15.635 -0.4335 -1.1663  0.2102
 2529TIP3   OH231781   6.208   6.207  15.175 -0.4313  0.7686  0.0180
 2529TIP3    H131782   6.239   6.272  15.112  0.7464 -0.1888 -0.4370
 2529TIP3    H231783   6.153   6.256  15.236  2.0257  2.6390  0.9110
 2530TIP3   OH231784   5.612   2.285  14.684 -0.3237 -0.2736 -0.1339
 2530TIP3    H131785   5.577   2.341  14.753 -0.8157 -0.0822 -0.5299
 2530TIP3    H231786   5.540   2.226  14.661  0.2957 -1.3078  0.5102
 2531TIP3   OH231787   5.955   2.922  15.680 -0.6294 -0.6199 -0.4672
 2531TIP3    H131788   5.880   2.976  15.703  0.2773  1.3276 -1.8346
 2531TIP3    H231789   6.023   2.947  15.743 -0.0325  0.2960 -1.4460
 2532TIP3   OH231790   3.956   2.293  15.280  0.0814  0.6583  0.2864
 2532TIP3    H131791   4.041   2.278  15.322 -0.4603 -2.0243  0.5754
 2532TIP3    H231792   3.966   2.254  15.193 -1.1887 -0.7735  0.7504
 2533TIP3   OH231793   2.516   5.297  14.393  0.3759  0.2299  0.1939
 2533TIP3    H131794   2.559   5.286  14.477  1.0980  2.5648  0.1962
 2533TIP3    H231795   2.588   5.306  14.330 -0.1481 -0.1254 -0.4705
 2534TIP3   OH231796   6.040   1.297  15.180  0.1940  0.2603  0.2072
 2534TIP3    H131797   6.060   1.375  15.232  0.1321  1.4624 -1.4994
 2534TIP3    H231798   5.945   1.290  15.183  0.1003  1.0140 -0.6646
 2535TIP3   OH231799   4.736   5.524  15.536 -0.0598  0.5588 -0.1599
 2535TIP3    H131800   4.667   5.491  15.479 -0.8214  0.2151  0.9100
 2535TIP3    H231801   4.699   5.603  15.576  0.7738  1.2674 -0.7522
 2536TIP3   OH231802   4.623   4.895  14.400  0.7085 -0.3318  0.3192
 2536TIP3    H131803   4.577   4.956  14.343  1.1901 -0.7235 -0.4992
 2536TIP3    H231804   4.556   4.867  14.463  0.7040  1.6891  1.2720
 2537TIP3   OH231805   6.521   6.151  15.014 -0.0093 -0.1505 -0.3574
 2537TIP3    H131806   6.472   6.232  15.029 -1.2055 -0.7690 -0.7638
 2537TIP3    H231807   6.493   6.123  14.926 -0.1136 -1.3396  0.0460
 2538TIP3   OH231808   4.866   2.297  14.493 -0.2383 -0.0014 -0.1462
 2538TIP3    H131809   4.944   2.326  14.446 -0.3433  1.2906  0.4481
 2538TIP3    H231810   4.801   2.366  14.478  0.1476  1.1993  2.9575
 2539TIP3   OH231811   2.545   1.282  15.694 -0.2222  0.0879 -0.2646
 2539TIP3    H131812   2.633   1.318  15.686 -0.6310  1.3633  0.5436
 2539TIP3    H231813   2.498   1.315  15.617 -0.4054  0.7574  0.1195
 2540TIP3   OH231814   0.069   3.948  14.754  0.0779 -0.3956 -0.1744
 2540TIP3    H131815   0.086   4.029  14.801  0.2477  0.5944 -1.8723
 2540TIP3    H231816   0.020   3.894  14.816 -2.0835  1.8988  0.2815
 2541TIP3   OH231817   6.461   1.559  15.991  0.0614 -0.0846  0.0629
 2541TIP3    H131818   6.544   1.596  15.961 -0.2697  0.5151 -0.1446
 2541TIP3    H231819   6.480   1.467  16.008  0.4684 -0.2528 -1.1924
 2542TIP3   OH231820   0.696   1.534  16.363 -0.0920  0.4493 -0.3735
 2542TIP3    H131821   0.716   1.619  16.402  0.3330 -0.5921  1.8565
 2542TIP3    H231822   0.626   1.552  16.300 -0.2253  2.3934  0.2735
 2543TIP3   OH231823   4.344   2.744  15.157  0.0754  0.3414  0.7593
 2543TIP3    H131824   4.334   2.695  15.076  2.8326  0.6870  0.1288
 2543TIP3    H231825   4.343   2.677  15.226  0.8599 -0.2879  0.1657
 2544TIP3   OH231826   5.164   0.565  16.463  0.1648  0.2318 -0.1107
 2544TIP3    H131827   5.105   0.493  16.487 -1.4759  0.7604 -2.2621
 2544TIP3    H231828   5.243   0.521  16.431 -0.6038 -0.6302 -0.8755
 2545TIP3   OH231829   2.323   2.486  14.685  0.6434  0.1960  0.6513
 2545TIP3    H131830   2.397   2.444  14.642 -0.6986 -0.5879 -0.9928
 2545TIP3    H231831   2.285   2.543  14.618 -0.9056 -0.2867  1.0778
 2546TIP3   OH231832   1.787   4.208  15.536  0.1678  0.1509  0.2882
 2546TIP3    H131833   1.831   4.284  15.573 -1.9464  2.1680 -0.9968
 2546TIP3    H231834   1.765   4.234  15.446 -1.2191 -1.7156  0.0054
 2547TIP3   OH231835   5.067   3.719  15.978 -0.0499 -0.9042 -0.3469
 2547TIP3    H131836   5.140   3.764  15.935 -0.6974  1.0062  0.4512
 2547TIP3    H231837   4.989   3.767  15.948 -0.6199 -0.3465  1.8705
 2548TIP3   OH231838   0.300   6.041  14.512 -0.5677  0.3652 -0.4286
 2548TIP3    H131839   0.369   6.013  14.452 -0.4389  1.2694 -0.7123
 2548TIP3    H231840   0.342   6.106  14.568 -1.1246  0.7449 -0.4471
 2549TIP3   OH231841   3.345   2.375  13.409  0.0767 -0.3292 -0.6013
 2549TIP3    H131842   3.250   2.369  13.413  0.0757  0.0895  2.9712
 2549TIP3    H231843   3.375   2.284  13.405 -0.4949 -0.6159  1.0272
 2550TIP3   OH231844   1.808   2.613  14.874  0.0211 -0.1087 -0.2798
 2550TIP3    H131845   1.722   2.576  14.852  0.2829  0.1019 -1.7832
 2550TIP3    H231846   1.868   2.539  14.873  0.1842  0.0232 -1.2144
 2551TIP3   OH231847   2.369   6.159  15.574 -0.1653 -0.5291  0.9055
 2551TIP3    H131848   2.290   6.180  15.623  0.2387  0.7969  1.0154
 2551TIP3    H231849   2.441   6.173  15.635  0.1748 -1.6605  0.7864
 2552TIP3   OH231850   5.448   3.043  13.951 -0.0459  0.4188 -0.0087
 2552TIP3    H131851   5.449   3.121  14.007 -1.8084  2.9036 -3.0281
 2552TIP3    H231852   5.537   3.037  13.917  1.1031 -1.2618  3.0170
 2553TIP3   OH231853   4.866   5.624  15.307  0.0393 -0.5365 -0.0256
 2553TIP3    H131854   4.808   5.569  15.361 -0.5477 -0.9176 -1.0028
 2553TIP3    H231855   4.901   5.563  15.242 -0.5606  0.2108 -1.0812
 2554TIP3   OH231856   3.772   0.347  14.704 -0.0681  0.5697  0.0992
 2554TIP3    H131857   3.687   0.387  14.723  0.0331  0.8029  0.0655
 2554TIP3    H231858   3.815   0.341  14.789 -1.0136 -1.6615  0.4812
 2555TIP3   OH231859   6.496   5.412  17.069 -0.6388  0.3505  0.4858
 2555TIP3    H131860   6.537   5.389  17.152 -2.0266 -1.1028  0.8213
 2555TIP3    H231861   6.517   5.505  17.057  2.5738 -0.2245  0.6571
 2556TIP3   OH231862   4.775   3.274  14.686  0.1183 -0.5055  0.5100
 2556TIP3    H131863   4.683   3.292  14.701  0.3935  0.2208  1.3690
 2556TIP3    H231864   4.776   3.186  14.647 -0.9563 -0.3343  0.0669
 2557TIP3   OH231865   4.353   0.836  13.857  0.2856  0.0084  0.4252
 2557TIP3    H131866   4.376   0.749  13.823 -0.1401 -0.7757  2.0589
 2557TIP3    H231867   4.345   0.890  13.778  0.0378 -1.5486 -0.6870
 2558TIP3   OH231868   0.265   2.912  16.761 -0.4915  0.6062 -0.0783
 2558TIP3    H131869   0.179   2.949  16.740 -0.4636  1.2939  0.9593
 2558TIP3    H231870   0.312   2.984  16.804  0.7885  0.3955 -1.0549
 2559TIP3   OH231871   1.921   1.623  13.111 -0.2863 -0.3838  0.0494
 2559TIP3    H131872   1.926   1.717  13.129 -0.6615 -0.3490 -0.0216
 2559TIP3    H231873   1.873   1.617  13.029 -2.1844 -0.7276  1.1261
 2560TIP3   OH231874   5.330   2.318  15.067  0.0154  0.1290  0.4620
 2560TIP3    H131875   5.379   2.297  15.147 -0.2002 -1.0093  0.3164
 2560TIP3    H231876   5.238   2.311  15.093 -0.0560  0.3007  0.2546
 2561TIP3   OH231877   6.270   5.512  16.564 -0.0908 -0.4145  0.1386
 2561TIP3    H131878   6.351   5.464  16.580 -0.4080 -0.7558  0.7726
 2561TIP3    H231879   6.235   5.475  16.483  0.2927 -0.3901 -0.0407
 2562TIP3   OH231880   1.747   5.138  14.806 -0.0049 -0.3823 -0.1252
 2562TIP3    H131881   1.728   5.232  14.800 -1.5775 -0.6107  0.6216
 2562TIP3    H231882   1.762   5.110  14.715  0.5111  0.5826 -0.3487
 2563TIP3   OH231883   0.201   0.260  16.861 -0.1324 -0.2134  0.3424
 2563TIP3    H131884   0.203   0.225  16.950  0.6041  1.0737  0.8691
 2563TIP3    H231885   0.200   0.355  16.873 -3.0394  0.0377 -0.9966
 2564TIP3   OH231886   4.654   0.476  16.021 -0.4149 -0.2933  0.5247
 2564TIP3    H131887   4.606   0.472  16.104  0.1451 -0.1033  0.8632
 2564TIP3    H231888   4.708   0.396  16.021 -1.0757 -0.7454 -0.0714
 2565TIP3   OH231889   1.952   1.625  16.885 -0.0917 -0.1056  0.1117
 2565TIP3    H131890   1.872   1.670  16.857 -0.6069 -0.9265  0.2041
 2565TIP3    H231891   2.023   1.673  16.844 -0.7074 -0.0238 -0.8904
 2566TIP3   OH231892   6.739   1.338  16.285  0.6684  0.0500 -0.5615
 2566TIP3    H131893   6.679   1.269  16.259 -1.6486  1.1936  1.4153
 2566TIP3    H231894   6.689   1.419  16.276  1.8589  1.0555  1.2199
 2567TIP3   OH231895   3.896   2.826  16.814 -0.3355 -0.0695 -0.2676
 2567TIP3    H131896   3.843   2.906  16.816 -1.1157 -0.5902  1.1066
 2567TIP3    H231897   3.916   2.809  16.905  1.4983 -0.3846 -0.6983
 2568TIP3   OH231898   1.651   0.853  14.585 -0.0441 -0.7317  0.1874
 2568TIP3    H131899   1.618   0.859  14.496  0.2779  2.6661  0.1598
 2568TIP3    H231900   1.742   0.826  14.575  0.0539 -0.1506 -0.5283
 2569TIP3   OH231901   1.919   2.225  14.583  0.6494  0.1754 -0.2548
 2569TIP3    H131902   1.944   2.316  14.569  0.5218 -0.0056 -1.8119
 2569TIP3    H231903   1.827   2.230  14.610  1.5639  0.6880  3.3280
 2570TIP3   OH231904   0.913   6.224  16.004  0.4579  0.1169  0.2304
 2570TIP3    H131905   0.940   6.286  15.937  0.9596  0.8997  1.1324
 2570TIP3    H231906   0.819   6.239  16.015  0.5367  0.5572  0.2919
 2571TIP3   OH231907   6.126   4.498  14.465 -0.0293  0.3572  0.6167
 2571TIP3    H131908   6.169   4.577  14.433 -0.9615  0.8106  0.4348
 2571TIP3    H231909   6.088   4.523  14.549 -1.8576  0.6769 -0.2381
 2572TIP3   OH231910   2.003   3.984  14.557 -0.0880 -0.4752  0.4682
 2572TIP3    H131911   1.983   3.925  14.630 -0.9886 -0.1079  0.5418
 2572TIP3    H231912   1.951   4.063  14.576  0.1149 -0.1554 -0.2777
 2573TIP3   OH231913   0.309   3.786  16.957 -0.1455  0.2236 -0.3673
 2573TIP3    H131914   0.251   3.856  16.987  2.6454  1.7145  2.0579
 2573TIP3    H231915   0.299   3.717  17.023 -0.7276 -0.4546 -1.1472
 2574TIP3   OH231916   4.167   5.164  16.085  0.1082  0.0183  0.7230
 2574TIP3    H131917   4.150   5.221  16.010 -0.7149  0.6401  1.3508
 2574TIP3    H231918   4.146   5.219  16.161 -1.2307 -1.2651  1.3358
 2575TIP3   OH231919   1.759   0.739  14.951  0.0933 -0.7060 -0.5503
 2575TIP3    H131920   1.684   0.679  14.952 -1.2050  0.8628  0.5427
 2575TIP3    H231921   1.720   0.826  14.955  1.9883  0.1738 -0.3725
 2576TIP3   OH231922   5.846   5.767  15.166  0.1944 -0.3157 -0.1624
 2576TIP3    H131923   5.923   5.793  15.114  0.2746  0.1949  0.2088
 2576TIP3    H231924   5.771   5.797  15.113  0.2870  1.6070  0.6920
 2577TIP3   OH231925   4.205   2.121  14.429  0.3445  0.3044 -0.1529
 2577TIP3    H131926   4.296   2.140  14.403  0.3240  2.5993  1.1800
 2577TIP3    H231927   4.183   2.191  14.490 -1.0313 -2.3965  2.7338
 2578TIP3   OH231928   1.464   1.472  14.811 -0.0703  0.3110  0.1150
 2578TIP3    H131929   1.373   1.491  14.832 -0.6877 -1.2640 -0.9868
 2578TIP3    H231930   1.514   1.541  14.856 -1.7860  1.2386  0.6757
 2579TIP3   OH231931   3.687   2.431  16.580  0.7034  0.6122  0.0821
 2579TIP3    H131932   3.592   2.418  16.583  0.8771 -0.6037  1.4346
 2579TIP3    H231933   3.701   2.516  16.621  0.1296  1.4676 -1.4038
 2580TIP3   OH231934   2.651   5.504  14.256 -0.0210 -0.4180  0.3678
 2580TIP3    H131935   2.607   5.464  14.181 -1.7254 -0.9066  1.5775
 2580TIP3    H231936   2.742   5.511  14.229  0.0955 -3.7736 -0.4827
 2581TIP3   OH231937   6.515   0.419  15.590 -0.6937 -0.1819 -0.4777
 2581TIP3    H131938   6.501   0.325  15.603  0.9883 -0.4126 -0.1907
 2581TIP3    H231939   6.597   0.425  15.542 -0.0530  1.1943  0.7159
 2582TIP3   OH231940   0.397   5.448  16.663 -0.2456 -0.4915 -0.5183
 2582TIP3    H131941   0.302   5.452  16.651 -0.2441  0.2803 -0.3181
 2582TIP3    H231942   0.419   5.528  16.711  0.7451  0.2807 -2.1767
 2583TIP3   OH231943   1.308   2.015  13.535  0.1072 -0.0237  0.0512
 2583TIP3    H131944   1.223   2.011  13.492  0.1619  0.8658 -0.1458
 2583TIP3    H231945   1.370   2.036  13.465  0.4045 -0.0372  0.3041
 2584TIP3   OH231946   1.342   5.430  17.186  0.0327  0.5360  0.1812
 2584TIP3    H131947   1.388   5.348  17.205 -0.6498  0.2491  0.6352
 2584TIP3    H231948   1.389   5.467  17.112  1.1895  0.4021  0.8218
 2585TIP3   OH231949   1.631   0.342  16.103  0.0532  0.2046  0.0889
 2585TIP3    H131950   1.635   0.310  16.193 -0.3915  0.5964  0.2521
 2585TIP3    H231951   1.646   0.436  16.111  0.4762  0.1701 -0.2954
 2586TIP3   OH231952   0.019   1.811  14.124  0.2469 -0.1668  0.5106
 2586TIP3    H131953   0.089   1.842  14.066 -0.0175  1.0086  0.7791
 2586TIP3    H231954  -0.060   1.814  14.070  0.4230 -1.7018  0.1442
 2587TIP3   OH231955   1.662   4.778  15.893 -0.0682 -0.3161  0.4236
 2587TIP3    H131956   1.679   4.737  15.808  0.4571  1.0964 -0.1928
 2587TIP3    H231957   1.749   4.792  15.930 -0.2211  0.4655  0.5002
 2588TIP3   OH231958   6.429   4.083  16.307  0.6760 -0.2231 -0.3543
 2588TIP3    H131959   6.341   4.096  16.343  1.5555  1.1195  1.4835
 2588TIP3    H231960   6.425   3.997  16.266 -1.2318 -0.6264  0.5355
 2589TIP3   OH231961   2.192   3.108  14.230 -0.5951 -0.1717  0.0834
 2589TIP3    H131962   2.150   3.061  14.158 -0.0229  0.6249 -0.8057
 2589TIP3    H231963   2.123   3.165  14.264 -0.2246  1.4007 -1.6069
 2590TIP3   OH231964   1.350   5.360  15.172  0.0554  0.0600  0.1848
 2590TIP3    H131965   1.394   5.390  15.252 -0.3837  0.6153  0.2279
 2590TIP3    H231966   1.385   5.273  15.155 -1.9989 -1.3695  2.6505
 2591TIP3   OH231967   1.651   4.900  15.478  0.0077  0.2180 -0.0401
 2591TIP3    H131968   1.556   4.891  15.489  0.1007 -1.4303 -0.2549
 2591TIP3    H231969   1.676   4.825  15.425  1.3499  1.0243 -0.5998
 2592TIP3   OH231970   5.294   3.440  16.086 -0.2683 -0.3272  0.4652
 2592TIP3    H131971   5.365   3.376  16.091 -0.1703 -0.1787  0.9937
 2592TIP3    H231972   5.289   3.463  15.993  1.1792  0.5633  0.5873
 2593TIP3   OH231973   3.844   1.382  13.460 -0.5473 -0.1786 -0.3575
 2593TIP3    H131974   3.846   1.470  13.422 -0.4474 -0.8684 -2.0033
 2593TIP3    H231975   3.909   1.386  13.531 -0.4405  1.0232 -0.4932
 2594TIP3   OH231976   0.476   1.520  13.134  0.3549  0.4479 -0.1867
 2594TIP3    H131977   0.388   1.484  13.127  1.1651 -1.2664 -2.8617
 2594TIP3    H231978   0.463   1.615  13.143 -1.7199  0.1328  0.7601
 2595TIP3   OH231979   2.021   6.694  14.449 -0.7367 -0.0722  0.0737
 2595TIP3    H131980   1.973   6.643  14.384 -0.5327 -1.3448  0.8985
 2595TIP3    H231981   2.008   6.647  14.531  1.2905 -0.0142  0.4609
 2596TIP3   OH231982   6.091   3.207  15.694 -0.1795 -0.1590  0.4670
 2596TIP3    H131983   6.116   3.172  15.780 -1.2770 -1.4251  0.3037
 2596TIP3    H231984   6.007   3.250  15.710 -0.8510 -1.2160 -0.1333
 2597TIP3   OH231985   6.593   1.251  13.686  0.0857 -0.3113 -0.5909
 2597TIP3    H131986   6.575   1.170  13.733  0.7934 -0.5497 -0.7285
 2597TIP3    H231987   6.509   1.275  13.648 -1.0285  0.8965  2.2997
 2598TIP3   OH231988   1.474   2.702  15.658 -0.2377  0.3089 -0.2717
 2598TIP3    H131989   1.458   2.770  15.594  1.5572  0.6584 -0.3993
 2598TIP3    H231990   1.456   2.620  15.612  1.2274  0.5479 -1.3245
 2599TIP3   OH231991   4.735   3.696  15.216 -0.3630  0.5038 -0.1065
 2599TIP3    H131992   4.670   3.638  15.256  0.3978 -0.3628 -0.1077
 2599TIP3    H231993   4.690   3.780  15.208 -1.3865 -0.0026  0.1660
 2600TIP3   OH231994   3.233   4.904  15.545 -0.1225 -0.1778  0.4421
 2600TIP3    H131995   3.280   4.871  15.622  0.1652 -0.2061  0.2530
 2600TIP3    H231996   3.170   4.835  15.524  2.0139 -1.7277 -1.3762
 2601TIP3   OH231997   2.550   0.020  15.826 -0.5153 -0.0015 -0.0789
 2601TIP3    H131998   2.604  -0.056  15.806  2.6937  2.0343  0.2470
 2601TIP3    H231999   2.517   0.004  15.914  0.1405 -0.9854 -0.0015
 2602TIP3   OH232000   5.784   6.343  15.488 -0.4338 -0.2165 -0.2586
 2602TIP3    H132001   5.863   6.296  15.462  0.0498  0.2124  0.3879
 2602TIP3    H232002   5.760   6.304  15.572  1.0086  1.8005  1.2074
 2603TIP3   OH232003   2.910   4.851  15.046 -0.2790  0.1306 -0.4589
 2603TIP3    H132004   2.948   4.895  15.122 -0.5023  1.3457 -1.0141
 2603TIP3    H232005   2.870   4.772  15.081  1.8729 -0.6884  0.2808
 2604TIP3   OH232006   3.280   6.524  15.945  0.2429  0.1215 -0.3453
 2604TIP3    H132007   3.203   6.579  15.958  0.5974  0.4777  0.3118
 2604TIP3    H232008   3.306   6.538  15.854  0.2576  0.9513 -0.2152
 2605TIP3   OH232009   3.529   2.538  15.302 -0.3410 -0.0313 -0.1928
 2605TIP3    H132010   3.591   2.510  15.235  0.2943 -0.9734  0.7543
 2605TIP3    H232011   3.555   2.490  15.381 -1.0461  1.0695  0.7453
 2606TIP3   OH232012   4.824   2.279  15.056  0.3647 -0.5653 -0.5688
 2606TIP3    H132013   4.873   2.298  14.977  1.9262 -0.3902  0.3992
 2606TIP3    H232014   4.790   2.364  15.085  0.7703 -0.4527 -0.4272
 2607TIP3   OH232015   0.771   0.504  14.852 -0.0733  0.2817 -0.0697
 2607TIP3    H132016   0.706   0.572  14.869 -0.8763 -0.0047 -1.8138
 2607TIP3    H232017   0.838   0.547  14.800  0.7887  0.3775  1.0747
 2608TIP3   OH232018   3.604   1.208  15.236  0.2423  0.1930 -0.1764
 2608TIP3    H132019   3.549   1.135  15.266  0.0205  0.4652  0.0948
 2608TIP3    H232020   3.560   1.241  15.158  1.0821 -0.8247 -1.1028
 2609TIP3   OH232021   0.500   2.566  16.630 -0.1627  0.4874 -0.4435
 2609TIP3    H132022   0.465   2.481  16.603 -0.4207  0.6842 -0.7426
 2609TIP3    H232023   0.544   2.601  16.552 -0.0854  0.6402 -0.3332
 2610TIP3   OH232024   2.902   4.204  16.104 -0.0246  0.7927 -0.3679
 2610TIP3    H132025   2.850   4.124  16.112  0.2352  0.7511  1.1169
 2610TIP3    H232026   2.839   4.272  16.080 -0.4089  0.3409 -0.6396
 2611TIP3   OH232027   0.173   1.155  14.535 -0.1994  0.0811  0.1632
 2611TIP3    H132028   0.261   1.131  14.506 -0.9389  0.2901 -2.4296
 2611TIP3    H232029   0.162   1.246  14.506 -0.3861  0.9985  2.7871
 2612TIP3   OH232030   3.989   2.664  15.698  0.6639 -0.1350 -0.3912
 2612TIP3    H132031   4.036   2.594  15.652 -0.1544 -1.6090  0.9176
 2612TIP3    H232032   3.904   2.625  15.720  0.8447  0.6517  1.9279
 2613TIP3   OH232033   0.636   3.831  16.576 -0.3581  0.3204 -0.6933
 2613TIP3    H132034   0.688   3.862  16.651  1.6220 -2.7571 -0.5795
 2613TIP3    H232035   0.677   3.872  16.500 -1.0008  1.7813 -0.2822
 2614TIP3   OH232036   3.595   3.689  14.633 -0.0997  0.1578 -0.4115
 2614TIP3    H132037   3.574   3.757  14.568  0.0364  0.8601  0.2641
 2614TIP3    H232038   3.510   3.662  14.667 -0.1742 -0.2405 -0.9056
 2615TIP3   OH232039   4.908   4.655  15.348 -0.4543  1.1010 -0.3992
 2615TIP3    H132040   4.865   4.611  15.275 -0.6144  1.7075 -0.6760
 2615TIP3    H232041   4.882   4.604  15.425  0.9563 -0.4538 -0.9177
 2616TIP3   OH232042   2.081   0.799  16.979  0.4729  0.0947 -0.4881
 2616TIP3    H132043   2.176   0.805  16.972  0.4435 -0.7223 -2.0766
 2616TIP3    H232044   2.050   0.889  16.966  1.0609  0.6891  1.8059
 2617TIP3   OH232045   0.087   1.808  15.702 -0.2874 -0.0460  0.1224
 2617TIP3    H132046   0.174   1.847  15.698  0.1813 -1.0942 -0.3663
 2617TIP3    H232047   0.048   1.826  15.617 -0.4469  0.1764  0.2408
 2618TIP3   OH232048   1.254   4.101  14.103 -0.2574  0.3640 -0.4229
 2618TIP3    H132049   1.173   4.052  14.086 -0.8700  0.5750  1.6566
 2618TIP3    H232050   1.300   4.048  14.169  0.8547  0.7476 -0.8686
 2619TIP3   OH232051   4.641   1.526  16.576  0.4262 -0.1185 -0.1422
 2619TIP3    H132052   4.601   1.575  16.647  0.7119 -1.1835  0.7790
 2619TIP3    H232053   4.717   1.579  16.549 -0.2679  0.7879 -0.3700
 2620TIP3   OH232054   5.211   4.143  14.069  0.0402 -0.0871 -1.0033
 2620TIP3    H132055   5.270   4.207  14.028  1.0289 -0.0428  0.4141
 2620TIP3    H232056   5.155   4.113  13.997  2.1635 -0.5743 -2.5789
 2621TIP3   OH232057   2.198   0.931  14.276  0.1262  0.1540 -0.7770
 2621TIP3    H132058   2.254   0.872  14.225 -0.8548 -1.2061 -0.3399
 2621TIP3    H232059   2.113   0.927  14.233 -0.3550  0.0519  0.1471
 2622TIP3   OH232060   4.028   0.681  14.403  0.0484 -0.0319 -0.5231
 2622TIP3    H132061   4.117   0.647  14.412 -0.2065 -1.3613 -2.4395
 2622TIP3    H232062   3.971   0.608  14.430 -0.4986  0.8887  0.9416
 2623TIP3   OH232063   5.550   4.441  16.915  0.0167 -0.4204  0.6019
 2623TIP3    H132064   5.603   4.418  16.839  0.5191 -1.4554  1.2514
 2623TIP3    H232065   5.511   4.359  16.944  0.5255 -0.1899  1.9863
 2624TIP3   OH232066   6.013   6.338  15.760 -0.3353  0.0339  0.6556
 2624TIP3    H132067   6.019   6.331  15.855 -1.4839  0.7935  0.8012
 2624TIP3    H232068   5.937   6.395  15.744  0.7215  1.1513 -0.6793
 2625TIP3   OH232069   6.712   1.892  15.465 -0.2770  0.3524  0.1229
 2625TIP3    H132070   6.766   1.960  15.423  0.6108 -0.0803  0.5304
 2625TIP3    H232071   6.729   1.813  15.413 -0.4389  0.1922  0.3154
 2626TIP3   OH232072   2.711   5.858  14.417 -0.3554 -0.0437 -0.4578
 2626TIP3    H132073   2.771   5.783  14.415 -0.6529 -0.6637  3.7845
 2626TIP3    H232074   2.625   5.819  14.400 -0.2601 -0.2980 -0.3668
 2627TIP3   OH232075   0.747   1.658  14.889 -0.1690  0.2105 -0.0165
 2627TIP3    H132076   0.802   1.707  14.827  0.0597 -1.2658 -1.0401
 2627TIP3    H232077   0.809   1.613  14.946 -0.3802  1.0685  0.9236
 2628TIP3   OH232078   4.089   0.909  15.172 -0.5108  0.0493 -0.0828
 2628TIP3    H132079   4.109   0.992  15.216 -0.2710 -0.6230  1.1176
 2628TIP3    H232080   4.000   0.921  15.138 -1.2790  0.1139  1.8499
 2629TIP3   OH232081   3.451   0.240  13.731  0.7016  0.5853 -0.2146
 2629TIP3    H132082   3.390   0.276  13.796 -1.3963 -0.8975 -1.2355
 2629TIP3    H232083   3.410   0.261  13.647  0.4648 -2.2080 -0.8997
 2630TIP3   OH232084   2.891   4.390  14.419 -0.1328  0.2610  0.0757
 2630TIP3    H132085   2.848   4.432  14.494  1.8747  0.3798  1.2301
 2630TIP3    H232086   2.894   4.298  14.441  1.8612  0.4894  0.9356
 2631TIP3   OH232087   4.455   6.041  16.838  0.1925 -0.0091  0.0801
 2631TIP3    H132088   4.420   6.023  16.751 -0.0220 -0.6245  0.2906
 2631TIP3    H232089   4.385   6.016  16.898 -0.2478  1.8238  0.3980
 2632TIP3   OH232090   2.922   3.287  16.244 -0.3806  0.6586 -0.4803
 2632TIP3    H132091   2.957   3.198  16.244 -1.2192  0.3013  1.0307
 2632TIP3    H232092   2.828   3.276  16.231 -0.3391  1.4290 -1.6064
 2633TIP3   OH232093   2.277   0.093  17.022 -0.2099  0.4871  0.2634
 2633TIP3    H132094   2.211   0.098  17.091 -0.9278  2.3001 -0.5072
 2633TIP3    H232095   2.286  -0.001  17.005 -0.1763 -0.0072  2.6146
 2634TIP3   OH232096   4.282   6.507  17.117  0.0592 -0.5756  0.6691
 2634TIP3    H132097   4.248   6.453  17.189  0.8875 -3.3138 -0.8259
 2634TIP3    H232098   4.331   6.445  17.062  0.6716  1.6641 -1.4874
 2635TIP3   OH232099   1.434   6.316  16.299  0.2000  0.2748 -0.3050
 2635TIP3    H132100   1.411   6.322  16.392  1.4756  0.0735  0.0425
 2635TIP3    H232101   1.370   6.372  16.254 -0.5502  0.2213  0.6627
 2636TIP3   OH232102   1.264   6.693  16.002  0.1933 -0.6242  0.1936
 2636TIP3    H132103   1.213   6.631  15.949 -2.0493  0.4086  1.0217
 2636TIP3    H232104   1.278   6.648  16.085  0.6860 -0.9159 -0.0409
 2637TIP3   OH232105   1.042   6.063  14.589  0.2545 -0.1255 -0.3154
 2637TIP3    H132106   1.112   6.042  14.527  0.5781 -1.3371  0.4169
 2637TIP3    H232107   1.002   5.978  14.609 -1.8237  0.6000 -1.1528
 2638TIP3   OH232108   1.467   0.476  13.333  0.3081  0.1754  0.9230
 2638TIP3    H132109   1.408   0.546  13.359  2.3750  1.7544  1.6380
 2638TIP3    H232110   1.458   0.471  13.238 -1.6174 -0.2944  1.0939
 2639TIP3   OH232111   4.613   5.622  16.286 -0.4331 -0.2018  0.3667
 2639TIP3    H132112   4.522   5.635  16.314 -0.0584 -0.3672  1.7315
 2639TIP3    H232113   4.640   5.708  16.254 -1.1424 -0.2188 -0.3309
 2640TIP3   OH232114   5.250   6.421  14.482  0.4668 -0.4059 -0.1576
 2640TIP3    H132115   5.342   6.394  14.481  0.9448  1.0851  0.2793
 2640TIP3    H232116   5.254   6.517  14.483 -1.1025 -0.3173 -0.2640
 2641TIP3   OH232117   0.294   3.173  14.146 -0.1752  0.2044  0.2357
 2641TIP3    H132118   0.332   3.131  14.224 -1.2285  0.7041  1.0385
 2641TIP3    H232119   0.366   3.225  14.109  0.5852 -0.7321  0.3485
 2642TIP3   OH232120   0.838   1.285  14.106 -0.1630  0.1082 -0.0972
 2642TIP3    H132121   0.899   1.288  14.032  2.1100 -0.0015  1.6591
 2642TIP3    H232122   0.787   1.366  14.097  1.7874  1.3768 -0.4449
 2643TIP3   OH232123   2.033   6.170  15.138 -0.2092 -0.3450  0.4788
 2643TIP3    H132124   2.124   6.196  15.147 -0.3931  0.0583  1.2281
 2643TIP3    H232125   2.036   6.084  15.095  0.5049 -0.2346  0.3024
 2644TIP3   OH232126   2.783   5.521  16.829  0.4596  0.0702  0.0743
 2644TIP3    H132127   2.788   5.616  16.842  2.5028  0.1773 -0.9954
 2644TIP3    H232128   2.695   5.506  16.795  0.4557  1.7464 -0.7709
 2645TIP3   OH232129   1.970   4.822  14.530 -0.1553  0.4360  0.4759
 2645TIP3    H132130   2.051   4.869  14.512 -0.2134  0.1184 -0.7712
 2645TIP3    H232131   1.901   4.881  14.500 -0.2294 -0.3757 -1.1205
 2646TIP3   OH232132   0.722   6.664  13.440  0.6246 -0.0540 -0.0019
 2646TIP3    H132133   0.634   6.625  13.441  0.7882 -0.4200  0.1914
 2646TIP3    H232134   0.763   6.631  13.520  1.4215 -0.9858 -0.7836
 2647TIP3   OH232135   2.186   3.697  14.534 -0.8984  0.3280  0.0854
 2647TIP3    H132136   2.122   3.676  14.465 -0.5385  1.4925 -0.6490
 2647TIP3    H232137   2.153   3.779  14.572  0.1678  0.9872 -0.3590
 2648TIP3   OH232138   2.518   6.014  16.895  0.2171 -0.3770 -0.4235
 2648TIP3    H132139   2.460   6.039  16.823  0.2022  0.6410 -0.0744
 2648TIP3    H232140   2.465   6.028  16.974  1.1192  1.2060 -0.0559
 2649TIP3   OH232141   5.525   2.477  14.834 -0.1019 -0.1070 -0.1717
 2649TIP3    H132142   5.449   2.439  14.877  0.4162  0.2277  1.0844
 2649TIP3    H232143   5.513   2.572  14.842 -0.0656 -0.0360 -0.8994
 2650TIP3   OH232144   4.249   6.446  16.529 -0.1888 -0.6298 -0.1955
 2650TIP3    H132145   4.196   6.522  16.554  0.4105 -0.5818  1.0220
 2650TIP3    H232146   4.212   6.374  16.579  2.2465 -0.1596  2.5759
 2651TIP3   OH232147   4.773   1.454  14.822 -0.0242  0.4824 -0.1573
 2651TIP3    H132148   4.691   1.454  14.773 -0.0951  1.1061 -0.0527
 2651TIP3    H232149   4.823   1.381  14.785 -1.2795 -0.9720  0.9037
 2652TIP3   OH232150   1.178   3.677  15.393  0.3560  0.1125 -0.5999
 2652TIP3    H132151   1.173   3.635  15.479  2.3333 -0.2497 -0.6298
 2652TIP3    H232152   1.109   3.635  15.342  1.0967 -1.8514 -0.0795
 2653TIP3   OH232153   4.394   0.494  16.466  0.3278  0.5667 -0.1100
 2653TIP3    H132154   4.469   0.551  16.484  1.8230 -1.2982 -0.1575
 2653TIP3    H232155   4.431   0.418  16.422 -1.8230  0.2337 -1.5011
 2654TIP3   OH232156   4.547   4.136  16.956 -0.4777 -0.7485  0.2453
 2654TIP3    H132157   4.530   4.224  16.988  0.7476 -0.6757  0.7784
 2654TIP3    H232158   4.547   4.144  16.861 -1.8016 -0.4757  0.2578
 2655TIP3   OH232159   4.837   2.248  16.211  0.7692 -0.2923  0.1112
 2655TIP3    H132160   4.811   2.340  16.213  2.4511  0.2350 -0.3232
 2655TIP3    H232161   4.805   2.216  16.127  2.7158  0.7740 -1.1300
 2656TIP3   OH232162   6.159   3.289  16.087  0.5028 -0.2353 -0.3039
 2656TIP3    H132163   6.091   3.303  16.153  0.6833  2.5116 -0.5610
 2656TIP3    H232164   6.144   3.200  16.055 -0.4312 -1.1642  2.4425
 2657TIP3   OH232165   0.627   0.378  14.562  0.3090 -0.0343  0.2027
 2657TIP3    H132166   0.684   0.301  14.566 -0.2798 -0.5459 -0.8541
 2657TIP3    H232167   0.550   0.348  14.515  0.6553  1.5708 -1.5141
 2658TIP3   OH232168   0.288   2.867  16.105 -0.0217  0.2317  0.2522
 2658TIP3    H132169   0.329   2.931  16.163 -1.5373  2.4422 -0.9747
 2658TIP3    H232170   0.194   2.883  16.114 -0.5510 -2.5739  0.6529
 2659TIP3   OH232171   3.396   4.625  15.603 -0.0059 -0.3212  0.1360
 2659TIP3    H132172   3.352   4.544  15.627  1.5420 -1.7125 -1.4458
 2659TIP3    H232173   3.438   4.655  15.684 -1.3590 -0.5497  0.9485
 2660TIP3   OH232174   3.303   5.191  16.194 -0.3901  0.9924  0.5138
 2660TIP3    H132175   3.253   5.199  16.112 -0.7636  0.5668  0.6930
 2660TIP3    H232176   3.393   5.176  16.166 -0.9132 -2.0336  0.0908
 2661TIP3   OH232177   4.030   4.535  14.715 -0.2813  0.0810 -0.2911
 2661TIP3    H132178   4.044   4.534  14.620 -0.8222 -0.5944 -0.3711
 2661TIP3    H232179   3.941   4.500  14.727 -0.2620  0.2635  0.4560
 2662TIP3   OH232180   6.615   2.321  13.529 -0.1809  0.1933 -0.9080
 2662TIP3    H132181   6.610   2.413  13.502  0.2603  0.6732  0.5165
 2662TIP3    H232182   6.523   2.293  13.533 -0.3779  0.8624 -0.4698
 2663TIP3   OH232183   1.816   6.076  15.823  0.6638  0.3748 -0.2288
 2663TIP3    H132184   1.799   6.128  15.744 -2.3068  1.4805  0.9895
 2663TIP3    H232185   1.765   5.995  15.810  1.2120 -0.0122  0.0042
 2664TIP3   OH232186   3.111   2.928  14.365  0.3191  0.0915 -0.4327
 2664TIP3    H132187   3.183   2.910  14.304  1.9413 -2.3041  1.9671
 2664TIP3    H232188   3.102   2.847  14.415 -3.7303  0.5239 -0.1862
 2665TIP3   OH232189   4.603   0.858  15.888 -0.5004  0.3666 -0.0237
 2665TIP3    H132190   4.582   0.811  15.807 -3.1376  1.6270 -0.1827
 2665TIP3    H232191   4.627   0.790  15.950 -1.2733 -0.9006 -1.0654
 2666TIP3   OH232192   3.176   4.421  15.472  0.2501 -0.0223  0.2740
 2666TIP3    H132193   3.269   4.404  15.485  0.5386  0.5652 -0.8678
 2666TIP3    H232194   3.133   4.338  15.490  0.8713 -0.0340  1.8583
 2667TIP3   OH232195   3.042   5.439  16.867  0.1730  0.2217 -0.5546
 2667TIP3    H132196   3.101   5.514  16.864 -0.3300  0.5949 -2.1687
 2667TIP3    H232197   2.959   5.473  16.833 -0.5061 -0.7055  0.1124
 2668TIP3   OH232198   4.037   4.208  15.843 -0.2161  0.2690 -0.2341
 2668TIP3    H132199   4.130   4.209  15.866 -0.0621 -0.7403 -0.7464
 2668TIP3    H232200   4.003   4.290  15.879  0.8759  0.6780 -0.0746
 2669TIP3   OH232201   4.801   1.507  15.764 -0.0248  0.3300 -0.2484
 2669TIP3    H132202   4.860   1.542  15.831  1.0446  0.0062 -0.9880
 2669TIP3    H232203   4.744   1.446  15.811  1.4401 -0.7421  0.1966
 2670TIP3   OH232204   4.574   5.119  16.344  0.5904 -0.1347 -0.2472
 2670TIP3    H132205   4.529   5.201  16.325 -0.5195 -0.9307 -1.1883
 2670TIP3    H232206   4.539   5.057  16.279  1.3633 -1.3619  0.4758
 2671TIP3   OH232207   6.563   1.024  13.817 -0.0298  0.0780  0.0691
 2671TIP3    H132208   6.568   0.984  13.904  2.4101 -0.7569 -0.3952
 2671TIP3    H232209   6.612   0.965  13.760 -1.3799  0.7147 -1.8820
 2672TIP3   OH232210   1.541   4.465  16.680 -0.2318 -0.1030 -0.1281
 2672TIP3    H132211   1.527   4.377  16.645 -0.2175  0.1585 -0.8084
 2672TIP3    H232212   1.457   4.509  16.666  0.8363  1.2360 -3.5104
 2673TIP3   OH232213   4.730   6.080  16.698 -0.2647  0.1896 -0.4040
 2673TIP3    H132214   4.637   6.093  16.714  0.0294  2.5964 -0.3844
 2673TIP3    H232215   4.772   6.161  16.725  1.9322 -1.0003  0.0472
 2674TIP3   OH232216   2.401   6.570  15.447  0.1769 -0.1050 -0.4372
 2674TIP3    H132217   2.308   6.549  15.444  0.5196 -1.9106  0.4128
 2674TIP3    H232218   2.444   6.500  15.398  1.0999  0.7491 -0.9005
 2675TIP3   OH232219   5.744   6.158  15.265 -0.0714 -0.1683  0.0480
 2675TIP3    H132220   5.820   6.107  15.293 -0.4916 -1.2857 -0.7300
 2675TIP3    H232221   5.704   6.188  15.346  2.4119  2.4122  0.4813
 2676TIP3   OH232222   4.425   2.991  16.490 -0.3456  0.2799  0.1797
 2676TIP3    H132223   4.348   2.984  16.546 -0.3570  1.0387  0.2704
 2676TIP3    H232224   4.410   3.070  16.438  0.0134 -0.0012 -0.3597
 2677TIP3   OH232225   5.266   5.167  16.079 -0.3906 -0.3728  0.3936
 2677TIP3    H132226   5.343   5.209  16.116 -1.3384  2.2749 -0.3540
 2677TIP3    H232227   5.280   5.170  15.984 -1.3245  0.0197  0.2531
 2678TIP3   OH232228   0.062   5.734  14.769  0.1751 -0.1899 -0.0269
 2678TIP3    H132229   0.122   5.749  14.696 -0.5169  0.4378 -0.4802
 2678TIP3    H232230  -0.023   5.764  14.736 -0.3923 -1.1009  0.5938
 2679TIP3   OH232231   2.616   0.899  16.012  0.3155  0.3423  0.3612
 2679TIP3    H132232   2.655   0.876  15.928 -0.9219 -1.1508  0.1490
 2679TIP3    H232233   2.550   0.966  15.991 -1.3801 -1.4222 -0.2238
 2680TIP3   OH232234   3.280   1.488  16.472  0.7460  0.0031 -0.3717
 2680TIP3    H132235   3.269   1.582  16.490  0.8296 -0.1527  0.5753
 2680TIP3    H232236   3.217   1.469  16.403 -0.0597  0.5349  0.1882
 2681TIP3   OH232237   0.910   4.207  15.126  0.2231 -0.0958 -0.0702
 2681TIP3    H132238   0.923   4.148  15.201  1.0517 -1.6789 -1.3960
 2681TIP3    H232239   0.816   4.204  15.108  0.1504 -0.3971  0.3541
 2682TIP3   OH232240   2.132   2.130  16.250  0.6515 -0.4611  0.4622
 2682TIP3    H132241   2.051   2.134  16.198 -0.3480  0.0482  2.0073
 2682TIP3    H232242   2.167   2.219  16.248 -0.2652 -0.0397  1.9642
 2683TIP3   OH232243   1.797   1.489  14.996 -0.4392 -0.4463 -0.4718
 2683TIP3    H132244   1.758   1.402  15.005 -1.7178  0.2123  0.8560
 2683TIP3    H232245   1.724   1.549  15.012  0.7395  0.8608  0.2350
 2684TIP3   OH232246   2.855   1.770  13.191  0.0994  0.5354  0.6706
 2684TIP3    H132247   2.859   1.809  13.103  2.5000  0.1368  0.5265
 2684TIP3    H232248   2.764   1.745  13.202 -0.4520  1.4351 -1.3397
 2685TIP3   OH232249   0.306   0.493  15.258 -0.2091  0.5173 -0.0376
 2685TIP3    H132250   0.323   0.452  15.343 -1.4041  0.4037  0.1595
 2685TIP3    H232251   0.392   0.496  15.216  0.1140 -1.0680  0.4345
 2686TIP3   OH232252   0.851   6.053  17.309 -0.2633  0.7718 -0.1743
 2686TIP3    H132253   0.832   6.051  17.403  1.2931  0.9796  0.1700
 2686TIP3    H232254   0.855   5.961  17.283  1.5131  0.6475  0.4599
 2687TIP3   OH232255   5.165   4.757  14.786 -0.1374 -0.4405  0.5145
 2687TIP3    H132256   5.186   4.838  14.740  0.2328 -0.0776  1.3205
 2687TIP3    H232257   5.072   4.762  14.804  0.3330  1.0780  2.9565
 2688TIP3   OH232258   3.201   2.816  15.685 -0.1932  0.1828 -0.3838
 2688TIP3    H132259   3.147   2.742  15.714 -1.1187  1.2146  0.6233
 2688TIP3    H232260   3.229   2.858  15.766  1.3174  0.2506 -0.9253
 2689TIP3   OH232261   1.916   3.784  14.754  0.2433  0.3293 -0.0103
 2689TIP3    H132262   1.857   3.793  14.829  1.0643  3.3062  0.3991
 2689TIP3    H232263   1.959   3.699  14.767 -0.3914  0.2974  2.3223
 2690TIP3   OH232264   5.916   4.680  16.478 -0.1072 -0.9877  0.0900
 2690TIP3    H132265   5.885   4.673  16.387  0.2529  3.0396 -0.5232
 2690TIP3    H232266   5.836   4.680  16.531 -1.0043  3.1780 -0.9431
 2691TIP3   OH232267   5.384   4.210  16.720 -0.3427  0.2741 -0.4902
 2691TIP3    H132268   5.415   4.299  16.703  1.7779 -0.2910  0.2088
 2691TIP3    H232269   5.341   4.215  16.805  0.0116  0.5616 -0.3302
 2692TIP3   OH232270   5.430   1.710  13.672  0.0515  0.1133 -0.2189
 2692TIP3    H132271   5.476   1.675  13.596  1.6906  1.0658  0.2657
 2692TIP3    H232272   5.500   1.743  13.729 -1.1941  0.6181  1.1016
 2693TIP3   OH232273   4.524   2.038  14.111  0.6155  0.4640  0.0289
 2693TIP3    H132274   4.491   1.974  14.173  1.3757  0.1985  0.1655
 2693TIP3    H232275   4.610   2.006  14.086  0.1098  0.2954 -1.5733
 2694TIP3   OH232276   0.652   0.744  14.917  0.4193 -0.4135 -0.3040
 2694TIP3    H132277   0.636   0.790  14.999  1.1818 -0.1198 -0.3144
 2694TIP3    H232278   0.606   0.795  14.851 -0.5488 -0.8812 -0.0118
 2695TIP3   OH232279   0.110   1.292  12.798 -0.1808 -0.9055  1.1687
 2695TIP3    H132280   0.158   1.224  12.751  0.6856 -0.8091  1.8903
 2695TIP3    H232281   0.140   1.285  12.889 -1.2906 -0.6207  1.5777
 2696TIP3   OH232282   0.792   0.753  15.516  0.2862 -0.0836  0.0166
 2696TIP3    H132283   0.783   0.733  15.610 -0.3809 -0.2881 -0.0876
 2696TIP3    H232284   0.832   0.840  15.514  1.6693 -0.6688  0.4885
 2697TIP3   OH232285   3.933   0.533  15.956 -0.4190 -0.5941 -0.6571
 2697TIP3    H132286   3.852   0.483  15.958 -1.3755  0.9075  0.9144
 2697TIP3    H232287   3.994   0.481  16.009 -1.4914 -0.0350  1.2302
 2698TIP3   OH232288   4.939   0.349  15.931 -0.2474  0.2968  0.0084
 2698TIP3    H132289   4.937   0.392  15.846  0.8206 -1.0597 -0.7420
 2698TIP3    H232290   5.007   0.395  15.980  0.1098  0.1891 -0.3844
 2699TIP3   OH232291   2.299   0.807  16.183 -0.2825 -0.2544  0.1665
 2699TIP3    H132292   2.287   0.716  16.154  0.2513 -0.2472 -0.0798
 2699TIP3    H232293   2.393   0.820  16.182 -0.4010  0.6080 -0.7250
 2700TIP3   OH232294   1.130   6.190  15.113 -0.1256  0.1993  0.4947
 2700TIP3    H132295   1.115   6.180  15.019 -3.0151 -1.4180  1.0053
 2700TIP3    H232296   1.174   6.109  15.138 -1.7611 -0.6061  0.8899
 2701TIP3   OH232297   5.920   0.718  16.838 -0.0167 -0.2132  0.2736
 2701TIP3    H132298   5.987   0.681  16.780 -0.4577 -1.1221  0.3142
 2701TIP3    H232299   5.926   0.665  16.918 -0.4389  0.0255  0.4683
 2702TIP3   OH232300   4.470   5.065  14.241 -0.0990  0.1023  0.2325
 2702TIP3    H132301   4.403   5.131  14.221 -0.3282  0.5867  2.4136
 2702TIP3    H232302   4.459   4.999  14.172 -0.5065  1.8205 -1.4512
 2703TIP3   OH232303   3.323   6.408  13.982 -0.3407  0.0620 -0.1117
 2703TIP3    H132304   3.378   6.330  13.989  1.5116  1.2316 -0.6630
 2703TIP3    H232305   3.250   6.382  13.927  0.8096 -1.0263 -1.1925
 2704TIP3   OH232306   4.946   5.653  16.521  0.6410 -0.8839  0.3650
 2704TIP3    H132307   4.963   5.575  16.468 -0.6671 -2.1205  1.6717
 2704TIP3    H232308   5.033   5.693  16.533  1.1566 -1.3754 -1.4012
 2705TIP3   OH232309   2.096   0.259  14.882  0.6483  0.4480  0.1566
 2705TIP3    H132310   2.135   0.293  14.963  1.8578 -0.3772 -0.0549
 2705TIP3    H232311   2.166   0.265  14.817  0.0468  0.0303 -0.5426
 2706TIP3   OH232312   1.150   2.309  14.215 -0.4366 -0.0837  0.3912
 2706TIP3    H132313   1.158   2.401  14.187 -1.4318  0.8591  2.9162
 2706TIP3    H232314   1.140   2.314  14.310 -1.6662 -2.7593  0.4823
 2707TIP3   OH232315   1.836   0.651  16.953 -0.2127  0.4966  0.0368
 2707TIP3    H132316   1.788   0.706  16.891  0.2226  1.7354  0.7533
 2707TIP3    H232317   1.904   0.708  16.987 -1.5430  0.5002  3.0175
 2708TIP3   OH232318   6.315   0.975  16.885  0.1355  0.5328 -0.3029
 2708TIP3    H132319   6.356   0.945  16.966  0.2068  0.1325 -0.4833
 2708TIP3    H232320   6.288   0.894  16.841 -0.7819  0.7831 -0.2211
 2709TIP3   OH232321   3.619   4.367  14.961  0.0373  0.3458  0.2840
 2709TIP3    H132322   3.610   4.275  14.983  0.2279 -0.0101 -1.0716
 2709TIP3    H232323   3.544   4.387  14.906  0.8613  0.5562 -0.7987
 2710TIP3   OH232324   6.708   0.551  14.198  0.4128  0.2113 -0.1620
 2710TIP3    H132325   6.798   0.584  14.196  0.6920 -0.5285 -2.4114
 2710TIP3    H232326   6.683   0.555  14.290  2.3961  1.3536  0.3801
 2711TIP3   OH232327   2.157   4.221  14.001  0.4003  0.0445 -0.3133
 2711TIP3    H132328   2.236   4.171  13.981  1.7152  1.7383  0.3570
 2711TIP3    H232329   2.173   4.307  13.961 -0.7758  0.6513  0.4652
 2712TIP3   OH232330   3.456   4.040  15.273  0.5943 -0.7793 -0.4987
 2712TIP3    H132331   3.540   4.084  15.280  0.2856  0.0892 -1.9477
 2712TIP3    H232332   3.394   4.108  15.245 -0.2722 -1.7050 -0.9303
 2713TIP3   OH232333   2.889   2.368  16.489  0.1966  0.2251  0.2688
 2713TIP3    H132334   2.945   2.413  16.551  0.0067 -0.6087  1.0720
 2713TIP3    H232335   2.948   2.337  16.420  0.5379  0.3962  0.4845
 2714TIP3   OH232336   1.771   1.530  14.067 -0.5524  0.3090 -0.1875
 2714TIP3    H132337   1.760   1.462  14.134 -1.2398 -0.0917 -0.6977
 2714TIP3    H232338   1.789   1.481  13.986  0.4210  0.7940 -0.2810
 2715TIP3   OH232339   5.115   1.794  16.931 -0.4377 -0.0214  0.0845
 2715TIP3    H132340   5.170   1.783  16.853  0.4243  0.7481  0.5800
 2715TIP3    H232341   5.174   1.784  17.005 -1.2513 -0.7257  0.6612
 2716TIP3   OH232342   4.414   0.412  14.506  0.1476 -0.3635  0.4321
 2716TIP3    H132343   4.486   0.472  14.526  1.1938 -1.1409 -0.7941
 2716TIP3    H232344   4.407   0.357  14.584  1.2819 -0.6233  0.3813
 2717TIP3   OH232345   1.034   0.371  14.240 -0.1535  0.6831  0.5125
 2717TIP3    H132346   1.099   0.393  14.307 -1.3458 -0.4195  2.1197
 2717TIP3    H232347   1.051   0.279  14.220 -0.2651  0.8080 -0.1958
 2718TIP3   OH232348   0.715   1.532  15.274 -0.0087 -0.2079 -0.3310
 2718TIP3    H132349   0.681   1.471  15.209  0.8105 -0.0080 -0.9764
 2718TIP3    H232350   0.780   1.481  15.323  0.9936  0.2446 -1.1588
 2719TIP3   OH232351   6.039   1.896  15.506 -0.1409 -0.7875 -0.4456
 2719TIP3    H132352   5.990   1.817  15.482 -0.9101 -0.1256 -1.0954
 2719TIP3    H232353   5.972   1.959  15.533  0.3107  0.2183 -1.5835
 2720TIP3   OH232354   4.641   3.206  15.827 -0.0779 -0.2322 -0.4287
 2720TIP3    H132355   4.604   3.211  15.739 -2.1531  2.7800  0.4609
 2720TIP3    H232356   4.724   3.252  15.821 -1.0296  1.5426 -0.5119
 2721TIP3   OH232357   2.492   4.783  14.682  0.3973  0.3059 -0.1300
 2721TIP3    H132358   2.440   4.714  14.642 -0.2843  1.2573 -0.9204
 2721TIP3    H232359   2.514   4.842  14.610  3.3305 -0.4822 -0.0134
 2722TIP3   OH232360   1.628   2.448  13.919  0.3455 -0.1143  0.1520
 2722TIP3    H132361   1.572   2.523  13.900 -1.2540 -0.2488  3.5270
 2722TIP3    H232362   1.704   2.460  13.863 -0.0900  3.7048  0.1043
 2723TIP3   OH232363   2.839   4.872  15.395 -0.1241  0.1876  0.3542
 2723TIP3    H132364   2.876   4.958  15.414  2.2699 -0.6624 -0.1161
 2723TIP3    H232365   2.914   4.812  15.400 -1.6015 -1.7911  0.0581
 2724TIP3   OH232366   0.621   2.849  13.765  0.0081  0.5451  0.8291
 2724TIP3    H132367   0.688   2.895  13.714 -1.7264  0.8927 -1.3053
 2724TIP3    H232368   0.637   2.756  13.748  0.1213  0.6129  0.5622
 2725TIP3   OH232369   3.474   4.736  14.128 -0.0347  0.3331 -0.3846
 2725TIP3    H132370   3.545   4.683  14.092 -0.7990 -0.3496 -0.9150
 2725TIP3    H232371   3.490   4.824  14.094 -0.3619 -0.1543 -1.9014
 2726TIP3   OH232372   3.048   2.705  15.458 -0.2513 -0.1193 -0.0360
 2726TIP3    H132373   3.101   2.713  15.538 -1.0791  0.1358  0.4953
 2726TIP3    H232374   3.067   2.785  15.409  0.0842 -0.1683  0.0103
 2727TIP3   OH232375   1.705   0.299  15.835  0.0642 -0.2428  0.0829
 2727TIP3    H132376   1.620   0.294  15.791  0.1664  1.5551 -0.3939
 2727TIP3    H232377   1.683   0.295  15.929 -0.4315 -0.8683 -0.0519
 2728TIP3   OH232378   2.300   0.467  15.679 -0.3457 -0.5544  0.3461
 2728TIP3    H132379   2.383   0.472  15.725 -0.9053 -1.1720  1.4549
 2728TIP3    H232380   2.288   0.374  15.662  1.0670 -0.2547 -3.4234
 2729TIP3   OH232381   2.218   0.944  15.503 -0.2791  0.3958 -0.2338
 2729TIP3    H132382   2.267   0.988  15.433  0.3693  2.2650  1.2910
 2729TIP3    H232383   2.129   0.978  15.495  0.1128  1.7404  0.6454
 2730TIP3   OH232384   2.143   4.142  16.172 -0.1904 -0.1316  0.6942
 2730TIP3    H132385   2.147   4.052  16.204 -1.3953 -0.9874 -1.3524
 2730TIP3    H232386   2.075   4.184  16.225 -0.3791 -0.7453  0.9366
 2731TIP3   OH232387   3.611   1.338  16.313 -0.2028 -0.1447  0.0400
 2731TIP3    H132388   3.604   1.280  16.389 -0.1751 -0.2291 -0.0226
 2731TIP3    H232389   3.578   1.422  16.345 -0.9735 -0.3893 -0.0814
 2732TIP3   OH232390   6.169   1.435  15.606 -0.3070 -0.5816  0.0797
 2732TIP3    H132391   6.153   1.514  15.658 -0.2355 -1.1579  0.9975
 2732TIP3    H232392   6.242   1.391  15.651  2.6286  0.9129 -2.7809
 2733TIP3   OH232393   4.225   0.451  13.140  0.1500  1.2459 -0.4583
 2733TIP3    H132394   4.273   0.526  13.175  0.8431  2.1339 -3.0846
 2733TIP3    H232395   4.293   0.394  13.103 -0.5882  1.1167 -1.6696
 2734TIP3   OH232396   0.926   0.872  16.906  0.3081  0.5427  0.2092
 2734TIP3    H132397   1.008   0.871  16.955  1.2178  0.8043 -1.2514
 2734TIP3    H232398   0.927   0.956  16.860  0.3126 -0.3897 -1.5715
 2735TIP3   OH232399   1.156   0.576  14.771  0.3025  0.1854 -0.1903
 2735TIP3    H132400   1.125   0.560  14.682 -0.2756 -2.3673  0.3866
 2735TIP3    H232401   1.080   0.615  14.815  0.7303  1.8783 -0.8736
 2736TIP3   OH232402   4.111   6.025  15.522  0.3197 -0.2911 -0.0826
 2736TIP3    H132403   4.019   6.008  15.540  0.9260 -2.6763  1.3230
 2736TIP3    H232404   4.152   6.030  15.608  1.5026  0.8233 -0.6742
 2737TIP3   OH232405   0.492   6.504  15.615 -0.6302  0.0574 -0.5915
 2737TIP3    H132406   0.429   6.444  15.655  0.2597 -1.0288 -0.7401
 2737TIP3    H232407   0.473   6.500  15.521 -0.4405 -0.1807 -0.6236
 2738TIP3   OH232408   1.226   5.556  13.360 -0.0928 -0.0408 -0.2937
 2738TIP3    H132409   1.241   5.476  13.411 -1.0709  0.0512  0.1829
 2738TIP3    H232410   1.160   5.531  13.296  1.5265 -0.2987 -1.9229
 2739TIP3   OH232411   0.135   3.422  16.835 -0.1291  0.2695  0.0419
 2739TIP3    H132412   0.045   3.454  16.839 -0.6772 -0.9853 -1.3686
 2739TIP3    H232413   0.177   3.477  16.768 -0.6027 -0.8033 -1.1720
 2740TIP3   OH232414   4.500   5.573  15.295  0.2054 -0.4592  0.1596
 2740TIP3    H132415   4.526   5.642  15.356  1.7782 -0.3951 -0.5172
 2740TIP3    H232416   4.502   5.493  15.347 -1.4762 -0.0607  0.9105
 2741TIP3   OH232417   1.652   5.622  16.172 -0.1214 -0.3361 -0.0528
 2741TIP3    H132418   1.714   5.588  16.237  2.5138  1.0133 -1.6859
 2741TIP3    H232419   1.663   5.565  16.096 -0.3855  0.3434 -0.6098
 2742TIP3   OH232420   0.496   6.284  16.506  0.2034  0.1647  0.1353
 2742TIP3    H132421   0.503   6.219  16.576  0.2691  0.5223  0.4615
 2742TIP3    H232422   0.402   6.293  16.491  0.1133  1.2333  1.2559
 2743TIP3   OH232423   2.592   0.420  15.713  0.2029  0.1285  0.3185
 2743TIP3    H132424   2.659   0.425  15.782  0.4750 -0.0418  0.0701
 2743TIP3    H232425   2.642   0.408  15.632 -0.1483 -3.6743  0.4413
 2744TIP3   OH232426   5.585   2.929  15.942 -0.1692  0.3565 -0.3521
 2744TIP3    H132427   5.627   2.883  16.014 -0.5734 -0.0610 -0.3806
 2744TIP3    H232428   5.628   3.015  15.940  1.3043 -0.3597 -0.9524
 2745TIP3   OH232429   3.254   3.693  16.146  0.1376  0.6903  0.1574
 2745TIP3    H132430   3.219   3.685  16.057  0.7786  1.2023 -0.1491
 2745TIP3    H232431   3.177   3.687  16.202 -0.2803  0.4065 -0.4347
 2746TIP3   OH232432   2.468   6.048  15.868  0.3229  0.0343 -0.4318
 2746TIP3    H132433   2.525   6.018  15.797  1.7557  0.9221  0.2941
 2746TIP3    H232434   2.463   5.973  15.927  0.1704 -0.2785 -0.8373
 2747TIP3   OH232435   3.162   5.302  15.475 -0.2992  0.0326  0.1323
 2747TIP3    H132436   3.194   5.343  15.395 -0.8278 -0.9479 -0.6036
 2747TIP3    H232437   3.151   5.375  15.536 -1.0254  0.9771 -1.0656
 2748TIP3   OH232438   3.490   6.182  16.923  0.2785  0.3278  0.2408
 2748TIP3    H132439   3.524   6.093  16.935 -0.9823 -0.1040  0.7769
 2748TIP3    H232440   3.395   6.172  16.925  0.1137  1.6332 -0.1905
 2749TIP3   OH232441   6.579   4.246  15.353  0.0517 -0.4549 -0.0986
 2749TIP3    H132442   6.566   4.340  15.363 -2.4145 -0.8214  0.6482
 2749TIP3    H232443   6.672   4.233  15.374  0.1284  1.6292  1.1533
 2750TIP3   OH232444   6.018   3.367  16.316 -0.2720  0.2798 -0.3433
 2750TIP3    H132445   5.996   3.315  16.393 -0.2772  0.7791 -0.0029
 2750TIP3    H232446   5.950   3.434  16.311  0.9603  1.6371  0.5345
 2751TIP3   OH232447   1.409   6.011  17.209 -0.9588  0.5712 -0.6589
 2751TIP3    H132448   1.438   6.003  17.118 -1.0058  0.1955 -0.6403
 2751TIP3    H232449   1.314   5.997  17.206 -0.8908  0.0471 -0.4877
 2752TIP3   OH232450   5.634   4.573  14.144  0.3653  0.0733  1.0915
 2752TIP3    H132451   5.727   4.577  14.125  0.1682 -2.6018 -1.1083
 2752TIP3    H232452   5.603   4.663  14.132  2.2940  0.6122 -0.3526
 2753TIP3   OH232453   3.164   1.379  15.806  1.0702  0.0749 -0.0311
 2753TIP3    H132454   3.222   1.310  15.776 -0.3931 -1.2456  0.0366
 2753TIP3    H232455   3.202   1.408  15.889  2.3791  0.2339 -0.6744
 2754TIP3   OH232456   6.099   5.809  15.068 -0.6765  0.0705 -0.5667
 2754TIP3    H132457   6.159   5.831  14.997 -0.0201  1.9050  0.4856
 2754TIP3    H232458   6.154   5.811  15.147 -1.3196 -2.1913  0.0244
 2755TIP3   OH232459   5.208   6.454  16.400  0.0346  0.0409 -0.0690
 2755TIP3    H132460   5.159   6.529  16.366  0.8309  0.2798 -0.7263
 2755TIP3    H232461   5.284   6.493  16.444 -0.5740 -0.3022  1.3410
 2756TIP3   OH232462   3.508   2.932  14.033 -0.0800 -0.1361 -0.0319
 2756TIP3    H132463   3.593   2.920  14.076  0.4646 -0.5961 -1.2066
 2756TIP3    H232464   3.528   2.931  13.939 -1.5885 -2.2030 -0.3964
 2757TIP3   OH232465   5.353   6.211  16.807 -0.4529  0.4096 -0.0428
 2757TIP3    H132466   5.268   6.255  16.809  0.7732  3.0555  2.6830
 2757TIP3    H232467   5.397   6.248  16.730 -1.3177 -0.1523 -0.8325
 2758TIP3   OH232468   5.700   4.142  16.940  0.4488  0.2087 -0.2870
 2758TIP3    H132469   5.639   4.073  16.966  0.7077 -0.8354 -2.2728
 2758TIP3    H232470   5.784   4.116  16.977  0.5640 -0.5972 -1.1112
 2759TIP3   OH232471   6.444   0.646  13.691 -0.0656  0.3661 -0.5255
 2759TIP3    H132472   6.468   0.574  13.633  0.1026  0.9217 -1.1514
 2759TIP3    H232473   6.512   0.712  13.677  0.1157  0.4062  0.4939
 2760TIP3   OH232474   3.750   1.087  14.678 -0.0611  0.5470  0.4982
 2760TIP3    H132475   3.742   1.019  14.612 -0.9259  0.5427  0.5916
 2760TIP3    H232476   3.839   1.079  14.712 -0.0916 -0.3934  0.3589
 2761TIP3   OH232477   1.550   2.822  16.664  0.1018  0.4637 -0.1568
 2761TIP3    H132478   1.630   2.778  16.637  1.7281  2.8439  0.4815
 2761TIP3    H232479   1.508   2.848  16.582  1.2437  1.2494 -0.5280
 2762TIP3   OH232480   3.382   1.187  15.739 -0.6207 -0.3447 -0.0480
 2762TIP3    H132481   3.329   1.120  15.693 -1.8152  1.6064 -1.6897
 2762TIP3    H232482   3.451   1.209  15.677  2.0005 -2.4994  1.8853
 2763TIP3   OH232483   5.650   5.710  16.353  0.3776 -0.0521 -0.5890
 2763TIP3    H132484   5.710   5.667  16.293  0.9434 -0.6914  0.3921
 2763TIP3    H232485   5.563   5.679  16.326  0.5954 -0.0910 -1.2578
 2764TIP3   OH232486   3.572   3.616  16.377  0.1641  0.0087  0.1376
 2764TIP3    H132487   3.526   3.695  16.406  1.0170  0.1486  1.1679
 2764TIP3    H232488   3.656   3.647  16.345 -0.4348 -0.2447 -1.7958
 2765TIP3   OH232489   6.273   0.982  14.904  0.0225  0.2907 -0.0811
 2765TIP3    H132490   6.297   0.908  14.961  0.3199  0.3066 -0.1808
 2765TIP3    H232491   6.252   1.053  14.965 -0.6589  0.0092  0.0216
 2766TIP3   OH232492   6.172   2.818  16.017  0.1654 -0.4022 -0.0580
 2766TIP3    H132493   6.253   2.770  15.997  1.6590  1.5357  0.9579
 2766TIP3    H232494   6.140   2.776  16.097  1.4451  0.2124  0.8150
 2767TIP3   OH232495   4.142   4.881  15.461  0.1579 -0.4717  0.2381
 2767TIP3    H132496   4.186   4.797  15.451  0.7454 -0.3292  1.4326
 2767TIP3    H232497   4.051   4.864  15.436  0.9216 -0.6423 -2.8229
 2768TIP3   OH232498   3.163   5.780  13.988 -0.1613 -0.8200 -0.5289
 2768TIP3    H132499   3.211   5.716  14.040  0.4754  0.1687  0.1464
 2768TIP3    H232500   3.090   5.731  13.951  0.0492 -1.8295  0.3336
 2769TIP3   OH232501   3.069   4.722  15.402 -0.3348  0.7531 -0.0479
 2769TIP3    H132502   3.085   4.632  15.431 -2.4421 -0.3039 -1.8455
 2769TIP3    H232503   3.113   4.729  15.318  0.6721  1.7888  0.5390
 2770TIP3   OH232504   4.241   4.883  16.957  0.2241  0.1134  0.0925
 2770TIP3    H132505   4.196   4.875  17.041  2.0411  0.0624  1.1059
 2770TIP3    H232506   4.321   4.832  16.968  0.2025 -0.4010 -1.9024
 2771TIP3   OH232507   1.410   0.521  14.082  0.5960  0.4439 -0.1188
 2771TIP3    H132508   1.494   0.474  14.080  0.8352  0.3976  3.5975
 2771TIP3    H232509   1.415   0.574  14.162 -2.9722  0.2933  0.3317
 2772TIP3   OH232510   0.055   3.288  16.079 -0.3739 -0.0983 -0.4546
 2772TIP3    H132511   0.091   3.361  16.130  0.8840 -0.2511 -1.0864
 2772TIP3    H232512  -0.038   3.309  16.070 -0.2612  0.8324  0.3749
 2773TIP3   OH232513   1.168   3.248  17.041 -0.0300 -0.0246 -0.1128
 2773TIP3    H132514   1.257   3.212  17.042  0.3388  0.8712  0.6251
 2773TIP3    H232515   1.168   3.315  17.109 -1.2370  0.0869 -0.1980
 2774TIP3   OH232516   5.809   5.505  14.532  0.2900  0.3894  0.2652
 2774TIP3    H132517   5.870   5.487  14.603 -1.0560 -2.3743  0.8232
 2774TIP3    H232518   5.808   5.425  14.479 -3.3910 -0.0552  0.7492
 2775TIP3   OH232519   2.657   0.109  15.353 -0.0091 -0.4913 -0.2011
 2775TIP3    H132520   2.605   0.079  15.279  0.3676 -1.7133  0.0021
 2775TIP3    H232521   2.593   0.130  15.421 -0.2667 -1.6742 -0.0615
 2776TIP3   OH232522   3.613   4.642  15.801 -0.2905  0.9729 -0.3367
 2776TIP3    H132523   3.694   4.629  15.751 -0.1264  0.3498  0.0762
 2776TIP3    H232524   3.620   4.732  15.834  0.4384  0.7924  0.0370
 2777TIP3   OH232525   2.152   2.324  14.448 -0.0463 -0.7674 -0.0138
 2777TIP3    H132526   2.138   2.303  14.541 -0.4870 -2.0491 -0.3529
 2777TIP3    H232527   2.159   2.420  14.447  1.1559 -0.7915  1.4907
 2778TIP3   OH232528   1.774   1.121  14.016 -0.3314 -0.3632  0.0159
 2778TIP3    H132529   1.753   1.176  13.940 -2.0318  0.0301  0.7095
 2778TIP3    H232530   1.815   1.181  14.078  1.8646 -0.8664 -0.8630
 2779TIP3   OH232531   2.817   2.649  14.806 -0.1993 -0.4616  0.1648
 2779TIP3    H132532   2.735   2.636  14.854 -2.0431 -0.0108 -2.6548
 2779TIP3    H232533   2.867   2.569  14.821 -2.0284 -1.6151  0.3888
 2780TIP3   OH232534   0.469   3.570  15.841 -0.0791  0.4507 -0.2838
 2780TIP3    H132535   0.519   3.517  15.779 -0.9336 -0.7106 -0.0057
 2780TIP3    H232536   0.524   3.647  15.856  0.8391  0.0234 -1.2931
 2781TIP3   OH232537   0.358   5.017  14.294 -0.3990 -0.4339  0.5500
 2781TIP3    H132538   0.377   4.942  14.238 -0.4442 -0.0961  0.0814
 2781TIP3    H232539   0.364   4.982  14.383  1.0836 -0.6536  0.3852
 2782TIP3   OH232540   2.528   3.599  14.329 -0.2002 -0.1454 -0.3418
 2782TIP3    H132541   2.614   3.616  14.367 -0.1888 -1.0623  0.0591
 2782TIP3    H232542   2.543   3.600  14.234  0.1994 -0.0496 -0.2761
 2783TIP3   OH232543   6.028   3.455  15.902  0.1216  0.1015  0.1926
 2783TIP3    H132544   6.046   3.543  15.934 -2.2982  0.3862  0.9234
 2783TIP3    H232545   6.066   3.397  15.968  0.3575  0.6017  0.5007
 2784TIP3   OH232546   3.754   3.543  14.443  0.0510  0.3207  0.0525
 2784TIP3    H132547   3.803   3.598  14.381 -1.9530  1.3503 -0.6901
 2784TIP3    H232548   3.724   3.604  14.511 -2.6127  0.3292 -1.0257
 2785TIP3   OH232549   5.111   2.223  16.282 -0.1671  0.0549 -0.3666
 2785TIP3    H132550   5.033   2.226  16.226 -1.4525 -1.7296  1.1617
 2785TIP3    H232551   5.106   2.137  16.324  3.2392 -0.5761 -0.9651
 2786TIP3   OH232552   3.684   2.347  16.301 -0.0952 -0.1464 -0.0350
 2786TIP3    H132553   3.685   2.381  16.391  0.6460  1.0619 -0.4789
 2786TIP3    H232554   3.717   2.257  16.309  1.4352  0.4533  0.7220
 2787TIP3   OH232555   3.767   5.900  14.637  0.0172 -0.1830 -0.1672
 2787TIP3    H132556   3.841   5.847  14.668 -1.3450 -2.8271 -1.1503
 2787TIP3    H232557   3.708   5.904  14.712  0.1249 -0.0646 -0.0889
 2788TIP3   OH232558   0.685   5.876  15.539  0.8851  0.0048  0.2110
 2788TIP3    H132559   0.746   5.884  15.467 -0.6838 -1.9852 -1.4714
 2788TIP3    H232560   0.648   5.963  15.550  3.3294  1.0597  0.7569
 2789TIP3   OH232561   2.147   3.667  15.376  0.7417 -0.0430 -0.2413
 2789TIP3    H132562   2.148   3.574  15.353  1.1719  0.1789 -1.2013
 2789TIP3    H232563   2.061   3.682  15.415  0.5359 -0.7698 -0.4060
 2790TIP3   OH232564   6.007   1.650  13.903 -0.2805  0.5513  0.0893
 2790TIP3    H132565   5.963   1.734  13.905 -1.8142 -0.2003  2.9406
 2790TIP3    H232566   5.962   1.597  13.969  2.5811 -1.5038  0.5959
 2791TIP3   OH232567   5.637   4.605  16.405  0.1374 -0.3539 -0.3112
 2791TIP3    H132568   5.655   4.680  16.348 -1.6687  0.1445 -0.2946
 2791TIP3    H232569   5.546   4.618  16.433  0.1821 -1.9264  0.6639
 2792TIP3   OH232570   3.689   2.068  14.112  0.1773 -0.0455 -0.1209
 2792TIP3    H132571   3.729   2.111  14.037 -1.9998 -1.2888 -2.1151
 2792TIP3    H232572   3.710   1.976  14.102  1.3627 -0.0613  1.8640
 2793TIP3   OH232573   3.309   2.964  15.475 -0.0117  0.3601 -0.3557
 2793TIP3    H132574   3.248   3.000  15.410 -0.3865 -0.2170 -0.3335
 2793TIP3    H232575   3.253   2.916  15.536  0.3921  0.4675  0.1067
 2794TIP3   OH232576   5.960   4.215  14.929  0.2016 -0.2825  0.9893
 2794TIP3    H132577   6.034   4.190  14.873  0.1923  0.4085  0.6620
 2794TIP3    H232578   5.894   4.148  14.913  0.4931 -0.5172  0.7594
 2795TIP3   OH232579   1.615   6.738  14.424 -0.2043  0.2250  0.2387
 2795TIP3    H132580   1.682   6.783  14.475  0.5509  0.4646 -0.9075
 2795TIP3    H232581   1.658   6.660  14.390 -0.1855  0.8450 -1.2569
 2796TIP3   OH232582   4.257   6.213  16.193  0.4219 -0.3996  0.0881
 2796TIP3    H132583   4.351   6.200  16.181  0.4688 -0.1777  0.2171
 2796TIP3    H232584   4.217   6.140  16.146  0.6939 -1.2344  1.1323
 2797TIP3   OH232585   0.743   4.093  14.823 -0.5404 -0.6067 -0.2472
 2797TIP3    H132586   0.703   4.141  14.750 -0.5321  0.9750  0.7431
 2797TIP3    H232587   0.669   4.064  14.876 -0.4994 -0.6155 -0.1947
 2798TIP3   OH232588   4.027   1.098  14.826  0.6511 -0.0616  0.5657
 2798TIP3    H132589   4.116   1.063  14.824  1.0770  0.9721  0.7397
 2798TIP3    H232590   3.975   1.029  14.866  1.2190 -1.0026 -0.2757
 2799TIP3   OH232591   6.299   0.623  14.479 -0.0442  0.0364 -0.3714
 2799TIP3    H132592   6.333   0.705  14.514  0.0887  0.2596 -1.0067
 2799TIP3    H232593   6.210   0.644  14.450  0.3000  0.1849 -1.3438
 2800TIP3   OH232594   5.668   4.079  14.570 -0.1348  0.3362  0.8912
 2800TIP3    H132595   5.595   4.120  14.615 -1.3164  0.6183 -1.1601
 2800TIP3    H232596   5.746   4.125  14.603 -1.1803  2.3229  0.7154
 2801TIP3   OH232597   5.771   1.753  16.180 -0.0103  0.2538  0.3843
 2801TIP3    H132598   5.758   1.847  16.164 -5.4130 -0.3179 -0.6860
 2801TIP3    H232599   5.808   1.720  16.099  1.6136  1.3237  0.6384
 2802TIP3   OH232600   0.421   0.824  15.707 -0.2664 -0.3148  0.0819
 2802TIP3    H132601   0.430   0.759  15.777  0.9698 -1.2120 -0.8844
 2802TIP3    H232602   0.458   0.782  15.630  0.7618  1.6087 -0.5391
 2803TIP3   OH232603   4.882   1.276  13.052  0.3829 -0.2335 -0.1646
 2803TIP3    H132604   4.807   1.311  13.101  1.7330  1.0822  1.0914
 2803TIP3    H232605   4.888   1.331  12.974  0.3423  0.0064  0.0006
 2804TIP3   OH232606   2.625   1.145  14.719 -0.2736 -0.5139 -0.5518
 2804TIP3    H132607   2.604   1.052  14.719  0.4213 -0.6971  0.6733
 2804TIP3    H232608   2.720   1.149  14.713 -0.2950  0.1100 -0.5783
 2805TIP3   OH232609   0.931   1.255  15.046 -0.2795  0.3155  0.5528
 2805TIP3    H132610   0.869   1.209  15.103  0.0006 -0.7332  0.0361
 2805TIP3    H232611   0.941   1.197  14.971  2.1760 -0.1032  1.1233
 2806TIP3   OH232612   2.390   5.550  14.671 -0.0101 -0.3048  0.1787
 2806TIP3    H132613   2.477   5.580  14.696  0.8285 -2.0544 -0.4292
 2806TIP3    H232614   2.330   5.611  14.713  1.5095  1.1003  0.4056
 2807TIP3   OH232615   3.153   4.385  15.875  0.0800  0.3020  0.0605
 2807TIP3    H132616   3.248   4.399  15.874 -0.0781  1.5502 -1.1000
 2807TIP3    H232617   3.118   4.462  15.829 -1.4603 -0.3415  0.1296
 2808TIP3   OH232618   4.355   0.634  15.403  0.3887  0.1825 -0.0258
 2808TIP3    H132619   4.391   0.684  15.330 -0.0321 -0.0485 -0.4028
 2808TIP3    H232620   4.260   0.650  15.399  0.2948 -0.3025  0.1069
 2809TIP3   OH232621   3.774   0.228  17.174 -0.1845  0.7601 -0.3169
 2809TIP3    H132622   3.789   0.282  17.251 -0.1556  1.0395 -0.5145
 2809TIP3    H232623   3.832   0.154  17.185  0.9203  1.5273 -0.7772
 2810TIP3   OH232624   4.355   1.575  14.430  1.0066 -0.3231  0.6424
 2810TIP3    H132625   4.374   1.653  14.378 -1.6059 -0.5419 -0.8060
 2810TIP3    H232626   4.400   1.590  14.513  0.7874  2.6233  0.3357
 2811TIP3   OH232627   4.089   5.819  15.145  0.3837  0.1065 -0.7311
 2811TIP3    H132628   4.100   5.901  15.193 -0.5667 -0.1352 -0.0610
 2811TIP3    H232629   4.145   5.828  15.068  1.5765  0.7076  0.1675
 2812TIP3   OH232630   1.278   4.103  15.911  0.0469 -0.5079 -0.1818
 2812TIP3    H132631   1.271   4.195  15.938 -1.0341 -0.2708 -1.1741
 2812TIP3    H232632   1.298   4.107  15.818  2.7666 -1.3088  0.2750
 2813TIP3   OH232633   3.245   4.969  15.029  0.0759  0.0662 -0.0415
 2813TIP3    H132634   3.167   5.016  15.060  1.0457  0.5136  1.8497
 2813TIP3    H232635   3.292   5.033  14.977  0.6102  0.7558  1.2401
 2814TIP3   OH232636   4.511   6.560  15.823 -0.3782 -0.2614 -0.4077
 2814TIP3    H132637   4.431   6.608  15.843  0.0133  0.0569  0.4556
 2814TIP3    H232638   4.503   6.537  15.730 -0.0388  2.5641 -1.2208
 2815TIP3   OH232639   1.430   5.655  14.511 -0.0350 -0.4771 -0.4198
 2815TIP3    H132640   1.471   5.742  14.509 -0.6025 -0.2077 -1.1853
 2815TIP3    H232641   1.361   5.661  14.445 -1.2687 -0.9278  0.7829
 2816TIP3   OH232642   0.055   0.501  16.307  0.2490  0.0983  0.2583
 2816TIP3    H132643  -0.006   0.447  16.257  1.3128  0.9216 -2.0630
 2816TIP3    H232644   0.046   0.469  16.397 -2.0895 -1.1559 -0.3218
 2817TIP3   OH232645   1.092   2.334  16.959  0.6224 -0.3216 -0.3667
 2817TIP3    H132646   1.109   2.409  17.016  0.1742  0.6093 -1.4223
 2817TIP3    H232647   1.030   2.280  17.008  0.7545  0.1228  0.2967
 2818TIP3   OH232648   3.480   1.801  16.956  0.2272 -0.3165  0.2813
 2818TIP3    H132649   3.430   1.877  16.925 -1.1709 -1.1664  0.3571
 2818TIP3    H232650   3.465   1.800  17.050 -0.9334 -1.4693  0.1070
 2819TIP3   OH232651   3.036   3.927  15.898 -0.1188 -0.9926  0.3574
 2819TIP3    H132652   3.026   4.002  15.838  1.3457 -0.2587  0.9746
 2819TIP3    H232653   2.971   3.942  15.966  1.0347  0.4820  1.1897
 2820TIP3   OH232654   6.079   1.269  14.727 -0.6728  0.0984 -0.1978
 2820TIP3    H132655   6.161   1.219  14.728 -1.5027 -1.3081  0.3712
 2820TIP3    H232656   6.104   1.355  14.694  1.1052 -0.1862  0.2810
 2821TIP3   OH232657   1.545   2.020  14.067 -0.2283 -0.2321  0.6836
 2821TIP3    H132658   1.525   1.936  14.109 -2.0850  0.1266  0.6218
 2821TIP3    H232659   1.459   2.061  14.053  0.4879  0.7771 -1.1656
 2822TIP3   OH232660   5.183   1.032  14.446  0.0936  0.3434 -0.2174
 2822TIP3    H132661   5.098   1.010  14.484 -0.6405  0.0881 -1.9069
 2822TIP3    H232662   5.245   0.976  14.492 -0.9860 -1.1833 -0.5309
 2823TIP3   OH232663   6.320   1.649  16.580  0.1923 -0.7534  0.1161
 2823TIP3    H132664   6.262   1.630  16.507  0.8259 -1.4912 -0.2123
 2823TIP3    H232665   6.287   1.596  16.652  0.3447 -1.0376 -0.0209
 2824TIP3   OH232666   2.825   2.563  17.206 -0.0021  0.0048 -0.8353
 2824TIP3    H132667   2.914   2.599  17.211  0.1083  0.0107 -2.2661
 2824TIP3    H232668   2.838   2.470  17.185 -0.3148 -0.5639  1.2900
 2825TIP3   OH232669   5.571   5.687  13.753 -0.6233 -0.5766 -0.6667
 2825TIP3    H132670   5.505   5.728  13.698 -0.3086 -0.1440 -0.7288
 2825TIP3    H232671   5.537   5.696  13.842 -1.3954 -1.7683 -0.8210
 2826TIP3   OH232672   3.011   0.852  14.626 -0.2803 -0.4270  0.2085
 2826TIP3    H132673   3.060   0.867  14.707 -0.5146 -1.4403  0.5548
 2826TIP3    H232674   3.068   0.795  14.574 -0.2277  0.0373 -0.2455
 2827TIP3   OH232675   5.422   1.179  13.898  0.5127 -0.6459 -0.4895
 2827TIP3    H132676   5.368   1.167  13.976 -0.2061  0.1517 -0.8434
 2827TIP3    H232677   5.363   1.160  13.825  0.4700  0.9832 -0.9129
 2828TIP3   OH232678   1.096   4.864  16.029  0.1995  0.4144  0.4201
 2828TIP3    H132679   1.042   4.921  16.085 -1.1287 -0.0979 -0.2781
 2828TIP3    H232680   1.176   4.914  16.013 -0.2782  1.4247  1.0959
 2829TIP3   OH232681   1.163   2.510  15.672 -0.1504 -0.8343  0.0324
 2829TIP3    H132682   1.209   2.521  15.756 -0.2414  0.1574 -0.0366
 2829TIP3    H232683   1.216   2.447  15.624  0.4481 -0.6725  0.4610
 2830TIP3   OH232684   6.088   4.879  16.173  0.2645  0.1175  0.1208
 2830TIP3    H132685   6.028   4.816  16.212  0.2268 -1.1457 -1.8300
 2830TIP3    H232686   6.175   4.850  16.200  0.2029 -0.3784 -0.1985
 2831TIP3   OH232687   5.054   2.978  17.033  0.3100  0.2097 -0.4555
 2831TIP3    H132688   4.966   2.942  17.050  0.1710  1.3071  1.3991
 2831TIP3    H232689   5.041   3.039  16.960 -0.5543  0.5630 -0.0254
 2832TIP3   OH232690   0.489   6.525  14.667 -0.0576  0.0422 -0.3124
 2832TIP3    H132691   0.545   6.467  14.615  1.4641  1.6087 -0.4935
 2832TIP3    H232692   0.500   6.494  14.757  2.3173  1.1980 -0.1415
 2833TIP3   OH232693   6.149   3.811  16.279 -0.8279 -0.0482  0.1861
 2833TIP3    H132694   6.149   3.865  16.358  1.6286 -0.0737  0.2988
 2833TIP3    H232695   6.179   3.725  16.309  2.0708  0.4368 -0.9283
 2834TIP3   OH232696   2.223   0.074  16.495  0.0166 -0.4913 -0.0562
 2834TIP3    H132697   2.269   0.100  16.575  0.7517 -1.1406 -0.2625
 2834TIP3    H232698   2.197   0.157  16.455  4.6960  0.2233 -2.1306
 2835TIP3   OH232699   0.222   2.087  16.375 -0.2483  0.1629 -0.0270
 2835TIP3    H132700   0.288   2.029  16.338 -1.7834 -0.3188 -2.2219
 2835TIP3    H232701   0.194   2.043  16.456  0.7125 -0.6073 -0.0929
 2836TIP3   OH232702   1.705   2.020  16.642 -0.1606 -0.3799  0.1161
 2836TIP3    H132703   1.693   2.083  16.570  0.2442 -0.9639 -0.4776
 2836TIP3    H232704   1.769   2.062  16.699  2.6656 -1.5339 -1.9279
 2837TIP3   OH232705   3.484   1.971  14.953 -0.1450  0.0306  0.2789
 2837TIP3    H132706   3.558   1.988  15.011  1.4381 -3.1618 -0.6078
 2837TIP3    H232707   3.412   1.948  15.012  0.5998 -0.3301  1.0607
 2838TIP3   OH232708   1.903   5.281  16.270  0.0436 -0.1465  0.0717
 2838TIP3    H132709   1.983   5.277  16.217 -0.6211  0.2160 -0.9841
 2838TIP3    H232710   1.854   5.203  16.246 -0.1350 -0.1354  0.3909
 2839TIP3   OH232711   2.832   1.601  16.892 -0.0405 -0.0298 -0.6292
 2839TIP3    H132712   2.764   1.575  16.955  0.1956  0.4894 -0.1501
 2839TIP3    H232713   2.899   1.534  16.901  0.5861  0.7267  0.6301
 2840TIP3   OH232714   0.426   3.577  14.089 -0.1898  0.0037 -0.3511
 2840TIP3    H132715   0.445   3.484  14.084 -0.7467 -0.1981  1.1030
 2840TIP3    H232716   0.382   3.597  14.006  0.1434 -0.9578 -0.7714
 2841TIP3   OH232717   1.697   6.104  17.115  0.5502 -0.5160 -0.0092
 2841TIP3    H132718   1.651   6.108  17.199  1.5644  0.1189  0.5319
 2841TIP3    H232719   1.645   6.043  17.062 -0.9212  0.2007  0.5623
 2842TIP3   OH232720   2.825   3.369  17.102 -0.5168 -0.8207  0.7426
 2842TIP3    H132721   2.733   3.358  17.127 -1.5318  1.9726 -1.3135
 2842TIP3    H232722   2.834   3.317  17.022 -1.1445  0.9612 -0.5558
 2843TIP3   OH232723   2.396   5.907  15.229 -0.2224 -0.2127 -0.0275
 2843TIP3    H132724   2.331   5.882  15.294 -2.5970  0.8609 -1.8049
 2843TIP3    H232725   2.387   5.842  15.159 -0.6909  0.9253 -1.0708
 2844TIP3   OH232726   6.290   1.239  15.752 -0.3458 -0.7202 -0.5469
 2844TIP3    H132727   6.232   1.163  15.751  2.4600 -3.1153  1.0897
 2844TIP3    H232728   6.288   1.269  15.843 -0.4350  0.3829 -0.8986
 2845TIP3   OH232729   2.965   3.589  16.702  0.1672 -0.2967  0.1458
 2845TIP3    H132730   2.976   3.497  16.679 -3.6867 -1.0840  0.6441
 2845TIP3    H232731   2.870   3.603  16.698  0.3019  2.7913  3.1641
 2846TIP3   OH232732   3.183   0.758  15.173 -0.2206 -0.0174  0.3742
 2846TIP3    H132733   3.097   0.734  15.205 -0.7790  0.6746 -0.5455
 2846TIP3    H232734   3.201   0.843  15.212  0.3065 -0.4196  1.0214
 2847TIP3   OH232735   6.656   6.659  16.067 -0.0060 -0.2367 -1.0936
 2847TIP3    H132736   6.561   6.647  16.074  0.0756 -0.0825  1.2178
 2847TIP3    H232737   6.683   6.685  16.155  2.5376 -2.7707 -0.9786
 2848TIP3   OH232738   3.805   3.964  15.465  0.1870 -0.0159 -0.2775
 2848TIP3    H132739   3.790   4.022  15.391 -2.1184 -1.7885 -1.2936
 2848TIP3    H232740   3.796   4.021  15.542  1.0664  1.5342 -1.2733
 2849TIP3   OH232741   5.549   4.396  15.505 -0.0995  0.1777 -0.6093
 2849TIP3    H132742   5.482   4.377  15.570  1.3272  1.1540  1.2350
 2849TIP3    H232743   5.523   4.480  15.467  0.1763  0.6885  0.2933
 2850TIP3   OH232744   3.419   2.429  16.652  0.0071 -0.5128  0.3819
 2850TIP3    H132745   3.355   2.415  16.722 -1.3346 -0.7367 -0.8390
 2850TIP3    H232746   3.394   2.514  16.615  1.2969  0.0486  0.7601
 2851TIP3   OH232747   2.522   6.681  14.315  0.1602  0.0173  0.5508
 2851TIP3    H132748   2.427   6.688  14.312  0.1575  0.0755  0.7669
 2851TIP3    H232749   2.539   6.596  14.354  0.1921  0.6687  2.0256
 2852TIP3   OH232750   0.193   1.098  13.431 -0.1599 -0.3473 -0.5888
 2852TIP3    H132751   0.239   1.061  13.356  0.6566  0.5816 -0.5630
 2852TIP3    H232752   0.133   1.163  13.392  0.5785  0.4520 -0.4278
 2853TIP3   OH232753   5.753   0.623  15.236 -0.3135  0.1608 -0.1717
 2853TIP3    H132754   5.826   0.570  15.266 -0.6463  0.3011  0.9397
 2853TIP3    H232755   5.773   0.643  15.145  0.4597 -0.7552 -0.2128
 2854TIP3   OH232756   1.549   3.237  13.486  0.5822 -0.1886  0.1117
 2854TIP3    H132757   1.622   3.274  13.537  1.1689  1.0725 -1.5423
 2854TIP3    H232758   1.522   3.160  13.535  1.0340  1.0030  2.3819
 2855TIP3   OH232759   6.083   2.722  16.289 -0.0113  0.3519 -0.0671
 2855TIP3    H132760   6.120   2.683  16.368 -0.1575  1.7879  0.7309
 2855TIP3    H232761   5.994   2.687  16.284  0.0485  0.1424  0.3054
 2856TIP3   OH232762   3.118   5.900  15.607  0.1844 -0.3113  0.5669
 2856TIP3    H132763   3.117   5.836  15.536 -0.8662 -0.1014  0.3821
 2856TIP3    H232764   3.097   5.983  15.565  0.0576 -0.1021  1.0376
 2857TIP3   OH232765   1.019   4.301  15.872 -0.0130  0.0568 -0.3529
 2857TIP3    H132766   1.113   4.313  15.887 -0.0450  0.1387 -0.2213
 2857TIP3    H232767   1.013   4.276  15.780  0.0763  0.7609 -0.5580
 2858TIP3   OH232768   5.081   4.792  16.189 -0.0664  0.0327 -0.3384
 2858TIP3    H132769   5.015   4.833  16.134 -0.7881 -1.5779 -0.7344
 2858TIP3    H232770   5.119   4.864  16.240 -2.4320  0.9577  0.2135
 2859TIP3   OH232771   5.651   5.052  16.017  0.4991  0.2183 -0.3217
 2859TIP3    H132772   5.662   4.974  15.961 -0.9944 -0.7197  0.6083
 2859TIP3    H232773   5.729   5.054  16.071  0.5735 -0.6259 -0.3822
 2860TIP3   OH232774   3.825   4.690  14.185 -0.3562  0.6021 -0.2559
 2860TIP3    H132775   3.895   4.626  14.197 -0.4561  0.7380  1.1352
 2860TIP3    H232776   3.760   4.644  14.130  0.4204  0.1894 -0.8554
 2861TIP3   OH232777   5.742   5.905  16.550  0.3629  0.1114 -0.3442
 2861TIP3    H132778   5.773   5.840  16.614  2.1602  1.2957  0.0671
 2861TIP3    H232779   5.695   5.853  16.484 -2.4096 -1.0728  2.3220
 2862TIP3   OH232780   1.434   3.382  16.931  0.0831 -0.2167  0.5748
 2862TIP3    H132781   1.370   3.445  16.963  1.0840 -0.7167  3.9590
 2862TIP3    H232782   1.381   3.308  16.900 -1.0187  0.6169  0.4255
 2863TIP3   OH232783   3.602   1.072  14.932 -0.1697  0.2575 -0.1412
 2863TIP3    H132784   3.616   1.095  14.840 -1.7530  1.5187 -0.0985
 2863TIP3    H232785   3.548   1.142  14.967 -1.9857 -1.6086  1.0332
 2864TIP3   OH232786   3.306   3.714  16.489  0.3373  0.1848 -0.1679
 2864TIP3    H132787   3.303   3.722  16.393  0.3763  0.5210 -0.1443
 2864TIP3    H232788   3.312   3.620  16.505  2.6866  0.1818 -0.5795
 2865TIP3   OH232789   4.724   2.548  16.442 -0.1688 -0.4670  0.0283
 2865TIP3    H132790   4.767   2.548  16.357 -0.9187 -2.2338 -0.3936
 2865TIP3    H232791   4.647   2.603  16.430  1.3974  1.9883  0.5411
 2866TIP3   OH232792   4.624   3.365  16.090  0.0494  0.8735  0.2061
 2866TIP3    H132793   4.600   3.279  16.123  2.6536  0.5483  1.4876
 2866TIP3    H232794   4.704   3.350  16.040  0.0834  2.4475 -0.2628
 2867TIP3   OH232795   1.306   3.472  15.166  0.7988 -0.0649  0.1868
 2867TIP3    H132796   1.214   3.446  15.162  0.9905 -0.9907  1.3205
 2867TIP3    H232797   1.307   3.547  15.226  0.6442  0.7378 -0.7802
 2868TIP3   OH232798   6.440   0.309  13.821  0.3487 -0.2774 -0.1167
 2868TIP3    H132799   6.457   0.351  13.736  1.4650 -0.5782 -0.0553
 2868TIP3    H232800   6.478   0.369  13.885  0.4995 -0.5916  0.0884
 2869TIP3   OH232801   4.548   2.182  13.877 -0.7348 -0.6354  0.0993
 2869TIP3    H132802   4.529   2.144  13.963 -1.6436 -0.2300  0.0941
 2869TIP3    H232803   4.643   2.193  13.876 -0.5610 -1.9699  0.4819
 2870TIP3   OH232804   5.981   6.277  14.662  0.2483  0.5257  0.6489
 2870TIP3    H132805   6.010   6.265  14.753 -1.3701 -2.1539  0.9458
 2870TIP3    H232806   6.014   6.200  14.616 -0.1475  1.1457 -0.7253
 2871TIP3   OH232807   1.074   3.187  15.138 -0.3751 -0.1123  0.1419
 2871TIP3    H132808   1.064   3.098  15.173 -1.2616 -0.3512 -0.6851
 2871TIP3    H232809   1.140   3.227  15.194 -0.8206 -0.9059  1.2744
 2872TIP3   OH232810   4.598   6.675  14.000 -0.2429 -0.4808 -0.2402
 2872TIP3    H132811   4.691   6.689  13.982 -0.1119 -1.4434 -0.3204
 2872TIP3    H232812   4.564   6.763  14.020  1.1785 -0.3988  2.1747
 2873TIP3   OH232813   5.575   3.410  16.169  0.2223 -0.6631  0.5399
 2873TIP3    H132814   5.582   3.391  16.263  1.8639  2.5817  1.2285
 2873TIP3    H232815   5.559   3.504  16.165  2.2951 -0.3083 -2.4711
 2874TIP3   OH232816   3.313   2.141  16.478 -0.5060 -0.2522  0.6537
 2874TIP3    H132817   3.336   2.134  16.571  0.0975  0.9592  0.6144
 2874TIP3    H232818   3.384   2.097  16.432 -0.9651 -1.1378  0.7549
 2875TIP3   OH232819   0.553   3.703  16.145  0.8591 -0.3622  0.0660
 2875TIP3    H132820   0.511   3.623  16.114  0.3632 -0.6885  1.5028
 2875TIP3    H232821   0.499   3.732  16.217  2.1750  0.1338  0.8922
 2876TIP3   OH232822   4.742   5.847  16.459 -0.0987  0.0555 -0.5008
 2876TIP3    H132823   4.787   5.932  16.463 -1.3808  0.7261  0.1671
 2876TIP3    H232824   4.812   5.783  16.477  0.7016  1.0287 -0.0064
 2877TIP3   OH232825   5.042   3.617  17.231  0.1551  0.0641 -0.2229
 2877TIP3    H132826   5.105   3.567  17.282  1.1488  0.4750 -1.0133
 2877TIP3    H232827   4.994   3.552  17.181  0.3660 -0.2131 -0.0655
 2878TIP3   OH232828   3.117   6.633  13.887  0.5600 -0.1495 -0.7241
 2878TIP3    H132829   3.026   6.634  13.918  1.0646  0.8313  0.8051
 2878TIP3    H232830   3.138   6.540  13.878  0.0482 -0.4509  0.9232
 2879TIP3   OH232831   2.170   2.762  15.518 -0.2941  0.1281  0.1010
 2879TIP3    H132832   2.238   2.753  15.585  0.5069 -1.9532 -0.9100
 2879TIP3    H232833   2.188   2.847  15.477  2.2175 -0.6615 -0.6148
 2880TIP3   OH232834   4.161   0.564  13.483  0.3610  0.8972  0.1876
 2880TIP3    H132835   4.186   0.656  13.494 -0.2649  0.8310  3.2945
 2880TIP3    H232836   4.240   0.515  13.506  1.6287  0.4656 -4.2310
 2881TIP3   OH232837   3.728   0.293  16.315 -0.3085  0.0331 -0.2138
 2881TIP3    H132838   3.745   0.320  16.405 -0.5466  0.1504 -0.2031
 2881TIP3    H232839   3.806   0.320  16.267 -0.0626 -0.2738  0.0056
 2882TIP3   OH232840   4.415   4.957  14.000  0.3193  0.3884 -0.3961
 2882TIP3    H132841   4.387   4.886  13.943 -1.0805 -0.1740  0.9190
 2882TIP3    H232842   4.425   5.033  13.942 -1.2273 -0.1110 -1.3623
 2883TIP3   OH232843   4.547   5.152  14.998  0.1689 -0.7118 -0.2721
 2883TIP3    H132844   4.586   5.110  15.074  3.0958 -1.7126 -2.1518
 2883TIP3    H232845   4.554   5.087  14.928 -1.8318  0.3964 -1.6114
 2884TIP3   OH232846   3.830   1.398  15.414 -0.3984 -0.3485  0.0180
 2884TIP3    H132847   3.798   1.466  15.355 -0.1751 -0.3341 -0.0851
 2884TIP3    H232848   3.909   1.435  15.454  1.2852 -1.5190 -2.0195
 2885TIP3   OH232849   4.552   2.278  15.173  0.4299  0.0713 -0.1689
 2885TIP3    H132850   4.509   2.196  15.198 -1.5192  0.6141 -1.5419
 2885TIP3    H232851   4.592   2.310  15.255 -0.9740 -0.9558  0.9753
 2886TIP3   OH232852   5.168   2.187  14.468 -0.2104  0.3122 -0.2943
 2886TIP3    H132853   5.178   2.100  14.430 -1.2584  0.3529 -0.7255
 2886TIP3    H232854   5.096   2.177  14.531 -1.4262  1.1711 -1.4761
 2887TIP3   OH232855   2.364   3.211  17.252 -0.0976  0.2500  0.8364
 2887TIP3    H132856   2.385   3.139  17.313  1.4743  0.3347  0.4424
 2887TIP3    H232857   2.356   3.168  17.167  3.2935  0.7139  0.1312
 2888TIP3   OH232858   6.033   5.871  17.108  0.0288  0.1367 -0.3331
 2888TIP3    H132859   6.030   5.888  17.202  0.6064 -0.8252 -0.1233
 2888TIP3    H232860   6.009   5.955  17.067  1.3736  1.0315  0.6390
 2889TIP3   OH232861   4.306   1.554  15.366  0.2074  0.1457  0.0689
 2889TIP3    H132862   4.329   1.490  15.299 -0.8850  1.1296 -1.3175
 2889TIP3    H232863   4.237   1.512  15.417 -0.3046  0.0754 -0.6558
 2890TIP3   OH232864   5.095   2.248  15.187 -0.5676 -0.1604 -0.5748
 2890TIP3    H132865   5.107   2.154  15.201  0.6198 -0.2325 -1.8343
 2890TIP3    H232866   5.010   2.254  15.143 -0.3567 -0.7153 -1.0767
 2891TIP3   OH232867   3.017   6.395  16.490  0.2295 -0.3993 -0.6910
 2891TIP3    H132868   3.030   6.486  16.519  1.0479 -0.3710 -1.1296
 2891TIP3    H232869   3.088   6.379  16.429  0.3168 -1.4683 -0.3313
 2892TIP3   OH232870   3.033   0.465  17.005 -0.2523  0.0106  0.2658
 2892TIP3    H132871   3.092   0.456  16.931  0.2913 -0.6735  0.7732
 2892TIP3    H232872   2.952   0.421  16.977 -0.5583  0.9831 -0.4411
 2893TIP3   OH232873   0.031   5.701  14.379  0.3824  0.0708  0.2328
 2893TIP3    H132874   0.040   5.757  14.456  0.9933  0.5001 -0.1421
 2893TIP3    H232875   0.101   5.637  14.387 -0.6916 -1.0459  0.9765
 2894TIP3   OH232876   4.796   6.529  14.837  0.3028 -0.0394  0.0854
 2894TIP3    H132877   4.848   6.558  14.913  0.3417 -2.1162  0.9045
 2894TIP3    H232878   4.858   6.529  14.764  1.1467 -1.2529  0.7833
 2895TIP3   OH232879   3.443   0.997  15.425  0.0022  0.6920  0.2427
 2895TIP3    H132880   3.353   1.022  15.401 -0.1960 -0.8929 -0.7941
 2895TIP3    H232881   3.435   0.964  15.514 -0.2304  1.5810  0.5677
 2896TIP3   OH232882   6.548   6.523  16.571  0.2556 -0.1300 -0.0277
 2896TIP3    H132883   6.628   6.535  16.623  1.2477 -1.9544 -1.0264
 2896TIP3    H232884   6.579   6.510  16.482 -1.1704 -0.7210 -0.4709
 2897TIP3   OH232885   5.778   3.244  16.729 -0.0416 -0.3267  0.6632
 2897TIP3    H132886   5.727   3.230  16.809 -1.8069 -1.2348 -0.5307
 2897TIP3    H232887   5.725   3.306  16.678 -0.2363 -1.6325 -0.8108
 2898TIP3   OH232888   2.120   1.215  14.486  0.2281  0.6380  0.0104
 2898TIP3    H132889   2.120   1.163  14.406 -1.3390  0.2967  0.1950
 2898TIP3    H232890   2.140   1.304  14.456  0.6454  0.3486 -0.6108
 2899TIP3   OH232891   5.178   1.710  14.255  0.5912  0.0450 -0.2803
 2899TIP3    H132892   5.153   1.723  14.163  1.3901  0.3641 -0.4628
 2899TIP3    H232893   5.106   1.659  14.292  0.5449 -0.6335 -1.2475
 2900TIP3   OH232894   0.718   1.516  16.881 -0.7285 -0.5703 -0.3078
 2900TIP3    H132895   0.696   1.592  16.934 -1.2219 -0.6907 -0.3430
 2900TIP3    H232896   0.784   1.549  16.819 -0.2614 -0.3944  0.2707
 2901TIP3   OH232897   4.279   3.906  17.055 -0.5106  0.0115 -0.2981
 2901TIP3    H132898   4.293   3.817  17.090 -2.9616  0.0422  1.0481
 2901TIP3    H232899   4.367   3.939  17.037  0.5804 -2.0945  0.7196
 2902TIP3   OH232900   1.779   1.152  14.657  0.6178  0.2388 -0.0664
 2902TIP3    H132901   1.847   1.087  14.674 -0.1291 -0.2704  1.1529
 2902TIP3    H232902   1.738   1.167  14.743 -1.0514  0.2459 -0.8196
 2903TIP3   OH232903   1.083   4.314  14.417 -0.4063  0.6944 -0.5454
 2903TIP3    H132904   1.083   4.307  14.322  1.9577  0.3846 -0.5724
 2903TIP3    H232905   1.159   4.368  14.437 -1.7532  2.1143  1.1394
 2904TIP3   OH232906   6.624   1.470  13.469 -0.4856  0.0909 -0.4492
 2904TIP3    H132907   6.650   1.562  13.464  0.3359 -0.1417 -0.6365
 2904TIP3    H232908   6.608   1.454  13.562  0.6651  0.0913 -0.2342
 2905TIP3   OH232909   0.232   4.470  15.888 -0.0634 -0.3342 -0.0554
 2905TIP3    H132910   0.236   4.387  15.841  0.4716 -0.1221 -0.3945
 2905TIP3    H232911   0.294   4.460  15.960 -0.2040 -0.3256  0.0687
 2906TIP3   OH232912   0.781   4.944  16.609 -0.0920 -0.1889 -0.3029
 2906TIP3    H132913   0.718   4.932  16.537 -1.1538 -0.8448  0.6896
 2906TIP3    H232914   0.737   4.906  16.685  0.4722  1.6077  0.9761
 2907TIP3   OH232915   6.263   1.229  15.058  0.3642  0.3021 -0.1106
 2907TIP3    H132916   6.288   1.264  15.143 -1.1129 -0.0373  0.5072
 2907TIP3    H232917   6.168   1.241  15.054  0.3273 -0.2026 -1.4785
 2908TIP3   OH232918   1.815   5.537  16.394 -0.5017  0.6432  0.2705
 2908TIP3    H132919   1.888   5.538  16.456 -0.5772 -0.9469  0.4299
 2908TIP3    H232920   1.829   5.458  16.342 -0.8952  1.5005 -1.2122
 2909TIP3   OH232921   6.662   1.137  14.396  0.0716 -0.0117  0.4548
 2909TIP3    H132922   6.598   1.152  14.466  0.5216  0.0611  0.8612
 2909TIP3    H232923   6.741   1.109  14.443  0.3918  0.0859 -0.0243
 2910TIP3   OH232924   6.112   0.484  15.100  0.1594 -0.9982 -0.0259
 2910TIP3    H132925   6.205   0.470  15.115  0.2487  0.5785  1.2041
 2910TIP3    H232926   6.105   0.505  15.007  1.0922 -0.7140 -0.0387
 2911TIP3   OH232927   6.311   1.708  16.155 -0.3233 -0.4068 -0.1957
 2911TIP3    H132928   6.360   1.644  16.102  0.1902 -0.1771 -0.0037
 2911TIP3    H232929   6.371   1.782  16.164 -0.9433  0.1335 -0.4686
 2912TIP3   OH232930   0.292   6.380  14.495 -0.0574  0.5093 -0.2924
 2912TIP3    H132931   0.370   6.332  14.467 -0.5727 -2.2952  2.4725
 2912TIP3    H232932   0.320   6.429  14.572 -1.1305 -1.5972  1.5754
 2913TIP3   OH232933   2.642   0.487  14.245 -0.5111 -0.3271 -0.4478
 2913TIP3    H132934   2.628   0.581  14.235 -0.3768 -0.4054 -1.5457
 2913TIP3    H232935   2.577   0.446  14.188 -1.6224 -0.9748  1.2134
 2914TIP3   OH232936   2.661   3.620  13.468  0.1542  1.0259 -0.0189
 2914TIP3    H132937   2.711   3.649  13.391 -0.5191 -1.9812 -1.7456
 2914TIP3    H232938   2.718   3.557  13.511 -0.8535  0.0172 -0.1331
 2915TIP3   OH232939   2.016   1.157  15.909  0.5536  0.4835 -0.0324
 2915TIP3    H132940   2.104   1.128  15.885  1.0118  0.8966  1.0818
 2915TIP3    H232941   1.987   1.209  15.833  2.7433  3.4011  0.9428
 2916TIP3   OH232942   0.135   4.321  14.762 -0.3096 -0.3634 -0.2603
 2916TIP3    H132943   0.114   4.283  14.848 -0.8602 -0.7209 -0.5464
 2916TIP3    H232944   0.052   4.357  14.731  0.1149  0.7199 -0.1822
 2917TIP3   OH232945   2.063   6.677  16.196 -0.5721 -0.3914 -0.1580
 2917TIP3    H132946   2.082   6.746  16.131 -0.8170  2.3847  2.4769
 2917TIP3    H232947   2.101   6.710  16.277 -2.6525 -2.3468  1.7431
 2918TIP3   OH232948   6.622   5.083  15.482 -0.0816 -0.2757  0.3533
 2918TIP3    H132949   6.603   5.079  15.576  2.8400 -2.2831  0.9854
 2918TIP3    H232950   6.619   5.176  15.461 -0.0575  0.3065  2.6362
 2919TIP3   OH232951   6.054   2.809  14.717 -0.6568  0.0762  0.0574
 2919TIP3    H132952   6.122   2.775  14.659  0.4276  1.3735  0.5185
 2919TIP3    H232953   5.983   2.834  14.658 -1.0038 -1.7796 -0.3862
 2920TIP3   OH232954   3.504   0.279  14.953  0.1417 -0.4171 -0.5944
 2920TIP3    H132955   3.548   0.341  14.895 -0.1787 -0.3324 -0.7499
 2920TIP3    H232956   3.412   0.308  14.954  0.1564 -0.3845  0.0011
 2921TIP3   OH232957   6.431   1.599  13.931 -0.5033  0.2534 -0.3509
 2921TIP3    H132958   6.444   1.594  13.836 -0.1465  0.9362 -0.3467
 2921TIP3    H232959   6.359   1.538  13.948 -0.1267 -0.3897 -0.9624
 2922TIP3   OH232960   2.128   2.424  16.305  0.1179  0.7207  0.2948
 2922TIP3    H132961   2.101   2.482  16.233 -1.0131  1.3165  1.1662
 2922TIP3    H232962   2.222   2.438  16.313 -0.1791  2.7672  0.7469
 2923TIP3   OH232963   4.155   2.776  16.329  0.0831 -0.4064 -0.4746
 2923TIP3    H132964   4.205   2.701  16.361 -2.5746 -2.8497 -1.5932
 2923TIP3    H232965   4.129   2.824  16.408  1.4427 -0.8708  0.2857
 2924TIP3   OH232966   0.879   4.362  14.193  0.2456  0.0641  0.0543
 2924TIP3    H132967   0.973   4.369  14.178  0.1118  0.3478 -0.6884
 2924TIP3    H232968   0.840   4.370  14.106 -0.4423 -0.4867  0.3038
 2925TIP3   OH232969   3.615   2.054  14.365  0.5477 -0.5224  0.0121
 2925TIP3    H132970   3.649   1.967  14.386  1.4938  0.0066  0.7307
 2925TIP3    H232971   3.657   2.076  14.282  1.9238  0.0727  0.8310
 2926TIP3   OH232972   1.866   4.012  16.491 -0.1892  0.0212 -0.2301
 2926TIP3    H132973   1.776   3.980  16.480 -0.0312 -0.3400 -0.4995
 2926TIP3    H232974   1.916   3.965  16.425  0.0263  0.9542 -0.7412
 2927TIP3   OH232975   1.519   0.096  15.997 -0.0486  0.1290  0.3961
 2927TIP3    H132976   1.433   0.060  16.021 -0.0303  0.3044  0.7368
 2927TIP3    H232977   1.521   0.182  16.041  0.5808 -0.1696  0.9640
 2928TIP3   OH232978   0.040   1.090  16.979  0.0131  0.1375  0.2923
 2928TIP3    H132979   0.128   1.123  16.962 -0.1326  0.7239  0.6203
 2928TIP3    H232980   0.000   1.158  17.034 -1.3729  0.9365 -1.5902
 2929TIP3   OH232981   0.153   0.509  16.620  0.5157  0.0687  0.0442
 2929TIP3    H132982   0.229   0.456  16.594  0.5107  0.0303  0.1086
 2929TIP3    H232983   0.164   0.523  16.714 -0.3776 -1.2872  0.3849
 2930TIP3   OH232984   3.624   2.137  17.209  0.1976  0.0414 -0.1243
 2930TIP3    H132985   3.532   2.154  17.227  0.4572  0.7877  0.5950
 2930TIP3    H232986   3.671   2.189  17.274  1.1780  1.6164 -1.9619
 2931TIP3   OH232987   5.884   3.891  16.034  0.5484  0.1189 -0.2630
 2931TIP3    H132988   5.900   3.940  15.953 -0.8022  1.1653  0.0523
 2931TIP3    H232989   5.858   3.958  16.097  0.8663 -0.7730  0.8362
 2932TIP3   OH232990   6.346   3.530  15.490  0.1621 -0.2053  0.1293
 2932TIP3    H132991   6.256   3.549  15.517  0.0407  0.1005 -0.4810
 2932TIP3    H232992   6.381   3.614  15.461  1.3789  0.1502  2.3837
 2933TIP3   OH232993   2.874   5.653  14.725  0.1076  0.0084 -0.3389
 2933TIP3    H132994   2.931   5.633  14.651  1.1918  1.4339  0.0656
 2933TIP3    H232995   2.874   5.748  14.730  0.4532 -0.0471  1.7757
 2934TIP3   OH232996   0.362   2.315  16.534 -0.1041  0.2189 -0.5635
 2934TIP3    H132997   0.297   2.382  16.557  0.5831  0.0249  2.2816
 2934TIP3    H232998   0.318   2.261  16.468 -0.9747  2.9351 -2.3915
 2935TIP3   OH232999   5.377   3.561  16.916 -0.2559 -0.2358  0.6581
 2935TIP3    H133000   5.373   3.615  16.994  1.7570  1.5274 -0.3588
 2935TIP3    H233001   5.294   3.578  16.871 -1.9931 -2.1935  2.8468
 2936TIP3   OH233002   0.570   1.469  14.374  0.1166 -0.0292  0.1697
 2936TIP3    H133003   0.607   1.430  14.453  0.4340  1.1026  0.5899
 2936TIP3    H233004   0.525   1.548  14.405 -0.7286 -0.1724 -0.6368
 2937TIP3   OH233005   4.250   5.783  14.914  0.4050 -0.2021 -0.0613
 2937TIP3    H133006   4.226   5.691  14.914  1.4560 -0.4941 -0.4102
 2937TIP3    H233007   4.319   5.790  14.847  0.8066  0.7096  0.4244
 2938TIP3   OH233008   0.747   1.161  14.463  0.3808  0.0012 -0.1900
 2938TIP3    H133009   0.760   1.247  14.502  0.3609 -0.4401  0.8204
 2938TIP3    H233010   0.833   1.120  14.464  0.2561 -0.2568 -0.0185
 2939TIP3   OH233011   6.674   6.458  16.327  0.3892 -0.1795 -0.1562
 2939TIP3    H133012   6.718   6.543  16.327 -0.8659  0.4967 -1.0627
 2939TIP3    H233013   6.725   6.405  16.267  0.5430  0.2860 -0.4448
 2940TIP3   OH233014   4.435   6.742  16.438 -0.2574  0.2100  0.2124
 2940TIP3    H133015   4.497   6.721  16.508 -0.2562  0.4166  0.2735
 2940TIP3    H233016   4.457   6.682  16.367  0.7796  1.0584 -0.2122
 2941TIP3   OH233017   5.605   6.027  15.921  0.3855  0.3629  0.2069
 2941TIP3    H133018   5.593   5.999  16.012  0.6998 -1.1715 -0.1912
 2941TIP3    H233019   5.518   6.019  15.883  0.6730 -1.2628 -0.1898
 2942TIP3   OH233020   6.596   2.737  14.732  0.1919 -0.2075 -0.0281
 2942TIP3    H133021   6.599   2.754  14.827  0.5498  0.9110 -0.2172
 2942TIP3    H233022   6.680   2.696  14.712 -0.5487 -2.0152  0.3866
 2943TIP3   OH233023   0.371   4.248  16.206  0.4066  0.0475  0.0545
 2943TIP3    H133024   0.389   4.164  16.248 -0.0997 -0.6769 -1.1214
 2943TIP3    H233025   0.282   4.270  16.233 -0.0618 -0.6071 -0.9095
 2944TIP3   OH233026   1.557   1.701  14.988  0.4535  0.4915  0.2184
 2944TIP3    H133027   1.527   1.727  15.075 -1.7006 -1.8509  0.3069
 2944TIP3    H233028   1.638   1.749  14.975  0.2821  1.7484  3.0561
 2945TIP3   OH233029   1.701   3.551  16.036 -0.2519  0.0350 -0.7566
 2945TIP3    H133030   1.739   3.517  15.955 -1.7253 -1.3776 -0.9232
 2945TIP3    H233031   1.606   3.548  16.021 -0.6103 -0.9738  1.2539
 2946TIP3   OH233032   3.712   5.221  16.153 -0.7937 -0.1780 -0.0941
 2946TIP3    H133033   3.675   5.135  16.134 -2.2630  0.8334 -2.1661
 2946TIP3    H233034   3.648   5.283  16.118  0.3800  1.7854  1.0291
 2947TIP3   OH233035   6.666   0.675  16.641  0.0374  0.0445 -0.6194
 2947TIP3    H133036   6.698   0.732  16.710 -1.6072 -0.7112  0.8531
 2947TIP3    H233037   6.744   0.626  16.612  0.9322  1.0604  0.0132
 2948TIP3   OH233038   3.196   0.834  14.117 -0.0257 -0.1851 -0.2119
 2948TIP3    H133039   3.204   0.796  14.204 -1.7719  0.7306  0.3900
 2948TIP3    H233040   3.250   0.777  14.061  0.6994 -1.0978  1.3499
 2949TIP3   OH233041   1.115   3.175  14.519  0.8820  0.0680 -0.4500
 2949TIP3    H133042   1.023   3.168  14.546  1.4878 -1.5277  1.4908
 2949TIP3    H233043   1.127   3.102  14.458  1.2503 -0.8823  0.7125
 2950TIP3   OH233044   5.950   4.781  14.883 -1.0712  0.2966 -0.4426
 2950TIP3    H133045   6.023   4.793  14.944  0.1074 -2.4223 -1.1671
 2950TIP3    H233046   5.876   4.755  14.938 -0.3431 -0.9557 -0.0090
 2951TIP3   OH233047   2.728   1.574  15.791  0.2037  0.2975  0.5405
 2951TIP3    H133048   2.702   1.617  15.873  1.1968  0.4684  0.7805
 2951TIP3    H233049   2.770   1.493  15.819 -0.4037 -0.1587  0.1452
 2952TIP3   OH233050   0.018   4.732  14.746  0.5953 -0.4035  0.1852
 2952TIP3    H133051   0.013   4.639  14.769  0.4399 -0.2463  0.8093
 2952TIP3    H233052  -0.007   4.778  14.826 -1.8311  0.1369 -0.7774
 2953TIP3   OH233053   2.186   0.411  13.942 -0.2275  0.3371 -0.1251
 2953TIP3    H133054   2.135   0.481  13.983  1.2801  0.9503  0.7785
 2953TIP3    H233055   2.230   0.368  14.014  0.7738  0.0277 -0.8980
 2954TIP3   OH233056   5.910   3.684  14.358 -0.4689  0.0114  0.1423
 2954TIP3    H133057   5.899   3.710  14.266 -0.8625  0.2442  0.2505
 2954TIP3    H233058   5.821   3.672  14.390 -0.4140  1.4314  0.9105
 2955TIP3   OH233059   6.027   3.693  14.742 -0.0326  0.3064  0.1657
 2955TIP3    H133060   6.052   3.771  14.692  1.1269  0.6631  1.2348
 2955TIP3    H233061   5.934   3.681  14.723  0.1082  1.0878 -1.1547
 2956TIP3   OH233062   2.394   6.681  16.316  0.5479  0.1475 -0.2641
 2956TIP3    H133063   2.438   6.617  16.373  1.3522 -0.2756 -1.3209
 2956TIP3    H233064   2.343   6.735  16.376  0.4591 -1.0008  0.7438
 2957TIP3   OH233065   1.923   3.508  14.729 -0.2673 -0.4067  0.5981
 2957TIP3    H133066   1.828   3.496  14.723 -0.1648 -2.6072  2.1479
 2957TIP3    H233067   1.959   3.427  14.692  1.0136  0.2939  0.2675
 2958TIP3   OH233068   6.605   2.347  15.459  0.3436 -0.6679 -0.3011
 2958TIP3    H133069   6.545   2.286  15.416  0.9763 -1.3619 -0.2243
 2958TIP3    H233070   6.575   2.350  15.550  0.2795 -0.8496 -0.3150
 2959TIP3   OH233071   4.703   4.525  15.730 -0.3211  0.2561  0.1499
 2959TIP3    H133072   4.661   4.465  15.792 -2.1955  0.7793 -0.5301
 2959TIP3    H233073   4.796   4.521  15.751 -0.5680 -1.7839  1.0634
 2960TIP3   OH233074   0.660   3.909  15.323 -0.2351  0.2123 -0.2060
 2960TIP3    H133075   0.676   3.874  15.235  0.1243  0.9229 -0.4378
 2960TIP3    H233076   0.629   3.998  15.307 -3.4936 -0.7121  0.2627
 2961TIP3   OH233077   4.243   5.949  16.079 -0.0607  0.6028  0.0118
 2961TIP3    H133078   4.246   5.867  16.127  1.4959 -0.6778 -2.0789
 2961TIP3    H233079   4.165   5.941  16.023 -0.6190  1.1216  0.7028
 2962TIP3   OH233080   3.652   4.911  15.902 -0.1350 -0.1273  0.8882
 2962TIP3    H133081   3.579   4.973  15.906 -0.7819 -0.9268  2.5099
 2962TIP3    H233082   3.690   4.912  15.990 -0.9445 -2.8813  1.3876
 2963TIP3   OH233083   6.189   6.519  15.270  0.0017 -0.2044 -0.2871
 2963TIP3    H133084   6.102   6.536  15.305  0.3368  1.0135  0.0056
 2963TIP3    H233085   6.247   6.576  15.321  0.5708  1.3417 -2.5178
 2964TIP3   OH233086   6.114   3.175  16.962 -0.6016 -0.3498 -0.5906
 2964TIP3    H133087   6.115   3.123  16.882  2.1894 -3.3783  1.1518
 2964TIP3    H233088   6.045   3.135  17.015 -1.5444  0.7968 -0.9080
 2965TIP3   OH233089   4.070   4.613  14.450  0.1086 -0.2283  0.1369
 2965TIP3    H133090   4.042   4.560  14.376 -0.9243  0.8422 -0.2667
 2965TIP3    H233091   4.053   4.703  14.424 -0.6213  0.1596  1.7991
 2966TIP3   OH233092   3.674   5.873  16.730  0.3375 -0.0692  0.1968
 2966TIP3    H133093   3.717   5.789  16.746  0.1711 -0.1729  0.1083
 2966TIP3    H233094   3.732   5.938  16.769  1.1520 -0.1025 -0.9115
 2967TIP3   OH233095   0.911   5.098  16.758 -0.5911 -0.1266 -0.0929
 2967TIP3    H133096   0.879   5.049  16.682  1.4213 -0.8912 -0.5081
 2967TIP3    H233097   0.836   5.103  16.817 -0.9938 -3.5090 -0.1388
 2968TIP3   OH233098   3.864   0.350  15.683 -0.3357  0.0589  0.4235
 2968TIP3    H133099   3.839   0.408  15.611  0.3115  0.2490  0.3445
 2968TIP3    H233100   3.806   0.375  15.754 -1.9353 -1.0698 -0.4377
 2969TIP3   OH233101   0.127   4.709  16.731  0.0901 -0.7232 -0.4647
 2969TIP3    H133102   0.137   4.685  16.823 -0.6040  0.1965 -0.1366
 2969TIP3    H233103   0.103   4.627  16.688 -0.7464 -0.9408  0.3825
 2970TIP3   OH233104   5.879   0.635  16.409  0.0860 -0.6005 -0.3455
 2970TIP3    H133105   5.929   0.591  16.340 -2.4493 -0.7405 -2.2341
 2970TIP3    H233106   5.822   0.696  16.362 -1.6031 -0.5309  1.6448
 2971TIP3   OH233107   5.756   1.735  16.822 -0.0557  0.0536  0.0619
 2971TIP3    H133108   5.735   1.641  16.828  1.1525 -0.1987  0.6328
 2971TIP3    H233109   5.683   1.778  16.867 -0.4233 -0.6423  0.1472
 2972TIP3   OH233110   2.095   5.168  14.752  0.2338  0.0966 -0.3253
 2972TIP3    H133111   2.031   5.138  14.816  0.7175  0.0357  0.1384
 2972TIP3    H233112   2.043   5.212  14.684 -0.5199 -1.9658 -1.1490
 2973TIP3   OH233113   5.123   0.358  14.751 -0.7046  0.2824 -0.4170
 2973TIP3    H133114   5.138   0.449  14.724  0.2676 -0.2989 -1.9826
 2973TIP3    H233115   5.180   0.347  14.827  1.8950  0.0800 -2.2380
 2974TIP3   OH233116   5.842   2.122  14.698 -0.3434  0.2079  0.4551
 2974TIP3    H133117   5.806   2.034  14.713 -1.0955 -0.1235 -2.6010
 2974TIP3    H233118   5.765   2.179  14.696  0.1130  0.9380  2.0891
 2975TIP3   OH233119   2.182   0.580  15.219  0.3071  0.0788 -0.3538
 2975TIP3    H133120   2.163   0.607  15.309  1.3967 -2.0375  0.5992
 2975TIP3    H233121   2.234   0.651  15.183 -1.3170  1.6092  0.1608
 2976TIP3   OH233122   2.196   2.798  15.121  0.3680 -0.1837 -0.1793
 2976TIP3    H133123   2.120   2.807  15.064 -0.1525 -0.2512  0.4864
 2976TIP3    H233124   2.238   2.884  15.119  0.4268 -0.2245 -0.7607
 2977TIP3   OH233125   1.070   5.548  14.050  0.1110  0.0828 -0.0247
 2977TIP3    H133126   1.078   5.628  14.102 -0.9284  0.0386  0.2303
 2977TIP3    H233127   1.006   5.570  13.981 -0.4093 -0.6027  0.2229
 2978TIP3   OH233128   4.679   6.605  16.294 -0.7936  0.3399 -0.4212
 2978TIP3    H133129   4.676   6.515  16.262  1.3112 -0.3080  0.9689
 2978TIP3    H233130   4.669   6.659  16.216 -1.3328 -1.0867 -1.3815
 2979TIP3   OH233131   6.649   3.878  16.417 -0.1518 -0.0512 -0.6836
 2979TIP3    H133132   6.595   3.868  16.339 -1.8529  0.3440  0.4050
 2979TIP3    H233133   6.631   3.800  16.469  0.5982 -0.0675 -0.4359
 2980TIP3   OH233134   3.912   4.670  13.851 -0.2117  0.2663  0.3506
 2980TIP3    H133135   3.967   4.634  13.921 -1.1025 -0.5922  0.6319
 2980TIP3    H233136   3.960   4.746  13.820  1.3216 -0.6379  0.3683
 2981TIP3   OH233137   4.312   4.540  16.479 -0.5538  0.5204  0.2276
 2981TIP3    H133138   4.405   4.519  16.483 -0.9045 -1.0446  1.3762
 2981TIP3    H233139   4.305   4.628  16.515  0.3084 -0.0471  1.8653
 2982TIP3   OH233140   3.400   1.808  14.713 -0.2751 -0.1913 -0.5812
 2982TIP3    H133141   3.455   1.835  14.640  1.4460 -1.6165  0.1231
 2982TIP3    H233142   3.424   1.868  14.784 -0.8742  0.2449 -0.7355
 2983TIP3   OH233143   6.047   2.885  15.175 -0.0395 -0.3971 -0.4444
 2983TIP3    H133144   6.136   2.850  15.175 -0.2079 -0.8784  0.6042
 2983TIP3    H233145   5.998   2.826  15.118 -0.1299 -1.3825  0.6256
 2984TIP3   OH233146   5.916   2.258  16.348  0.1541  0.3979  0.0845
 2984TIP3    H133147   5.910   2.166  16.324  0.4551  0.6090 -0.8615
 2984TIP3    H233148   5.838   2.299  16.309 -1.2770  0.1793  2.4851
 2985TIP3   OH233149   2.384   5.636  15.477 -0.0011 -0.3195 -0.1419
 2985TIP3    H133150   2.402   5.727  15.500  0.3614  0.8047 -4.0677
 2985TIP3    H233151   2.321   5.606  15.542 -3.2387  4.0335 -0.8480
 2986TIP3   OH233152   2.556   1.945  16.825  0.2265 -0.1219  0.0549
 2986TIP3    H133153   2.515   1.860  16.845  0.0852  0.0538  0.5207
 2986TIP3    H233154   2.483   2.001  16.798 -0.0545  0.5594  2.0792
 2987TIP3   OH233155   2.756   2.850  16.976 -0.1370  0.1398 -0.3651
 2987TIP3    H133156   2.709   2.795  17.038 -0.8965 -1.1137 -1.9584
 2987TIP3    H233157   2.759   2.936  17.017 -2.8323 -0.0087  0.3528
 2988TIP3   OH233158   2.903   5.513  14.137  0.0663  0.4863  0.2460
 2988TIP3    H133159   2.869   5.550  14.056 -0.6761  3.0027  1.6102
 2988TIP3    H233160   2.995   5.539  14.139 -0.5655  2.9747  1.4387
 2989TIP3   OH233161   3.487   0.754  14.880 -0.3867 -0.7811  0.2112
 2989TIP3    H133162   3.393   0.734  14.881 -0.6267  0.2574  0.1523
 2989TIP3    H233163   3.499   0.814  14.953 -0.0924  0.3936 -0.7611
 2990TIP3   OH233164   4.272   4.067  16.249 -0.3218 -0.2758  0.0167
 2990TIP3    H133165   4.256   4.161  16.255 -1.6005 -0.4154 -0.8500
 2990TIP3    H233166   4.263   4.036  16.340  1.1907  0.5602  0.4892
 2991TIP3   OH233167   4.947   1.754  13.965 -0.7373  0.0708  0.3703
 2991TIP3    H133168   4.940   1.843  13.930 -1.7277 -0.5674 -1.1526
 2991TIP3    H233169   4.871   1.744  14.022 -1.7648 -0.4437 -1.0466
 2992TIP3   OH233170   3.508   3.115  15.574 -0.4000 -0.8102  0.1901
 2992TIP3    H133171   3.434   3.062  15.545 -1.3239  1.1936 -1.3613
 2992TIP3    H233172   3.473   3.170  15.644 -0.1732 -0.3909 -0.0211
 2993TIP3   OH233173   0.593   4.490  13.936  0.0494  0.1756  0.2973
 2993TIP3    H133174   0.578   4.581  13.910 -1.9164 -0.3058 -0.3773
 2993TIP3    H233175   0.687   4.476  13.922  0.0826  1.6199 -1.1553
 2994TIP3   OH233176   5.850   6.126  16.833  0.5648  0.1766  0.3997
 2994TIP3    H133177   5.918   6.131  16.900  0.8988 -1.1510  0.1921
 2994TIP3    H233178   5.776   6.175  16.869  0.3526 -1.3909  2.2274
 2995TIP3   OH233179   6.546   3.332  16.036 -0.0474 -0.2015  0.1125
 2995TIP3    H133180   6.480   3.401  16.030 -0.6365 -0.8397 -1.2123
 2995TIP3    H233181   6.502   3.254  16.003  1.5021 -0.5364 -1.3295
 2996TIP3   OH233182   3.627   2.822  15.809 -0.3274  0.7048  0.3890
 2996TIP3    H133183   3.640   2.882  15.736  1.5098  2.2401  1.8621
 2996TIP3    H233184   3.671   2.741  15.782  1.0667  1.5255  0.0607
 2997TIP3   OH233185   4.001   4.719  16.361 -0.6394  0.5573  0.0384
 2997TIP3    H133186   3.958   4.729  16.446 -0.1926  2.6999  0.0731
 2997TIP3    H233187   4.044   4.803  16.346 -1.0293  0.3732 -2.4908
 2998TIP3   OH233188   3.151   1.098  14.893 -0.2758  0.2060  0.7193
 2998TIP3    H133189   3.080   1.151  14.857 -0.9678 -0.3762  1.1789
 2998TIP3    H233190   3.216   1.094  14.823 -0.8082  0.5415  0.1925
 2999TIP3   OH233191   5.248   5.761  14.717 -0.4505  0.3433  0.1441
 2999TIP3    H133192   5.249   5.856  14.713 -0.9291  0.3286 -0.5182
 2999TIP3    H233193   5.325   5.734  14.666  1.1926  0.3981  2.4419
 3000TIP3   OH233194   0.787   3.215  16.575 -0.0022  0.1747 -0.0009
 3000TIP3    H133195   0.880   3.213  16.594 -0.2938  0.3430  1.5712
 3000TIP3    H233196   0.761   3.306  16.590 -0.1685  0.4758 -1.8680
 3001TIP3   OH233197   2.767   6.319  16.415 -0.0018  0.2880  0.0631
 3001TIP3    H133198   2.763   6.256  16.486 -1.3457  1.0886  0.7301
 3001TIP3    H233199   2.850   6.364  16.427  0.2316 -0.2567  0.5256
 3002TIP3   OH233200   3.860   1.142  15.176  0.2283  0.7102 -0.5781
 3002TIP3    H133201   3.832   1.078  15.111  0.4739  1.2918 -1.2633
 3002TIP3    H233202   3.786   1.201  15.186 -0.7849 -0.7441  1.5066
 3003TIP3   OH233203   5.315   1.606  15.827 -1.0119  0.0472 -0.6928
 3003TIP3    H133204   5.232   1.636  15.791 -1.6603 -1.2151 -0.3065
 3003TIP3    H233205   5.291   1.556  15.905  0.0581 -0.9021 -0.9425
 3004TIP3   OH233206   0.778   1.587  13.457 -0.4414  0.3115 -0.6475
 3004TIP3    H133207   0.747   1.673  13.485  1.4918  1.6994 -2.4612
 3004TIP3    H233208   0.835   1.557  13.528  0.5140  1.5079 -0.8816
 3005TIP3   OH233209   2.016   1.418  14.830 -0.2124 -0.4940  0.9470
 3005TIP3    H133210   1.932   1.435  14.873 -0.1674 -0.8083  1.1631
 3005TIP3    H233211   2.081   1.425  14.901  0.1393  1.3228  0.5097
 3006TIP3   OH233212   2.779   3.953  16.050  0.3850 -0.7346 -0.0985
 3006TIP3    H133213   2.748   3.907  15.972 -2.0373  2.0727 -1.0363
 3006TIP3    H233214   2.749   3.899  16.123  2.3541 -3.2311 -1.0140
 3007TIP3   OH233215   0.419   2.156  14.596  0.4535 -0.7753  0.5487
 3007TIP3    H133216   0.338   2.188  14.635  1.2362  1.1637  0.7084
 3007TIP3    H233217   0.423   2.064  14.621 -1.8163 -0.9989  0.2938
 3008TIP3   OH233218   3.970   0.090  14.058  0.8989  0.2501  0.3961
 3008TIP3    H133219   4.065   0.078  14.050  1.1174  1.5153  0.9455
 3008TIP3    H233220   3.937   0.079  13.969  1.5538 -0.1946  0.2012
 3009TIP3   OH233221   3.262   1.723  14.330 -0.5288  0.2855  0.2022
 3009TIP3    H133222   3.290   1.807  14.292 -2.0986 -0.1151 -2.0447
 3009TIP3    H233223   3.179   1.743  14.373  0.2039  0.2929  1.6763
 3010TIP3   OH233224   3.317   0.121  14.567 -0.2124 -0.6190  0.2422
 3010TIP3    H133225   3.348   0.031  14.567 -1.7189 -1.1795  0.7601
 3010TIP3    H233226   3.280   0.133  14.655  1.7427  1.1708  0.8918
 3011TIP3   OH233227   3.860   4.503  15.188 -1.0426  0.7956  0.0195
 3011TIP3    H133228   3.784   4.559  15.178 -0.8448  0.9763 -0.5027
 3011TIP3    H233229   3.835   4.420  15.147 -0.6664  1.1328 -0.9171
 3012TIP3   OH233230   3.524   3.618  14.166 -0.1444 -0.4514  0.3154
 3012TIP3    H133231   3.509   3.603  14.073  0.8960 -1.1452  0.2496
 3012TIP3    H233232   3.591   3.686  14.170  0.4234 -1.0147  0.5423
 3013TIP3   OH233233   0.357   0.834  15.287  0.4135 -0.2960 -0.4427
 3013TIP3    H133234   0.402   0.763  15.335 -2.9175 -2.1388  0.2631
 3013TIP3    H233235   0.333   0.897  15.355 -0.3045 -0.6264 -0.3810
 3014TIP3   OH233236   3.701   6.636  16.480  0.5600 -0.9969  0.2831
 3014TIP3    H133237   3.765   6.613  16.547 -1.7565 -1.7627  2.3832
 3014TIP3    H233238   3.629   6.575  16.494 -1.4294  1.0013 -0.7325
 3015TIP3   OH233239   1.724   0.412  13.088 -0.1500 -0.3298  0.3052
 3015TIP3    H133240   1.759   0.323  13.088 -0.6771 -0.5474 -0.4143
 3015TIP3    H233241   1.629   0.401  13.090 -0.2556  0.1851 -0.8086
 3016TIP3   OH233242   1.039   4.915  15.299 -0.0706  0.2497 -0.5938
 3016TIP3    H133243   1.032   4.934  15.393 -2.1551 -1.4336 -0.3212
 3016TIP3    H233244   1.114   4.966  15.270 -0.5597  2.4234  1.5628
 3017TIP3   OH233245   1.696   1.763  14.468 -0.3854  0.5011  0.5367
 3017TIP3    H133246   1.641   1.827  14.423 -0.3335 -0.2259 -0.5849
 3017TIP3    H233247   1.741   1.716  14.398 -0.5715 -0.9022  1.3139
 3018TIP3   OH233248   0.462   6.190  14.719  0.1037  0.1107 -0.0887
 3018TIP3    H133249   0.513   6.109  14.729  0.4511  0.1162 -1.6441
 3018TIP3    H233250   0.497   6.231  14.641  0.9900  2.5863  1.5071
 3019TIP3   OH233251   5.963   1.273  15.531  0.4272 -0.1485 -0.6813
 3019TIP3    H133252   6.007   1.344  15.579  1.5531 -0.8425 -0.6536
 3019TIP3    H233253   5.905   1.319  15.471 -0.5602  0.7619  0.8813
 3020TIP3   OH233254   0.916   1.698  13.026  0.1256 -0.4353  0.3705
 3020TIP3    H133255   0.945   1.608  13.043  1.1919  0.1967  2.0681
 3020TIP3    H233256   0.835   1.707  13.076 -0.7858 -0.8619 -0.9634
 3021TIP3   OH233257   3.604   5.900  14.871 -0.1650  0.4280  0.4129
 3021TIP3    H133258   3.514   5.931  14.880 -0.2698  0.1786  0.2253
 3021TIP3    H233259   3.598   5.806  14.882  0.1287  0.4525  0.7855
 3022TIP3   OH233260   3.538   1.616  12.951  0.2447 -0.2350 -0.0414
 3022TIP3    H133261   3.514   1.568  13.030 -0.6338 -0.0330 -0.1808
 3022TIP3    H233262   3.632   1.631  12.961 -0.1243  1.3928  1.8757
 3023TIP3   OH233263   0.743   5.400  16.043 -0.4929 -0.2288  0.3923
 3023TIP3    H133264   0.649   5.383  16.047 -0.3398 -0.8983  2.3415
 3023TIP3    H233265   0.755   5.483  16.088 -0.2267  0.3748 -0.7456
 3024TIP3   OH233266   0.468   1.220  15.667 -0.1412  0.0633 -0.4635
 3024TIP3    H133267   0.529   1.223  15.741 -2.7326 -1.0941  1.9342
 3024TIP3    H233268   0.437   1.310  15.657 -0.7071  0.0336  0.7965
 3025TIP3   OH233269   5.453   4.111  16.480  0.3243 -0.3904 -0.1030
 3025TIP3    H133270   5.520   4.174  16.454 -0.9650  0.5946 -1.1715
 3025TIP3    H233271   5.433   4.133  16.571  1.1471 -0.4456  0.0996
 3026TIP3   OH233272   3.975   0.453  13.308 -0.3753  0.6345 -0.0842
 3026TIP3    H133273   4.034   0.419  13.241 -1.0623 -2.7183  0.8081
 3026TIP3    H233274   4.032   0.488  13.375  0.8638 -3.1993  1.1116
 3027TIP3   OH233275   5.130   4.136  15.236  0.3404  0.3446 -0.5111
 3027TIP3    H133276   5.084   4.134  15.320 -0.8705 -0.6482 -1.1588
 3027TIP3    H233277   5.065   4.167  15.174  0.3976 -1.4095 -1.5147
 3028TIP3   OH233278   3.375   4.161  17.072 -0.0400  0.5606 -0.0923
 3028TIP3    H133279   3.367   4.099  16.999  0.2230  0.5233 -0.0910
 3028TIP3    H233280   3.424   4.114  17.139 -1.0061  0.3026  0.4498
 3029TIP3   OH233281   2.910   1.638  13.945 -0.2847  0.4481  0.3735
 3029TIP3    H133282   2.887   1.724  13.978  0.1604 -0.2134  2.5527
 3029TIP3    H233283   2.904   1.580  14.021  2.6292 -0.8453 -0.2118
 3030TIP3   OH233284   2.265   2.042  16.691 -0.6402  0.1063 -0.2322
 3030TIP3    H133285   2.208   2.031  16.766 -2.1147  2.5824 -0.8939
 3030TIP3    H233286   2.297   2.132  16.697  0.7376 -0.2358 -1.5781
 3031TIP3   OH233287   2.715   5.925  15.180 -0.0285  0.7666 -0.1648
 3031TIP3    H133288   2.705   5.831  15.166  1.8693  0.4332  0.4298
 3031TIP3    H233289   2.634   5.951  15.224 -0.5074 -0.6156 -0.1610
 3032TIP3   OH233290   1.349   2.076  14.723  0.4234  0.1590  0.2405
 3032TIP3    H133291   1.404   2.035  14.790  1.3658  0.4182 -0.3587
 3032TIP3    H233292   1.294   2.137  14.771  0.1517 -0.6175  0.9406
 3033TIP3   OH233293   3.177   4.969  16.339  0.2692  0.0474 -0.5166
 3033TIP3    H133294   3.136   4.894  16.297  2.2272 -0.2829 -1.9835
 3033TIP3    H233295   3.151   5.044  16.285 -1.0899  0.3754  0.5285
 3034TIP3   OH233296   2.763   0.930  14.960 -0.5612 -0.2315  0.1091
 3034TIP3    H133297   2.731   0.899  15.045 -0.7028  0.7508  0.4180
 3034TIP3    H233298   2.697   0.900  14.897 -1.0257  0.0134  0.4827
 3035TIP3   OH233299   6.583   4.847  15.141 -0.3814 -0.2086 -0.2292
 3035TIP3    H133300   6.505   4.891  15.175  0.2830  0.8034  0.0176
 3035TIP3    H233301   6.551   4.761  15.113 -1.5405  0.1011  0.0737
 3036TIP3   OH233302   1.149   6.533  16.996 -0.0438 -0.2895  0.4620
 3036TIP3    H133303   1.137   6.628  16.991 -0.6066 -0.2862  1.5519
 3036TIP3    H233304   1.163   6.516  17.089 -1.0433 -1.3791  0.4389
 3037TIP3   OH233305   6.184   2.347  13.903  0.2054  0.5362 -0.1155
 3037TIP3    H133306   6.124   2.415  13.870 -0.2035  0.6877  0.9056
 3037TIP3    H233307   6.136   2.265  13.889 -0.6409  0.7206  1.4660
 3038TIP3   OH233308   1.343   6.504  15.037  0.3893  0.0283  0.7830
 3038TIP3    H133309   1.253   6.524  15.062  1.1308  1.6528  2.4304
 3038TIP3    H233310   1.388   6.489  15.121  1.6740 -0.7472 -0.0046
 3039TIP3   OH233311   4.364   1.149  14.129  0.4553 -0.5370 -0.0133
 3039TIP3    H133312   4.437   1.188  14.081 -1.5662  0.8228 -2.2264
 3039TIP3    H233313   4.343   1.214  14.196  0.0454  0.0445 -0.6850
 3040TIP3   OH233314   5.826   5.566  15.361 -0.6922 -0.1813 -0.0942
 3040TIP3    H133315   5.893   5.499  15.349 -1.2123 -0.3572 -2.3102
 3040TIP3    H233316   5.849   5.635  15.299 -2.3872 -0.1342 -0.7215
 3041TIP3   OH233317   1.204   6.350  13.962  0.0166  0.2586  1.0984
 3041TIP3    H133318   1.190   6.257  13.941  0.0950 -0.0764  2.4147
 3041TIP3    H233319   1.152   6.397  13.898 -1.5396 -0.7566  1.5497
 3042TIP3   OH233320   2.102   2.343  16.549 -0.0457  0.3336  0.3867
 3042TIP3    H133321   2.128   2.370  16.461  0.2509 -1.1116  0.0102
 3042TIP3    H233322   2.007   2.334  16.545 -0.0418  0.3537  0.2349
 3043TIP3   OH233323   6.262   1.853  15.678 -0.1593 -0.2063 -0.2874
 3043TIP3    H133324   6.197   1.861  15.608 -1.1500  0.1881  0.6548
 3043TIP3    H233325   6.236   1.919  15.742 -0.2001 -1.5856  1.1694
 3044TIP3   OH233326   2.238   3.284  15.640 -0.2965 -0.4423 -0.0125
 3044TIP3    H133327   2.180   3.209  15.630 -1.3724  0.0960  1.7058
 3044TIP3    H233328   2.180   3.357  15.660  0.8848  0.3185  0.7898
 3045TIP3   OH233329   1.024   6.241  15.425  0.4295  0.2672  0.0218
 3045TIP3    H133330   0.997   6.203  15.341 -0.4066 -0.8938  0.7764
 3045TIP3    H233331   1.053   6.166  15.476 -0.5088  0.7387  1.2885
 3046TIP3   OH233332   4.963   6.256  15.037  0.5203  0.4867  0.5866
 3046TIP3    H133333   5.040   6.247  14.980  0.3584 -0.9791  0.5496
 3046TIP3    H233334   4.907   6.182  15.013 -1.5084  2.1846 -0.2356
 3047TIP3   OH233335   6.361   0.859  15.149 -0.0908  0.4360 -0.0800
 3047TIP3    H133336   6.296   0.799  15.185 -0.0738  1.1100  1.1164
 3047TIP3    H233337   6.380   0.921  15.220  0.0900  1.7058 -1.1861
 3048TIP3   OH233338   2.091   2.209  12.979 -0.0523  0.2717 -0.2183
 3048TIP3    H133339   2.076   2.296  12.941  0.0827  1.1428  1.6519
 3048TIP3    H233340   2.003   2.177  13.001 -0.0611  0.1284 -0.4504
 3049TIP3   OH233341   1.441   5.370  16.649 -0.3864  0.5069 -0.2648
 3049TIP3    H133342   1.435   5.372  16.553  2.3460  0.7176 -0.5284
 3049TIP3    H233343   1.510   5.434  16.670 -0.9177  0.4563  1.8440
 3050TIP3   OH233344   3.703   4.425  14.306 -0.1190  0.3540  0.1784
 3050TIP3    H133345   3.668   4.387  14.226  0.5386  2.3797 -1.1280
 3050TIP3    H233346   3.626   4.463  14.349 -0.0951  1.6934 -0.9108
 3051TIP3   OH233347   4.696   3.482  16.503  0.0979 -0.4229 -0.4024
 3051TIP3    H133348   4.629   3.424  16.465 -1.2316  2.0173 -2.0441
 3051TIP3    H233349   4.731   3.531  16.429  0.4214  1.5929  0.9996
 3052TIP3   OH233350   0.920   6.387  15.138  0.0859 -0.0960 -0.6655
 3052TIP3    H133351   0.872   6.365  15.218 -0.7971  2.4750 -0.3682
 3052TIP3    H233352   0.987   6.320  15.130  0.5023 -0.2023  2.5168
 3053TIP3   OH233353   4.311   4.581  16.893 -0.1770 -0.6489  0.0940
 3053TIP3    H133354   4.248   4.642  16.853 -0.3333 -0.1391  1.0738
 3053TIP3    H233355   4.389   4.634  16.907 -0.3504 -0.6227  1.0539
 3054TIP3   OH233356   0.401   5.826  14.845 -0.1513  0.6051 -0.2539
 3054TIP3    H133357   0.328   5.861  14.896  0.4560  0.8147  0.4980
 3054TIP3    H233358   0.371   5.827  14.754 -0.8845  1.1762 -0.0071
 3055TIP3   OH233359   1.029   6.439  14.716 -0.0772  0.8469 -0.0210
 3055TIP3    H133360   1.078   6.519  14.698 -0.2598  1.2106  1.0162
 3055TIP3    H233361   1.032   6.390  14.634 -0.1219  2.0004 -0.7382
 3056TIP3   OH233362   1.012   6.003  14.250 -0.4402  0.3747  0.5481
 3056TIP3    H133363   0.962   6.070  14.297 -2.1518 -0.9190  0.6774
 3056TIP3    H233364   0.980   5.920  14.286  1.6872 -0.5480  0.4682
 3057TIP3   OH233365   6.247   4.548  16.934  0.6377 -0.7348  0.3224
 3057TIP3    H133366   6.318   4.562  16.871 -0.5528 -1.9216 -1.3795
 3057TIP3    H233367   6.195   4.477  16.896 -2.0604  0.7662  0.9436
 3058TIP3   OH233368   0.187   5.111  13.827 -0.3837  0.0314  0.4511
 3058TIP3    H133369   0.275   5.076  13.823 -0.5121 -0.1877 -0.9315
 3058TIP3    H233370   0.199   5.206  13.839  0.0325  0.0163  0.1546
 3059TIP3   OH233371   5.317   3.759  17.106 -0.2300  0.0338  0.0706
 3059TIP3    H133372   5.364   3.816  17.044  0.5344  0.7462  1.2553
 3059TIP3    H233373   5.225   3.781  17.094  0.0142  1.1626  0.1382
 3060TIP3   OH233374   0.952   1.148  15.992 -0.4498  0.1598 -0.7023
 3060TIP3    H133375   0.920   1.205  16.062  3.8065  0.6517  1.1537
 3060TIP3    H233376   0.931   1.060  16.022 -1.7826  0.4772 -0.6284
 3061TIP3   OH233377   4.283   1.604  15.728  0.1137 -0.0710  0.3213
 3061TIP3    H133378   4.301   1.513  15.751  0.5351 -0.1515 -0.2992
 3061TIP3    H233379   4.212   1.598  15.665  0.5797 -0.0193 -0.2159
 3062TIP3   OH233380   5.882   6.725  15.591  0.0867  0.1131  0.1091
 3062TIP3    H133381   5.899   6.688  15.504  3.8821 -1.8976  1.4550
 3062TIP3    H233382   5.872   6.649  15.648  0.7325  1.2904  1.8891
 3063TIP3   OH233383   6.570   0.908  14.070  0.4393  0.1478 -0.5918
 3063TIP3    H133384   6.625   0.978  14.107 -0.1773  0.4449 -0.2130
 3063TIP3    H233385   6.632   0.843  14.039  1.0239  0.7574 -0.7346
 3064TIP3   OH233386   2.179   1.359  17.037  0.1969 -0.1647 -0.3401
 3064TIP3    H133387   2.259   1.306  17.038 -0.1454 -0.6848 -0.0143
 3064TIP3    H233388   2.159   1.371  16.944  1.9479  1.9660 -0.5116
 3065TIP3   OH233389   1.467   0.850  17.089 -0.4001 -0.0119  0.0564
 3065TIP3    H133390   1.515   0.919  17.044 -1.3446  0.6590  0.0563
 3065TIP3    H233391   1.489   0.862  17.182 -1.0980  0.7311  0.1329
 3066TIP3   OH233392   0.830   1.375  15.638 -0.3306 -0.3149 -0.2100
 3066TIP3    H133393   0.849   1.395  15.546  1.1523 -1.0883 -0.1009
 3066TIP3    H233394   0.834   1.279  15.642  2.0588 -0.2287  1.1169
 3067TIP3   OH233395   1.937   0.565  16.001 -0.6367 -0.2513 -0.1634
 3067TIP3    H133396   1.950   0.594  16.092  0.0287 -1.2634  0.0888
 3067TIP3    H233397   2.007   0.609  15.952 -2.0723  1.7482 -0.5718
 3068TIP3   OH233398   1.297   2.800  15.191 -0.3458 -0.4007 -0.1005
 3068TIP3    H133399   1.262   2.727  15.140  0.5757 -0.2383 -0.9825
 3068TIP3    H233400   1.362   2.840  15.134  0.4445  0.0156  1.0754
 3069TIP3   OH233401   0.974   2.409  14.747  0.3208  0.1587  0.1968
 3069TIP3    H133402   0.944   2.438  14.833 -0.0130 -0.6069  0.3403
 3069TIP3    H233403   0.918   2.335  14.725  1.2176 -0.4428 -0.1370
 3070TIP3   OH233404   1.450   1.948  14.332  0.3751  0.3053  0.8407
 3070TIP3    H133405   1.428   2.035  14.366 -1.2534  0.0280  0.6071
 3070TIP3    H233406   1.383   1.891  14.369  0.4950 -0.5725 -0.2476
 3071TIP3   OH233407   5.245   1.807  13.948 -0.3499 -0.5760 -0.1995
 3071TIP3    H133408   5.157   1.788  13.917 -0.3002 -2.5113  0.7657
 3071TIP3    H233409   5.302   1.775  13.878 -0.3586  0.1267 -0.5473
 3072TIP3   OH233410   1.248   3.151  16.431 -0.3484  0.2248 -1.1417
 3072TIP3    H133411   1.188   3.150  16.356 -0.2051  0.8727 -1.2652
 3072TIP3    H233412   1.261   3.058  16.452 -1.1875  0.0715 -1.2792
 3073TIP3   OH233413   2.152   5.463  15.021 -0.2880  0.3861 -0.4479
 3073TIP3    H133414   2.072   5.474  14.970  0.7786  1.2145 -2.0256
 3073TIP3    H233415   2.208   5.407  14.967  0.1066 -0.4501  0.7698
 3074TIP3   OH233416   0.098   2.897  15.080 -1.0040 -0.4021 -0.3431
 3074TIP3    H133417   0.119   2.886  15.172 -1.3040  1.1781 -0.0571
 3074TIP3    H233418   0.134   2.983  15.057 -1.4751 -0.5006 -1.5274
 3075TIP3   OH233419   5.938   0.124  14.279 -0.1544 -0.3916 -0.4807
 3075TIP3    H133420   6.002   0.053  14.277 -0.4787 -0.7719  1.1903
 3075TIP3    H233421   5.883   0.109  14.202  0.9432 -0.8240 -1.2013
 3076TIP3   OH233422   3.964   4.103  14.756  0.0642 -0.0547  0.0813
 3076TIP3    H133423   4.056   4.076  14.762  0.0627  0.1719  1.4302
 3076TIP3    H233424   3.930   4.054  14.681  0.8671 -1.3731  0.5501
 3077TIP3   OH233425   1.749   6.467  14.484  0.2843 -0.1641 -0.0972
 3077TIP3    H133426   1.738   6.394  14.424 -0.4200 -0.4505  0.3689
 3077TIP3    H233427   1.672   6.464  14.541  0.0012  1.2325 -0.3712
 3078TIP3   OH233428   4.725   2.236  15.960 -0.2459 -0.1523  0.7491
 3078TIP3    H133429   4.752   2.263  15.872 -0.1496 -0.8366  0.5627
 3078TIP3    H233430   4.639   2.195  15.947 -0.0411 -0.6444  0.8985
 3079TIP3   OH233431   2.709   6.067  16.247  0.0340  0.0095  0.1378
 3079TIP3    H133432   2.765   6.144  16.240 -0.1815  0.3275  1.5984
 3079TIP3    H233433   2.620   6.102  16.245 -0.1397 -0.4420 -1.5959
 3080TIP3   OH233434   1.555   0.523  15.026 -0.1005  0.0032  0.3835
 3080TIP3    H133435   1.594   0.447  15.069  2.7325  0.8934 -0.3851
 3080TIP3    H233436   1.473   0.491  14.990  0.4013 -2.3613  1.1554
 3081TIP3   OH233437   3.522   3.715  16.972 -0.5481  0.2845 -0.0521
 3081TIP3    H133438   3.482   3.747  17.053 -2.2076 -1.1631 -0.2551
 3081TIP3    H233439   3.521   3.620  16.981 -0.7854  0.1052 -1.7833
 3082TIP3   OH233440   5.705   5.416  16.998  0.2558 -0.5018  0.5853
 3082TIP3    H133441   5.790   5.373  17.002  0.4403 -0.0058  3.1151
 3082TIP3    H233442   5.722   5.506  17.026 -1.2029 -0.5933  1.8871
 3083TIP3   OH233443   5.444   0.925  14.365  0.7726  0.4059 -0.0876
 3083TIP3    H133444   5.528   0.964  14.387  0.9975 -0.2385  0.2072
 3083TIP3    H233445   5.405   0.986  14.302  1.7042  0.4101 -0.6661
 3084TIP3   OH233446   1.112   1.307  13.661 -0.0680 -0.3276  0.2043
 3084TIP3    H133447   1.160   1.251  13.601  0.0265  0.2670 -0.2843
 3084TIP3    H233448   1.048   1.353  13.606  1.3858  1.7824  0.1560
 3085TIP3   OH233449   0.455   5.117  15.857 -0.4444  0.1044 -0.4373
 3085TIP3    H133450   0.519   5.142  15.791  0.7155  0.8119  0.9072
 3085TIP3    H233451   0.440   5.023  15.841 -2.0127  0.7202 -3.1542
 3086TIP3   OH233452   0.024   2.177  15.676  0.7137 -0.8010 -0.1857
 3086TIP3    H133453  -0.042   2.219  15.731  1.4100 -1.4130  1.1582
 3086TIP3    H233454  -0.001   2.084  15.676  0.8931 -0.8509 -0.6669
 3087TIP3   OH233455   5.578   1.608  16.043 -0.3700 -0.1088 -0.2380
 3087TIP3    H133456   5.608   1.644  16.127  0.3871 -0.6083 -0.2859
 3087TIP3    H233457   5.494   1.568  16.064 -0.9675  1.1933 -0.0715
 3088TIP3   OH233458   6.607   5.549  14.590 -0.5371 -0.0438  0.2505
 3088TIP3    H133459   6.673   5.522  14.526 -0.3563 -0.4355  0.5977
 3088TIP3    H233460   6.525   5.515  14.556 -0.4565 -0.1661  0.1794
 3089TIP3   OH233461   5.350   0.258  13.940  0.0799 -0.7868  0.1347
 3089TIP3    H133462   5.348   0.326  14.007 -0.4771 -0.9768  0.3151
 3089TIP3    H233463   5.281   0.197  13.966 -0.9156 -0.2833 -1.2181
 3090TIP3   OH233464   3.666   2.155  16.937 -0.7726 -0.2414  0.6621
 3090TIP3    H133465   3.675   2.157  17.032 -0.0291 -0.9120  0.6192
 3090TIP3    H233466   3.744   2.110  16.906 -0.4085  1.0170 -0.3602
 3091TIP3   OH233467   3.427   4.546  15.201 -0.7928 -0.3365  0.5812
 3091TIP3    H133468   3.374   4.613  15.243 -0.3348  0.2385  0.2706
 3091TIP3    H233469   3.512   4.551  15.245  0.1971  1.3357 -1.3552
 3092TIP3   OH233470   3.707   3.025  16.863 -0.2080 -0.4851  0.0824
 3092TIP3    H133471   3.707   3.085  16.938  1.5046 -2.6088  1.8915
 3092TIP3    H233472   3.615   3.002  16.851 -0.8924  2.1900 -0.5050
 3093TIP3   OH233473   1.836   6.140  16.633 -0.0102 -0.3162  0.3650
 3093TIP3    H133474   1.808   6.049  16.636  0.6514 -0.5900 -0.8888
 3093TIP3    H233475   1.762   6.190  16.666  0.1598 -1.3891  2.5217
 3094TIP3   OH233476   4.739   1.623  14.192 -0.0338 -0.4779 -0.2446
 3094TIP3    H133477   4.663   1.679  14.178  0.8475  0.3309 -2.1216
 3094TIP3    H233478   4.771   1.647  14.279 -1.2199 -0.0011  0.0857
 3095TIP3   OH233479   4.110   4.631  15.556 -0.1719 -0.1906 -0.3510
 3095TIP3    H133480   4.158   4.580  15.622 -2.3701 -1.4152  0.4118
 3095TIP3    H233481   4.119   4.722  15.584 -0.2310 -0.6028  1.1174
 3096TIP3   OH233482   0.474   2.402  16.045  0.1934 -0.4929 -0.4557
 3096TIP3    H133483   0.448   2.493  16.036  3.0041  0.4300 -0.1222
 3096TIP3    H233484   0.424   2.370  16.121 -1.7904  0.3195 -1.3636
 3097TIP3   OH233485   6.239   0.948  14.492 -0.4543 -0.3252  0.3939
 3097TIP3    H133486   6.273   0.918  14.576 -0.0141  1.4181  0.8864
 3097TIP3    H233487   6.317   0.973  14.442 -0.7838 -0.2032 -0.0682
 3098TIP3   OH233488   3.469   2.254  15.926  0.1669 -0.2978 -0.2232
 3098TIP3    H133489   3.532   2.184  15.941  0.9920  0.7650  1.4961
 3098TIP3    H233490   3.457   2.295  16.011 -0.5379  1.4673 -1.1236
 3099TIP3   OH233491   2.315   0.135  14.004 -0.0645  0.2189  0.1954
 3099TIP3    H133492   2.389   0.075  14.010  0.1813  0.5863  0.8824
 3099TIP3    H233493   2.238   0.079  14.010  0.1639  0.0283  1.5028
 3100TIP3   OH233494   1.520   3.220  15.355 -0.1720 -0.3787  0.3489
 3100TIP3    H133495   1.427   3.224  15.376 -0.0562  1.6802  0.6624
 3100TIP3    H233496   1.532   3.288  15.288  1.5663  1.3836  2.3217
 3101TIP3   OH233497   0.633   5.651  15.116 -0.0984  1.0494  0.0160
 3101TIP3    H133498   0.596   5.610  15.038 -0.5744  0.1248  0.7043
 3101TIP3    H233499   0.727   5.632  15.111 -0.3005 -0.1302  0.2922
 3102TIP3   OH233500   6.351   5.479  15.342  0.2086 -0.0511 -0.6856
 3102TIP3    H133501   6.441   5.469  15.374  0.1504  0.8521 -0.1914
 3102TIP3    H233502   6.352   5.440  15.255  1.0070 -0.3032 -0.5754
 3103TIP3   OH233503   6.294   5.845  16.425 -0.2416  0.0251 -0.0947
 3103TIP3    H133504   6.217   5.791  16.443  0.2325 -0.5800  0.1696
 3103TIP3    H233505   6.289   5.866  16.332  0.4743 -1.9522 -0.6172
 3104TIP3   OH233506   4.893   6.188  14.064  0.3465  0.2547  0.4182
 3104TIP3    H133507   4.985   6.200  14.086  0.9098 -0.3047 -1.4061
 3104TIP3    H233508   4.880   6.093  14.063  0.3176  0.2410 -1.2570
 3105TIP3   OH233509   1.338   1.162  14.255 -0.5664  0.3667  0.4228
 3105TIP3    H133510   1.244   1.146  14.244 -0.4430  0.2388 -0.4943
 3105TIP3    H233511   1.377   1.075  14.257 -0.3387  0.4438 -0.4322
 3106TIP3   OH233512   0.213   6.137  16.434  0.1201  0.4049  0.1289
 3106TIP3    H133513   0.134   6.141  16.380  0.6213 -0.3864 -0.6919
 3106TIP3    H233514   0.284   6.126  16.371  0.9032  1.2341  0.8512
 3107TIP3   OH233515   5.257   3.430  17.222 -0.3870  0.4636 -0.0890
 3107TIP3    H133516   5.215   3.459  17.140  2.6902  2.0449 -1.2942
 3107TIP3    H233517   5.262   3.335  17.214 -0.6556  0.5399 -1.4971
 3108TIP3   OH233518   1.118   2.325  13.787 -0.3159 -0.3197 -0.2019
 3108TIP3    H133519   1.083   2.252  13.735 -0.2920 -1.0673  0.8021
 3108TIP3    H233520   1.209   2.300  13.804 -0.8546 -1.0752  1.8600
 3109TIP3   OH233521   4.627   3.477  15.625 -0.1157 -0.1778 -0.0235
 3109TIP3    H133522   4.659   3.401  15.576  0.1015 -0.4592  0.5423
 3109TIP3    H233523   4.532   3.476  15.612 -0.2039 -0.9900  0.5863
 3110TIP3   OH233524   2.848   2.278  14.232 -0.1135 -0.0217 -0.0169
 3110TIP3    H133525   2.851   2.184  14.215 -0.7808 -0.0721  0.1010
 3110TIP3    H233526   2.910   2.293  14.303  0.0982 -0.3475 -0.1323
 3111TIP3   OH233527   3.254   3.973  16.867 -0.1407  0.2379  0.2262
 3111TIP3    H133528   3.164   3.945  16.885 -0.0775 -0.1095  0.0061
 3111TIP3    H233529   3.301   3.892  16.846  0.3849  0.3270  1.0056
 3112TIP3   OH233530   2.078   1.961  15.918 -0.1580  0.1527  0.1207
 3112TIP3    H133531   2.029   1.889  15.957  0.4786 -0.3730 -0.0365
 3112TIP3    H233532   2.161   1.922  15.890  1.3775  1.4798  2.5245
 3113TIP3   OH233533   3.736   3.611  15.010 -0.7065  0.0298  0.6064
 3113TIP3    H133534   3.766   3.571  15.092 -0.5222 -1.7361 -0.2724
 3113TIP3    H233535   3.815   3.650  14.972 -0.2726 -1.2933  0.1142
 3114TIP3   OH233536   0.578   0.961  14.756  0.3416  0.1586  0.0888
 3114TIP3    H133537   0.541   0.911  14.683 -0.4798  1.8293 -0.6806
 3114TIP3    H233538   0.566   1.053  14.732 -0.7322  0.8051  2.6971
 3115TIP3   OH233539   2.517   0.379  16.240 -0.0206 -0.2644  0.2887
 3115TIP3    H133540   2.522   0.472  16.263  0.2096 -0.4411  1.0075
 3115TIP3    H233541   2.513   0.335  16.325 -0.0092 -0.9127 -0.0463
 3116TIP3   OH233542   0.440   1.962  14.241 -0.3081 -0.6143  0.3689
 3116TIP3    H133543   0.442   1.891  14.305 -1.5712 -1.7528 -0.7613
 3116TIP3    H233544   0.473   1.922  14.160  0.5388  0.5739  0.1007
 3117TIP3   OH233545   2.662   5.169  16.475 -0.3522  0.1425  0.0343
 3117TIP3    H133546   2.690   5.184  16.565 -0.2733 -1.0355  0.2232
 3117TIP3    H233547   2.605   5.091  16.480  2.0795 -1.8815 -1.3087
 3118TIP3   OH233548   2.417   2.970  14.278  0.2250 -0.5938  0.0111
 3118TIP3    H133549   2.348   3.035  14.262  0.6150  0.2292  1.4943
 3118TIP3    H233550   2.495   3.022  14.299  1.0615 -1.5249 -0.7282
 3119TIP3   OH233551   3.957   3.553  15.780 -0.2809 -0.4980 -0.2767
 3119TIP3    H133552   3.985   3.639  15.811 -0.9875 -0.5544  0.5365
 3119TIP3    H233553   4.028   3.494  15.806 -1.0949 -0.6461  1.8086
 3120TIP3   OH233554   2.787   3.677  16.367 -0.1812 -0.5055 -0.0534
 3120TIP3    H133555   2.871   3.706  16.331 -0.8155  2.2534  0.3954
 3120TIP3    H233556   2.774   3.733  16.444 -1.7607 -1.8817  0.7369
 3121TIP3   OH233557   6.482   1.449  14.575 -0.2083 -0.0181 -0.2958
 3121TIP3    H133558   6.524   1.371  14.537 -0.8159  0.2379 -1.5091
 3121TIP3    H233559   6.438   1.415  14.653 -1.2544 -1.1099 -1.3080
 3122TIP3   OH233560   2.268   6.013  16.346 -0.7828 -0.2645 -0.2540
 3122TIP3    H133561   2.286   6.079  16.414  0.4689  0.5503 -1.3155
 3122TIP3    H233562   2.174   6.019  16.330 -0.7780  0.8795  0.0747
 3123TIP3   OH233563   0.438   4.933  14.561 -0.2394  0.0100  0.9125
 3123TIP3    H133564   0.474   5.005  14.613 -0.0920 -1.0621  2.3811
 3123TIP3    H233565   0.383   4.885  14.623 -1.3918 -0.4022 -0.3804
 3124TIP3   OH233566   5.905   0.768  14.659 -0.4766  0.4747 -0.4779
 3124TIP3    H133567   5.953   0.848  14.681 -1.0273  0.5814  0.3636
 3124TIP3    H233568   5.933   0.748  14.569  0.8494  0.7318 -0.1414
 3125TIP3   OH233569   3.195   0.378  16.807  0.7082 -0.6394  0.3114
 3125TIP3    H133570   3.283   0.400  16.774  0.1669 -1.0763 -1.5011
 3125TIP3    H233571   3.163   0.311  16.747 -0.5548 -1.1023  1.4646
 3126TIP3   OH233572   3.363   3.082  15.097  0.2172  0.7663  0.5061
 3126TIP3    H133573   3.358   3.137  15.175 -0.3848  3.0356 -1.0302
 3126TIP3    H233574   3.416   3.132  15.035  0.6855 -0.9658 -0.5601
 3127TIP3   OH233575   5.720   6.654  14.808 -0.4510 -0.3050 -0.1926
 3127TIP3    H133576   5.808   6.665  14.772 -0.1595  0.4472  0.7208
 3127TIP3    H233577   5.670   6.726  14.770 -0.2739  0.1757  0.4537
 3128TIP3   OH233578   0.278   0.553  14.546 -0.1841  0.4765 -0.7054
 3128TIP3    H133579   0.317   0.468  14.529 -0.0102  0.2597  0.7017
 3128TIP3    H233580   0.185   0.542  14.526 -0.2351 -0.1661 -0.1254
 3129TIP3   OH233581   6.257   0.974  13.218  0.0229 -0.1489  0.1888
 3129TIP3    H133582   6.182   1.027  13.192  0.0875 -0.3958 -0.5496
 3129TIP3    H233583   6.291   0.940  13.135  0.4785 -0.6662  0.5822
 3130TIP3   OH233584   5.846   1.529  15.673  0.6951 -0.3011  0.5221
 3130TIP3    H133585   5.781   1.459  15.677  0.1943  0.1758  1.1553
 3130TIP3    H233586   5.814   1.594  15.736 -0.2242  1.6691 -1.8187
 3131TIP3   OH233587   4.856   5.903  14.034 -0.2048 -0.4992 -0.0108
 3131TIP3    H133588   4.946   5.870  14.040 -0.3707 -0.9303  0.1540
 3131TIP3    H233589   4.818   5.855  13.961 -0.7027 -1.3095  0.7557
 3132TIP3   OH233590   6.663   4.088  16.916 -0.2717 -0.3503  0.1856
 3132TIP3    H133591   6.677   4.163  16.858 -3.0126 -0.4491 -0.7189
 3132TIP3    H233592   6.594   4.116  16.976 -0.5323 -1.7771  0.5869
 3133TIP3   OH233593   3.219   1.319  16.691 -0.4061  0.1363 -0.2417
 3133TIP3    H133594   3.262   1.238  16.663  0.9383  0.2006  1.4881
 3133TIP3    H233595   3.249   1.385  16.629  2.7830  0.3602  1.3642
 3134TIP3   OH233596   5.736   4.685  15.955  0.3703 -0.5352  0.4754
 3134TIP3    H133597   5.780   4.750  15.899  2.0268 -0.4419  1.7933
 3134TIP3    H233598   5.697   4.624  15.893  1.3813  0.0531 -0.8123
 3135TIP3   OH233599   2.242   1.672  15.252  0.0199 -0.9133 -0.4319
 3135TIP3    H133600   2.287   1.644  15.172  1.7403 -0.6775  0.4206
 3135TIP3    H233601   2.209   1.591  15.290  1.2220 -1.3158 -0.2040
 3136TIP3   OH233602   2.372   2.177  15.681 -0.4336  0.7881 -0.6533
 3136TIP3    H133603   2.375   2.087  15.716 -0.3658  0.9711 -0.1733
 3136TIP3    H233604   2.393   2.232  15.757 -1.0482  1.2408 -0.8068
 3137TIP3   OH233605   4.331   3.847  15.365 -0.5005 -0.1572 -0.0314
 3137TIP3    H133606   4.286   3.863  15.448 -0.9954  0.0009 -0.3290
 3137TIP3    H233607   4.359   3.755  15.370  1.2171  0.3658  1.1366
 3138TIP3   OH233608   5.758   2.515  15.236 -0.1694  0.4630  0.0045
 3138TIP3    H133609   5.683   2.570  15.212 -0.9055 -0.5027  0.0354
 3138TIP3    H233610   5.765   2.452  15.164  2.4503  2.2729 -1.4997
 3139TIP3   OH233611   6.009   0.362  16.649 -0.6932 -0.3311 -0.3047
 3139TIP3    H133612   5.977   0.301  16.582  0.2351  1.5388 -2.6061
 3139TIP3    H233613   5.950   0.436  16.644 -1.2608 -0.5931  1.7994
 3140TIP3   OH233614   3.463   1.491  14.740  0.0837  0.2272  0.0860
 3140TIP3    H133615   3.440   1.575  14.699 -2.0391 -0.9451 -1.3738
 3140TIP3    H233616   3.383   1.464  14.785  0.1525 -1.7054 -0.8119
 3141TIP3   OH233617   0.745   0.937  13.690  0.3364  0.3364 -0.0717
 3141TIP3    H133618   0.782   0.952  13.778 -1.1970  2.7005  0.2722
 3141TIP3    H233619   0.658   0.902  13.707  0.7524 -1.0800 -0.7504
 3142TIP3   OH233620   0.216   4.388  14.159  0.1087  0.1150  0.4435
 3142TIP3    H133621   0.146   4.453  14.158 -0.4832 -0.4160  2.2084
 3142TIP3    H233622   0.175   4.309  14.195  1.1282 -0.8327 -0.4088
 3143TIP3   OH233623   5.569   5.336  16.480 -0.5397  0.7923 -0.5599
 3143TIP3    H133624   5.607   5.353  16.566  0.4893 -0.1092 -0.7974
 3143TIP3    H233625   5.645   5.318  16.424 -1.1427  2.0996 -1.8421
 3144TIP3   OH233626   1.091   1.766  16.152 -0.3681  0.1859 -0.4487
 3144TIP3    H133627   1.112   1.756  16.245 -0.8848 -0.0041 -0.3507
 3144TIP3    H233628   1.123   1.685  16.111 -0.0831  0.2973 -0.4504
 3145TIP3   OH233629   6.284   0.035  14.931 -0.0462  0.0842  0.1413
 3145TIP3    H133630   6.292   0.092  14.855 -0.8217 -1.7840 -1.4083
 3145TIP3    H233631   6.373   0.025  14.963  0.0751  2.4949  0.7924
 3146TIP3   OH233632   6.387   3.809  15.412 -0.4087 -0.5528  0.0770
 3146TIP3    H133633   6.435   3.850  15.485  1.4909 -1.7534 -0.4232
 3146TIP3    H233634   6.338   3.881  15.373  1.0336  0.7997  0.6243
 3147TIP3   OH233635   0.475   3.964  14.506  0.2722  0.2226 -0.2848
 3147TIP3    H133636   0.548   3.921  14.461 -0.3347  0.7754 -1.8840
 3147TIP3    H233637   0.398   3.911  14.482 -0.3135  1.5120 -1.3601
 3148TIP3   OH233638   3.082   5.322  13.903  0.1904  0.1597  0.0091
 3148TIP3    H133639   2.992   5.301  13.879 -0.6003  3.1296  0.0211
 3148TIP3    H233640   3.128   5.326  13.819 -0.1280  0.3955 -0.1565
 3149TIP3   OH233641   3.620   5.709  16.224  0.6709 -0.9561 -0.5532
 3149TIP3    H133642   3.631   5.780  16.288  0.4191  1.2425 -2.8148
 3149TIP3    H233643   3.529   5.683  16.235  0.7905 -1.0460  0.3764
 3150TIP3   OH233644   5.078   3.307  16.554  0.1214 -0.0696 -0.0084
 3150TIP3    H133645   5.157   3.337  16.510  0.3971 -2.0950 -0.9922
 3150TIP3    H233646   5.006   3.342  16.501  0.4067 -0.1638 -0.4604
 3151TIP3   OH233647   6.168   0.346  13.676 -0.5161  0.0324  0.1121
 3151TIP3    H133648   6.235   0.346  13.608  1.2375 -2.2406  1.7063
 3151TIP3    H233649   6.187   0.424  13.728 -0.1551  0.2847 -0.3948
 3152TIP3   OH233650   1.178   2.680  15.468 -0.1178 -0.0315 -0.3879
 3152TIP3    H133651   1.178   2.613  15.537 -1.5244 -1.3233 -1.5513
 3152TIP3    H233652   1.139   2.635  15.392  0.7851  1.5311 -1.8251
 3153TIP3   OH233653   6.033   5.941  16.691 -0.2668  0.1788 -0.6404
 3153TIP3    H133654   6.014   5.886  16.615 -0.4675  0.0439 -0.4943
 3153TIP3    H233655   5.948   5.971  16.721 -0.2097  0.0431 -0.3310
 3154TIP3   OH233656   0.505   2.979  15.125 -0.0468 -0.0279  0.6337
 3154TIP3    H133657   0.444   3.002  15.194  0.7639  3.1879  0.4359
 3154TIP3    H233658   0.454   2.987  15.044 -0.3820 -1.4984  0.6660
 3155TIP3   OH233659   1.948   1.249  16.159 -0.2695  0.0270 -0.3068
 3155TIP3    H133660   1.979   1.217  16.074  0.8125 -1.0819  0.4735
 3155TIP3    H233661   2.008   1.320  16.181 -1.1422  0.9777 -0.8817
 3156TIP3   OH233662   2.923   2.543  14.142 -0.2285  0.1613 -0.6974
 3156TIP3    H133663   2.934   2.555  14.048 -0.4122  1.8831 -0.5268
 3156TIP3    H233664   2.887   2.454  14.151 -1.1282  0.3225 -2.3208
 3157TIP3   OH233665   2.163   1.580  17.205 -0.3177 -0.3398  0.2318
 3157TIP3    H133666   2.152   1.513  17.138  0.8124 -0.1419 -0.1590
 3157TIP3    H233667   2.247   1.560  17.246 -0.2986  0.4227  0.5895
 3158TIP3   OH233668   6.705   1.657  15.314 -0.3100  0.2935  0.5324
 3158TIP3    H133669   6.736   1.722  15.251 -0.0468  1.1923  1.5480
 3158TIP3    H233670   6.646   1.601  15.264  2.3738 -1.1040 -1.3813
 3159TIP3   OH233671   0.044   5.296  15.355 -0.0361  0.2639  0.1756
 3159TIP3    H133672   0.062   5.295  15.261  0.1206  1.3946  0.1755
 3159TIP3    H233673   0.105   5.232  15.391  1.1136  1.0252 -0.3201
 3160TIP3   OH233674   5.171   4.523  15.561 -0.0777  0.8424  0.0802
 3160TIP3    H133675   5.198   4.438  15.597 -1.6784 -0.0974 -0.7839
 3160TIP3    H233676   5.091   4.503  15.512  1.8887  1.9951 -4.0279
 3161TIP3   OH233677   2.470   4.302  16.229 -0.2511  0.0372  0.7152
 3161TIP3    H133678   2.470   4.245  16.152 -0.5981  1.3028 -0.2436
 3161TIP3    H233679   2.449   4.242  16.302  1.2009 -1.3760  0.0274
 3162TIP3   OH233680   1.712   4.444  14.764  0.0874  0.0529 -0.0537
 3162TIP3    H133681   1.778   4.381  14.793  0.4653  0.4090 -0.1277
 3162TIP3    H233682   1.668   4.400  14.691  0.6726  0.0613 -0.4160
 3163TIP3   OH233683   0.483   2.954  15.547 -0.8211  0.1658  0.1166
 3163TIP3    H133684   0.444   3.009  15.479 -0.9701 -2.9011 -2.5344
 3163TIP3    H233685   0.423   2.880  15.555  0.8586 -1.1480  1.1918
 3164TIP3   OH233686   0.128   6.126  15.897  0.2815  0.4978 -0.6923
 3164TIP3    H133687   0.072   6.203  15.894  0.6864  0.7693 -1.7757
 3164TIP3    H233688   0.078   6.061  15.946  0.1212  1.5862  0.6372
 3165TIP3   OH233689   1.647   3.751  16.878  0.2238 -0.3223  0.0055
 3165TIP3    H133690   1.670   3.839  16.906  3.0412  0.2880 -3.4457
 3165TIP3    H233691   1.552   3.753  16.865  0.4587  3.0299 -2.1637
 3166TIP3   OH233692   0.306   3.855  13.998  0.6781  0.4537  0.5898
 3166TIP3    H133693   0.217   3.831  14.023  0.9086  0.4971  1.5143
 3166TIP3    H233694   0.336   3.784  13.942  0.3938 -0.0542  1.0696
 3167TIP3   OH233695   5.397   3.870  14.058  0.5240 -0.2387  0.4178
 3167TIP3    H133696   5.485   3.848  14.026  0.0676  0.7790 -1.6584
 3167TIP3    H233697   5.399   3.965  14.069 -0.4343 -0.1706  0.0129
 3168TIP3   OH233698   0.601   0.106  16.090  0.4385 -0.2041  0.0941
 3168TIP3    H133699   0.598   0.158  16.170 -2.7333  0.4449 -0.3330
 3168TIP3    H233700   0.624   0.018  16.119  1.0681  0.3789  1.4512
 3169TIP3   OH233701   4.330   3.013  17.246 -0.6676  0.4464  0.0679
 3169TIP3    H133702   4.401   3.057  17.199  0.8826 -2.2762 -0.4015
 3169TIP3    H233703   4.359   3.011  17.337 -0.9285  0.7326  0.1602
 3170TIP3   OH233704   2.218   6.237  14.898 -0.0119  0.1242 -0.8358
 3170TIP3    H133705   2.259   6.286  14.826 -1.1745  0.3214 -1.3992
 3170TIP3    H233706   2.182   6.159  14.856  0.1804 -0.2656 -0.2793
 3171TIP3   OH233707   3.808   5.029  15.714  0.7750  0.3857  0.0977
 3171TIP3    H133708   3.840   5.108  15.758  1.0583  0.4006 -0.1228
 3171TIP3    H233709   3.741   4.994  15.772  0.4949  0.9057  0.0977
 3172TIP3   OH233710   0.049   2.399  16.025 -0.3421 -0.6322  0.0664
 3172TIP3    H133711  -0.000   2.428  15.948 -2.9118 -1.9804  1.0806
 3172TIP3    H233712   0.029   2.465  16.092 -1.0845 -1.3395  0.5678
 3173TIP3   OH233713   6.520   0.695  13.337 -0.0617  0.0491  0.3848
 3173TIP3    H133714   6.529   0.600  13.330 -0.5557 -0.0090  0.5332
 3173TIP3    H233715   6.522   0.726  13.246 -1.8514 -0.2883  0.1961
 3174TIP3   OH233716   3.150   2.504  14.754  0.7468 -0.0058 -0.0570
 3174TIP3    H133717   3.071   2.451  14.744  1.0210 -0.4410  0.0452
 3174TIP3    H233718   3.134   2.556  14.832  1.2742 -1.3808  1.0029
 3175TIP3   OH233719   2.237   3.898  14.846  0.3593  0.1753 -0.5087
 3175TIP3    H133720   2.234   3.804  14.865  0.7897  0.1805 -0.4205
 3175TIP3    H233721   2.307   3.932  14.901  1.0219  0.3386 -1.4320
 3176TIP3   OH233722   1.549   4.956  16.046  0.4298 -0.1399 -0.3266
 3176TIP3    H133723   1.627   5.005  16.073 -0.0622  0.7965 -0.5465
 3176TIP3    H233724   1.580   4.898  15.977  0.6582  1.3698 -1.5480
 3177TIP3   OH233725   3.756   1.051  12.880  0.2333 -0.1826  0.7036
 3177TIP3    H133726   3.730   0.986  12.815  0.0936 -0.5248  1.0969
 3177TIP3    H233727   3.740   1.136  12.837  1.1428 -0.3938 -0.0971
 3178TIP3   OH233728   3.403   5.202  14.946 -0.1729 -0.3882 -0.5848
 3178TIP3    H133729   3.473   5.172  14.888 -0.5589 -0.9175 -0.7912
 3178TIP3    H233730   3.434   5.180  15.034 -0.8653 -2.3406 -0.7902
 3179TIP3   OH233731   6.013   3.688  16.567 -0.6438  0.0913 -0.5809
 3179TIP3    H133732   5.977   3.764  16.612 -3.4526 -0.8075 -1.0975
 3179TIP3    H233733   6.018   3.620  16.635  0.5007  0.2924 -0.4387
 3180TIP3   OH233734   2.601   1.172  17.051  0.1557 -0.5090  0.2320
 3180TIP3    H133735   2.524   1.143  17.002  0.8452 -1.0294 -0.5702
 3180TIP3    H233736   2.626   1.096  17.104  0.9829 -0.8646 -0.6322
 3181TIP3   OH233737   2.919   3.578  14.086 -0.2258 -0.1719 -0.1288
 3181TIP3    H133738   2.950   3.668  14.077  1.9814 -0.9027 -0.3973
 3181TIP3    H233739   2.887   3.555  13.998  1.8168 -0.5107 -0.8302
 3182TIP3   OH233740   6.289   1.782  13.553  0.3735  0.1647  0.0765
 3182TIP3    H133741   6.239   1.824  13.623 -0.3735  0.9770 -0.9205
 3182TIP3    H233742   6.333   1.853  13.508  1.3480 -0.4150  0.0787
 3183TIP3   OH233743   2.476   6.199  13.580  0.4380 -0.0146 -0.6655
 3183TIP3    H133744   2.428   6.217  13.499  0.3068  0.6943 -0.4412
 3183TIP3    H233745   2.524   6.280  13.598  0.7297 -0.2830 -0.2147
 3184TIP3   OH233746   4.333   0.908  14.238 -0.4781  0.1800  0.4075
 3184TIP3    H133747   4.272   0.927  14.309  0.5535 -1.2149  1.7354
 3184TIP3    H233748   4.354   0.994  14.201 -1.5156  0.8795  1.3753
 3185TIP3   OH233749   4.333   4.473  14.469 -0.2591 -0.5633  0.2652
 3185TIP3    H133750   4.249   4.519  14.467 -0.5330 -1.0222  0.8417
 3185TIP3    H233751   4.354   4.457  14.377 -1.3821 -1.4821  0.1553
 3186TIP3   OH233752   0.305   4.143  15.278  0.6670 -0.1694  0.0043
 3186TIP3    H133753   0.322   4.057  15.240  2.1077  0.4402 -0.8152
 3186TIP3    H233754   0.388   4.169  15.317  0.0479  0.5556  0.8772
 3187TIP3   OH233755   5.538   3.746  13.749 -0.0992 -0.0626 -0.2016
 3187TIP3    H133756   5.456   3.703  13.771  1.5266 -1.8041  3.2403
 3187TIP3    H233757   5.564   3.792  13.829  1.0563  2.6962 -2.0131
 3188TIP3   OH233758   6.417   0.876  17.097 -0.1571 -0.0069 -0.0187
 3188TIP3    H133759   6.410   0.781  17.092  0.6914 -0.0889  0.1373
 3188TIP3    H233760   6.386   0.898  17.184  0.9222 -0.2940  0.4615
 3189TIP3   OH233761   6.287   5.958  16.799  0.2165 -0.1748  0.2216
 3189TIP3    H133762   6.193   5.956  16.782 -0.1854  1.5360  1.8795
 3189TIP3    H233763   6.324   6.001  16.722 -0.4268 -0.2869 -0.1591
 3190TIP3   OH233764   5.711   4.959  16.859 -0.4890  1.0791 -0.4102
 3190TIP3    H133765   5.687   4.866  16.865  1.0178  0.7181  0.8773
 3190TIP3    H233766   5.707   4.979  16.765  0.9958 -0.8408 -0.9527
 3191TIP3   OH233767   2.874   4.347  16.741  0.0142  0.3634  0.1592
 3191TIP3    H133768   2.961   4.348  16.702  0.3817  0.7883  0.9664
 3191TIP3    H233769   2.857   4.254  16.759  0.3479  0.2878  0.0988
 3192TIP3   OH233770   6.260   3.949  15.697 -0.0585  0.5796  0.0482
 3192TIP3    H133771   6.292   4.009  15.631  0.5464  1.8425  1.4310
 3192TIP3    H233772   6.329   3.948  15.764 -0.0013 -1.7295  0.0593
 3193TIP3   OH233773   0.950   3.079  14.346  0.3079 -0.0251  0.0490
 3193TIP3    H133774   0.940   3.035  14.262 -0.1039  0.7670 -0.3327
 3193TIP3    H233775   0.861   3.084  14.381  0.5894 -1.1509  0.9569
 3194TIP3   OH233776   2.223   4.503  15.615 -0.7379  0.2153 -0.4693
 3194TIP3    H133777   2.266   4.578  15.655 -0.9451  0.4977 -0.7762
 3194TIP3    H233778   2.192   4.451  15.690 -1.0030  0.6713 -0.2575
 3195TIP3   OH233779   2.054   5.494  16.550  0.0635  0.2545 -0.0068
 3195TIP3    H133780   2.106   5.476  16.471 -0.3411  0.7640 -0.3930
 3195TIP3    H233781   2.094   5.572  16.587 -0.6805  0.8949 -0.5351
 3196TIP3   OH233782   3.240   0.071  14.992 -0.3587  0.4314 -0.4325
 3196TIP3    H133783   3.291   0.021  14.928  0.4214  0.3688  0.2140
 3196TIP3    H233784   3.298   0.144  15.015 -0.0616 -0.2872  1.1899
 3197TIP3   OH233785   0.889   5.376  16.720 -0.1727 -0.0572 -0.2002
 3197TIP3    H133786   0.975   5.415  16.737 -0.0483  0.3236 -1.6003
 3197TIP3    H233787   0.899   5.284  16.745  0.0398  0.3879  1.4986
 3198TIP3   OH233788   1.761   2.020  16.990 -0.3370 -0.4561  0.6147
 3198TIP3    H133789   1.808   1.985  16.914 -1.4793  0.9061 -0.7757
 3198TIP3    H233790   1.680   1.969  16.994 -0.0105 -0.9455  1.3377
 3199TIP3   OH233791   5.622   1.114  13.563  0.5546 -0.2997  0.1451
 3199TIP3    H133792   5.607   1.052  13.634 -0.6655  0.6870  0.7922
 3199TIP3    H233793   5.593   1.069  13.484 -0.5869 -0.4852  0.6465
 3200TIP3   OH233794   5.528   5.901  16.150 -0.3008  0.4539  0.2958
 3200TIP3    H133795   5.452   5.942  16.191 -1.4712 -1.2876 -0.0327
 3200TIP3    H233796   5.557   5.834  16.213 -0.1363 -0.0734 -0.3260
 3201TIP3   OH233797   6.306   4.894  15.083  0.1957  0.0381 -0.2321
 3201TIP3    H133798   6.274   4.804  15.086 -0.8948  0.4301  2.1091
 3201TIP3    H233799   6.238   4.946  15.126  0.9761  1.9487 -1.1643
 3202TIP3   OH233800   0.437   4.844  15.499 -0.2492 -0.0986 -0.1083
 3202TIP3    H133801   0.427   4.749  15.501 -1.4958  0.0034 -0.6198
 3202TIP3    H233802   0.495   4.860  15.425 -2.4464 -0.3362 -2.0177
 3203TIP3   OH233803   4.721   4.993  16.538 -0.4995 -0.4151  0.1964
 3203TIP3    H133804   4.775   5.073  16.538 -0.7022 -0.2613 -0.7420
 3203TIP3    H233805   4.666   5.002  16.460 -1.9960 -0.4988  1.1997
 3204TIP3   OH233806   3.622   1.848  16.096  0.2072 -0.5392 -0.6064
 3204TIP3    H133807   3.642   1.914  16.163 -0.8284 -1.4377  0.6508
 3204TIP3    H233808   3.704   1.836  16.049  1.0303  0.0167  0.6177
 3205TIP3   OH233809   0.896   0.081  16.813 -0.5299  0.4475 -0.3805
 3205TIP3    H133810   0.965   0.038  16.863 -3.5260 -1.4274  2.5954
 3205TIP3    H233811   0.923   0.173  16.809  1.7174 -0.0476  1.3667
 3206TIP3   OH233812   2.947   2.329  14.771  0.0972 -0.6865 -0.1917
 3206TIP3    H133813   2.904   2.272  14.834  0.0218  0.6522  1.0255
 3206TIP3    H233814   2.889   2.328  14.695 -1.8325  0.5202  1.1483
 3207TIP3   OH233815   4.324   6.419  14.961  0.3947  0.1682  0.8052
 3207TIP3    H133816   4.340   6.422  14.867  0.6885  1.4172  0.8882
 3207TIP3    H233817   4.232   6.394  14.969  0.2015  0.6466  0.1714
 3208TIP3   OH233818   2.578   5.429  15.702 -0.2528  0.1712  0.4987
 3208TIP3    H133819   2.592   5.347  15.654  2.5222 -0.1412  1.6180
 3208TIP3    H233820   2.512   5.476  15.651 -1.5549 -2.4867 -0.4807
 3209TIP3   OH233821   4.724   6.331  16.232  0.2038  0.3773  0.0367
 3209TIP3    H133822   4.649   6.271  16.230 -0.1195  0.7600  0.6245
 3209TIP3    H233823   4.797   6.277  16.262  0.3148 -0.1518 -1.1158
 3210TIP3   OH233824   1.695   0.065  13.613 -0.1715  0.6790 -0.1768
 3210TIP3    H133825   1.627   0.121  13.576  1.2152  1.5993 -1.4517
 3210TIP3    H233826   1.736   0.118  13.681 -0.8017  0.0704  0.6950
 3211TIP3   OH233827   1.682   4.211  16.313 -0.2739 -0.3374  0.3042
 3211TIP3    H133828   1.618   4.257  16.258 -1.8891  1.2757  3.2845
 3211TIP3    H233829   1.638   4.129  16.335  0.0503 -0.6406 -0.1611
 3212TIP3   OH233830   3.719   2.531  16.089  0.3416  0.3380 -0.2799
 3212TIP3    H133831   3.790   2.552  16.151 -1.0802  1.5060  1.0618
 3212TIP3    H233832   3.656   2.482  16.141 -0.0690 -0.2803 -1.3318
 3213TIP3   OH233833   0.265   3.095  15.816 -0.3245 -0.0620  0.7704
 3213TIP3    H133834   0.360   3.109  15.819 -0.0590 -1.7014  2.2504
 3213TIP3    H233835   0.228   3.183  15.823  1.0324  0.7878 -1.5652
 3214TIP3   OH233836   2.900   1.378  15.946 -0.2453  0.2067 -0.4468
 3214TIP3    H133837   2.977   1.383  15.888 -0.8674  0.9036 -1.2391
 3214TIP3    H233838   2.875   1.285  15.943  1.4166 -0.3623  1.0105
 3215TIP3   OH233839   6.367   6.424  15.068  0.1548 -0.0066 -0.0205
 3215TIP3    H133840   6.322   6.483  15.127 -0.7102 -1.0207  0.3591
 3215TIP3    H233841   6.460   6.435  15.089 -0.1895 -1.2648  2.4602
 3216TIP3   OH233842   6.460   2.634  15.603 -0.7479  0.8706  0.0939
 3216TIP3    H133843   6.519   2.625  15.529 -0.7456 -0.6065  0.2404
 3216TIP3    H233844   6.469   2.551  15.651 -2.5582  0.8084  0.3885
 3217TIP3   OH233845   6.377   5.284  16.063 -0.2513  0.3467 -0.3288
 3217TIP3    H133846   6.433   5.243  16.128 -0.2840  0.3047 -0.3275
 3217TIP3    H233847   6.438   5.323  16.000 -0.2069 -0.5364 -0.8606
 3218TIP3   OH233848   4.453   0.173  14.026  0.1819  0.7910  0.1590
 3218TIP3    H133849   4.369   0.133  14.004 -0.7994  2.2685  1.0371
 3218TIP3    H233850   4.463   0.246  13.965  0.9253  0.5145 -0.0613
 3219TIP3   OH233851   5.547   6.584  16.845 -0.4216 -0.2606 -0.0075
 3219TIP3    H133852   5.623   6.537  16.878  1.2330  1.8740 -0.4939
 3219TIP3    H233853   5.579   6.673  16.829 -2.8902  0.5837 -0.7983
 3220TIP3   OH233854   3.079   1.341  15.179 -1.0464  0.2328  0.1441
 3220TIP3    H133855   3.036   1.272  15.128  0.6489  0.4503 -1.7017
 3220TIP3    H233856   3.058   1.422  15.131  0.0970  0.5091  0.0749
 3221TIP3   OH233857   2.438   4.463  14.208 -0.3588  0.1480 -0.5691
 3221TIP3    H133858   2.492   4.541  14.218 -0.8386  0.5860 -1.2898
 3221TIP3    H233859   2.488   4.393  14.251  0.1237  0.8246 -0.0122
 3222TIP3   OH233860   5.898   1.444  16.548  0.1629  0.0435  0.0829
 3222TIP3    H133861   5.975   1.396  16.517  0.1851 -0.0585  0.2966
 3222TIP3    H233862   5.853   1.472  16.468 -0.4139 -1.2314 -0.0585
 3223TIP3   OH233863   2.071   5.183  14.327  0.4180 -0.3933  0.1907
 3223TIP3    H133864   2.119   5.231  14.394  2.9567  1.2235 -2.5406
 3223TIP3    H233865   2.138   5.156  14.264 -1.8713 -0.9639 -2.2043
 3224TIP3   OH233866   6.443   6.342  15.395  0.6516 -0.1869 -0.0420
 3224TIP3    H133867   6.355   6.376  15.410  0.8496  0.3466 -0.0782
 3224TIP3    H233868   6.430   6.248  15.384  0.2441 -0.2923  1.2316
 3225TIP3   OH233869   0.614   5.582  15.498  0.2882  0.2302 -0.5500
 3225TIP3    H133870   0.675   5.518  15.462  0.0876  0.6068 -1.6186
 3225TIP3    H233871   0.666   5.663  15.505  1.0093 -0.3682  2.3265
 3226TIP3   OH233872   4.741   2.918  16.429 -0.0854 -0.0318  0.8666
 3226TIP3    H133873   4.723   3.011  16.440  0.3617  0.3306 -1.1565
 3226TIP3    H233874   4.752   2.906  16.335 -0.9668 -2.3064  0.9874
 3227TIP3   OH233875   1.433   3.911  14.756  0.0791 -0.2594  0.5723
 3227TIP3    H133876   1.526   3.897  14.740  0.7827  3.2404  0.9062
 3227TIP3    H233877   1.419   3.881  14.847  0.6746 -1.3376  0.3297
 3228TIP3   OH233878   3.109   1.866  16.833  0.2281 -0.5550 -0.0862
 3228TIP3    H133879   3.018   1.864  16.862  0.6411  2.4974  1.9305
 3228TIP3    H233880   3.106   1.906  16.746 -0.4213 -1.9394 -0.7271
 3229TIP3   OH233881   1.461   1.110  13.726 -0.2062  0.5796 -0.1641
 3229TIP3    H133882   1.380   1.137  13.684 -0.6363  3.1212  2.0259
 3229TIP3    H233883   1.443   1.021  13.757 -1.6303  0.5732 -0.9369
 3230TIP3   OH233884   1.228   0.412  15.315 -0.1699  0.4173  0.3163
 3230TIP3    H133885   1.280   0.340  15.277  0.5612  1.7099 -1.2389
 3230TIP3    H233886   1.288   0.454  15.376 -1.0842 -1.1536  2.4128
 3231TIP3   OH233887   4.851   4.406  16.991 -0.6182 -0.0619  0.1947
 3231TIP3    H133888   4.935   4.424  17.034 -0.9773  1.1275  0.4331
 3231TIP3    H233889   4.863   4.321  16.949  0.6203 -0.0270  0.4502
 3232TIP3   OH233890   5.858   1.266  15.965 -0.3866 -0.2037  0.0800
 3232TIP3    H133891   5.899   1.215  15.895 -1.4216  0.4507 -1.0308
 3232TIP3    H233892   5.915   1.342  15.975  0.4550 -0.9092  0.8508
 3233TIP3   OH233893   6.439   1.491  17.111  0.6569 -0.2754 -0.0507
 3233TIP3    H133894   6.467   1.493  17.019 -1.2371  0.9150 -0.6589
 3233TIP3    H233895   6.364   1.550  17.114  0.8244 -0.1012  2.3368
 3234TIP3   OH233896   2.989   3.852  16.831  0.0883 -0.1539 -0.2633
 3234TIP3    H133897   3.030   3.772  16.798  0.1109 -0.1693 -0.1984
 3234TIP3    H233898   2.939   3.824  16.908 -0.3006 -0.1896 -0.5244
 3235TIP3   OH233899   0.914   1.531  13.667 -0.5241  0.1190  0.3542
 3235TIP3    H133900   0.928   1.615  13.712  0.4230 -0.0322  0.3465
 3235TIP3    H233901   0.905   1.468  13.738  1.4108 -0.1914  0.3574
 3236TIP3   OH233902   0.930   0.316  16.138  0.4347  0.3273  0.0824
 3236TIP3    H133903   0.921   0.222  16.154 -0.9916  0.6088  1.0820
 3236TIP3    H233904   0.973   0.350  16.216  2.5530  0.3131 -0.9866
 3237TIP3   OH233905   5.142   5.798  15.219 -0.2863 -0.4145 -0.5873
 3237TIP3    H133906   5.079   5.827  15.285 -0.7015 -1.0317 -0.7029
 3237TIP3    H233907   5.146   5.870  15.156  0.0722  0.1581  0.0770
 3238TIP3   OH233908   2.578   0.203  16.828  0.2333 -0.3074  0.0220
 3238TIP3    H133909   2.642   0.136  16.852 -0.3591 -0.6613  0.6457
 3238TIP3    H233910   2.494   0.157  16.826 -0.2592  0.5218  0.9743
 3239TIP3   OH233911   3.027   0.845  14.903  0.1921  0.2539 -0.0787
 3239TIP3    H133912   3.083   0.921  14.917 -0.2746  1.0164 -2.1528
 3239TIP3    H233913   2.941   0.871  14.938  0.5945 -0.2528  1.4045
 3240TIP3   OH233914   1.876   6.674  13.447 -0.4736 -0.1820  0.2685
 3240TIP3    H133915   1.836   6.587  13.448 -1.0556  0.0836  0.6358
 3240TIP3    H233916   1.814   6.730  13.493  0.7175  0.0734  1.6283
 3241TIP3   OH233917   2.799   3.829  16.606  0.2250  0.0276 -0.0271
 3241TIP3    H133918   2.875   3.832  16.664 -0.9250  0.3507  1.5409
 3241TIP3    H233919   2.787   3.920  16.577  0.7394 -0.1164 -0.7126
 3242TIP3   OH233920   5.912   0.160  15.997  0.0969  0.6868  0.4951
 3242TIP3    H133921   6.000   0.181  16.027  0.4012  0.5738 -0.2973
 3242TIP3    H233922   5.900   0.212  15.918 -0.1000 -0.1682 -0.0605
 3243TIP3   OH233923   3.772   3.293  16.964 -0.8199  0.5248 -0.2372
 3243TIP3    H133924   3.843   3.352  16.991  0.8904 -0.9871 -1.2258
 3243TIP3    H233925   3.739   3.330  16.882 -1.5734  1.5184  0.4878
 3244TIP3   OH233926   5.820   3.986  14.864 -0.4691 -0.1087  0.2039
 3244TIP3    H133927   5.903   3.957  14.901  0.0406  1.0894  0.0343
 3244TIP3    H233928   5.803   3.925  14.791  0.4061 -0.1825  0.0540
 3245TIP3   OH233929   5.693   5.730  14.664  0.0732 -0.1591  0.9384
 3245TIP3    H133930   5.744   5.663  14.619 -0.4351  1.5728 -2.6222
 3245TIP3    H233931   5.613   5.684  14.691  1.1107 -1.6601  1.6060
 3246TIP3   OH233932   4.336   2.754  17.095 -0.3147 -0.2836 -0.2861
 3246TIP3    H133933   4.340   2.807  17.015  0.6039 -1.5594 -1.1114
 3246TIP3    H233934   4.338   2.818  17.166 -1.2372  0.8836 -1.2591
 3247TIP3   OH233935   2.913   4.591  16.313  0.0008  0.0103 -0.1551
 3247TIP3    H133936   2.826   4.577  16.274 -0.9209 -0.6070  1.9498
 3247TIP3    H233937   2.905   4.675  16.358  1.3318  1.1578 -1.9445
 3248TIP3   OH233938   2.132   2.077  13.683 -0.3721 -0.4693  0.0737
 3248TIP3    H133939   2.086   2.118  13.757  1.7389 -1.9193  2.3773
 3248TIP3    H233940   2.155   2.150  13.626 -0.5002  1.0257  1.8109
 3249TIP3   OH233941   2.911   2.906  14.831 -0.6554  0.0500  0.0595
 3249TIP3    H133942   2.978   2.927  14.897  0.8737 -0.6859 -1.1766
 3249TIP3    H233943   2.893   2.813  14.845  0.1801 -0.2842 -0.9457
 3250TIP3   OH233944   6.023   3.655  16.088  0.0462 -0.1064  0.0807
 3250TIP3    H133945   6.080   3.682  16.160  0.7468  0.8260 -0.7792
 3250TIP3    H233946   5.987   3.738  16.054  0.9977 -0.3389 -1.6376
 3251TIP3   OH233947   4.529   3.800  14.848 -0.0385  0.3498 -0.2911
 3251TIP3    H133948   4.563   3.887  14.870  1.4074 -0.6327  1.5719
 3251TIP3    H233949   4.600   3.740  14.869 -1.7219 -1.4908  0.4563
 3252TIP3   OH233950   1.721   2.133  13.529  0.0177  0.3106  0.2599
 3252TIP3    H133951   1.664   2.190  13.478  1.0004  0.2046 -1.0028
 3252TIP3    H233952   1.769   2.081  13.463  0.1774 -0.9611  1.3263
 3253TIP3   OH233953   4.238   3.414  16.895 -0.2068 -0.1715 -0.7059
 3253TIP3    H133954   4.244   3.450  16.807 -2.0648 -0.8638 -1.1658
 3253TIP3    H233955   4.294   3.336  16.894  1.3507  0.9144 -0.6384
 3254TIP3   OH233956   0.569   2.132  15.224  0.3360 -0.4572  0.1820
 3254TIP3    H133957   0.596   2.041  15.209  1.7071  0.1112 -1.0480
 3254TIP3    H233958   0.545   2.164  15.137  0.3696  0.5135  0.5213
 3255TIP3   OH233959   2.549   1.223  15.980 -0.4270 -0.0806  0.0050
 3255TIP3    H133960   2.552   1.252  15.889  0.5831  0.3146  0.1486
 3255TIP3    H233961   2.461   1.186  15.991 -1.5097  2.2126 -0.4065
 3256TIP3   OH233962   2.611   1.171  15.131  0.1068  0.3097 -0.2281
 3256TIP3    H133963   2.697   1.184  15.091  0.7301 -0.3880  0.8268
 3256TIP3    H233964   2.615   1.221  15.213  1.2763 -3.3371  2.1508
 3257TIP3   OH233965   1.243   0.548  15.963  0.7911 -0.4997 -0.1321
 3257TIP3    H133966   1.148   0.535  15.969  0.6854 -0.0190 -0.7102
 3257TIP3    H233967   1.278   0.459  15.956  0.3007 -0.6458 -0.9868
 3258TIP3   OH233968   3.496   2.549  14.185  0.5173  0.4783 -0.8557
 3258TIP3    H133969   3.512   2.556  14.091  0.3922  0.2211 -0.8969
 3258TIP3    H233970   3.582   2.536  14.224  0.4101 -1.0394 -1.0858
 3259TIP3   OH233971   0.292   5.458  15.545 -0.6113  0.6512 -0.0561
 3259TIP3    H133972   0.327   5.454  15.455 -2.3046 -0.4650 -0.7039
 3259TIP3    H233973   0.271   5.367  15.566  1.2664  0.6340  2.1526
 3260TIP3   OH233974   4.065   4.883  14.298 -0.4619  0.1963 -0.2458
 3260TIP3    H133975   4.056   4.969  14.259  2.6088  0.7112 -0.0417
 3260TIP3    H233976   4.057   4.822  14.225 -2.4068  0.5996 -0.4249
 3261TIP3   OH233977   2.789   4.605  14.146  0.0628 -0.1793 -0.2843
 3261TIP3    H133978   2.742   4.568  14.220 -1.2891 -1.7363 -1.8119
 3261TIP3    H233979   2.752   4.692  14.134  0.6592  0.2880  1.1361
 3262TIP3   OH233980   4.238   1.427  17.083  0.3468  0.7758  0.3164
 3262TIP3    H133981   4.327   1.409  17.054  0.1745  0.6715 -0.1441
 3262TIP3    H233982   4.225   1.520  17.064 -0.2156  0.4224 -1.1635
 3263TIP3   OH233983   3.464   3.279  14.918  0.0920 -0.1615  0.0697
 3263TIP3    H133984   3.417   3.221  14.858  0.8779 -0.5452 -0.1914
 3263TIP3    H233985   3.486   3.356  14.866 -0.1039 -0.0510  0.1485
 3264TIP3   OH233986   5.059   3.076  15.848 -0.1362 -0.1408 -0.2033
 3264TIP3    H133987   5.119   3.148  15.866  0.3146 -0.6640  0.4324
 3264TIP3    H233988   4.972   3.117  15.847 -0.0089  0.2153  1.3739
 3265TIP3   OH233989   4.414   1.837  16.360 -0.3983  0.4720 -0.2314
 3265TIP3    H133990   4.460   1.862  16.280 -0.8529  0.8365 -0.3830
 3265TIP3    H233991   4.427   1.742  16.367  2.0285  0.8286  0.7781
 3266TIP3   OH233992   1.656   5.601  17.156  0.4084  0.0425 -0.3633
 3266TIP3    H133993   1.675   5.558  17.239  0.5292  1.0779  0.1567
 3266TIP3    H233994   1.700   5.686  17.162 -1.4139  1.0596 -0.5671
 3267TIP3   OH233995   3.009   6.075  16.633 -0.1503  0.0923  0.3121
 3267TIP3    H133996   2.915   6.090  16.638  0.0628  1.2579  1.3460
 3267TIP3    H233997   3.028   6.070  16.539 -1.3926 -1.3714  0.1059
 3268TIP3   OH233998   6.374   4.727  15.365  0.2397 -0.5008 -0.4950
 3268TIP3    H133999   6.400   4.763  15.450  0.0435 -1.4748 -0.0025
 3268TIP3    H234000   6.285   4.759  15.350  0.6703  0.5518 -0.8530
 3269TIP3   OH234001   0.868   2.712  13.443 -0.2105 -0.0537 -0.7130
 3269TIP3    H134002   0.923   2.778  13.401  0.4537  0.9441  1.5894
 3269TIP3    H234003   0.791   2.706  13.387  1.0514  0.4189 -2.6091
 3270TIP3   OH234004   6.671   3.258  16.393  0.4003 -0.3698 -0.5159
 3270TIP3    H134005   6.639   3.234  16.480  1.2102 -1.6317 -0.5315
 3270TIP3    H234006   6.678   3.354  16.396  0.7934 -0.4114  0.9487
 3271TIP3   OH234007   1.213   0.302  17.023 -0.0042  0.2846  0.3078
 3271TIP3    H134008   1.307   0.318  17.016 -0.1085  0.9956  0.4494
 3271TIP3    H234009   1.196   0.296  17.117  0.3477 -2.7968  0.2908
 3272TIP3   OH234010   3.551   0.488  14.740 -0.2479  0.0392 -0.1383
 3272TIP3    H134011   3.553   0.580  14.764  0.6211 -0.2629  1.0610
 3272TIP3    H234012   3.504   0.485  14.657  0.4155  1.6552 -0.6048
 3273TIP3   OH234013   5.313   2.672  14.890 -0.6518  0.6080  0.1192
 3273TIP3    H134014   5.362   2.754  14.898  0.3429  0.2090 -1.3557
 3273TIP3    H234015   5.243   2.679  14.955  1.3452  1.2169  2.3214
 3274TIP3   OH234016   3.211   4.618  16.938 -0.3281 -0.6053  0.4609
 3274TIP3    H134017   3.207   4.603  16.843 -1.5303 -0.7928  0.5281
 3274TIP3    H234018   3.253   4.538  16.972  1.7807  0.2076 -0.0456
 3275TIP3   OH234019   2.182   0.355  16.369 -0.2584  0.6700  0.3859
 3275TIP3    H134020   2.262   0.370  16.319 -1.0525  0.0490 -1.1393
 3275TIP3    H234021   2.129   0.299  16.312 -1.4528  0.4314  1.6967
 3276TIP3   OH234022   4.581   4.559  16.393 -0.4251  0.4909  0.0303
 3276TIP3    H134023   4.638   4.488  16.421 -1.4641 -0.6479 -0.6507
 3276TIP3    H234024   4.632   4.639  16.409  1.2662 -0.4645 -0.4194
 3277TIP3   OH234025   2.706   6.191  14.799 -0.1327  0.3341  0.6068
 3277TIP3    H134026   2.755   6.215  14.878 -0.9143  0.7312  0.9876
 3277TIP3    H234027   2.618   6.171  14.832 -0.0363 -1.1457  0.0463
 3278TIP3   OH234028   1.324   0.731  16.136 -0.2658  0.3672 -0.2525
 3278TIP3    H134029   1.276   0.704  16.214  0.4780 -0.1710  0.0413
 3278TIP3    H234030   1.303   0.664  16.071 -0.0314  0.2043 -0.1643
 3279TIP3   OH234031   6.167   4.716  16.533  0.2988 -0.2907  0.8840
 3279TIP3    H134032   6.170   4.793  16.591  1.9369  0.2265  0.1907
 3279TIP3    H234033   6.075   4.707  16.509 -0.0120  1.1156  1.4469
 3280TIP3   OH234034   3.198   5.228  16.716 -0.3166  0.5034  0.3611
 3280TIP3    H134035   3.204   5.148  16.767 -1.4803 -0.1526 -0.4758
 3280TIP3    H234036   3.131   5.280  16.759  0.4876  1.0885  0.9468
 3281TIP3   OH234037   1.596   1.717  15.537  0.1803  0.0165 -0.0553
 3281TIP3    H134038   1.528   1.719  15.470 -1.2158 -1.1009  1.2483
 3281TIP3    H234039   1.595   1.627  15.569  1.7653  0.1751  0.5447
 3282TIP3   OH234040   4.861   2.805  15.554 -0.4162 -0.0538  1.0758
 3282TIP3    H134041   4.877   2.728  15.609  0.9765  1.3095  2.7007
 3282TIP3    H234042   4.769   2.826  15.570 -0.4364 -0.5654  1.7164
 3283TIP3   OH234043   0.793   6.603  15.405 -0.1984 -0.2398  0.0802
 3283TIP3    H134044   0.849   6.654  15.346  1.3786 -0.3454  1.3981
 3283TIP3    H234045   0.855   6.553  15.459 -1.6316 -1.4014  0.7091
 3284TIP3   OH234046   0.743   2.760  15.487 -0.2993 -0.3535  0.9641
 3284TIP3    H134047   0.802   2.697  15.528  2.8214  1.3755 -0.5093
 3284TIP3    H234048   0.782   2.845  15.506 -0.6944  0.7231 -2.4553
 3285TIP3   OH234049   2.137   3.082  14.659  0.0590  0.0589 -0.3833
 3285TIP3    H134050   2.222   3.041  14.644  0.1776  0.8160 -2.0228
 3285TIP3    H234051   2.103   3.100  14.571 -0.7307  1.9114  0.2475
 3286TIP3   OH234052   2.201   4.749  16.832 -0.1421  0.1194  0.6419
 3286TIP3    H134053   2.231   4.829  16.876 -1.5302 -0.0135  1.9362
 3286TIP3    H234054   2.141   4.709  16.895 -0.6611 -1.1546 -0.6122
 3287TIP3   OH234055   1.762   1.992  15.362  0.2899 -0.4680 -0.1259
 3287TIP3    H134056   1.813   1.940  15.301 -0.2003 -0.6610 -0.3750
 3287TIP3    H234057   1.793   1.964  15.449  1.2559  0.0820 -0.2768
 3288TIP3   OH234058   1.941   2.270  14.040  0.9654  0.3199  0.0578
 3288TIP3    H134059   1.856   2.245  14.076  0.4113  1.1572 -0.6103
 3288TIP3    H234060   1.934   2.253  13.946  1.6308  0.1379  0.0375
 3289TIP3   OH234061   4.950   5.139  15.449 -0.5153  0.2879 -0.2863
 3289TIP3    H134062   5.037   5.173  15.431  0.0501 -1.4921 -1.1396
 3289TIP3    H234063   4.965   5.060  15.502 -1.6139  0.1240 -0.1956
 3290TIP3   OH234064   2.149   6.576  15.548  0.1639  0.1083  1.0098
 3290TIP3    H134065   2.121   6.661  15.512  1.9865  0.0225 -0.7954
 3290TIP3    H234066   2.214   6.599  15.615  1.2232  0.1781 -0.0032
 3291TIP3   OH234067   2.170   0.695  15.468 -0.0611  0.2237 -0.4218
 3291TIP3    H134068   2.107   0.654  15.527  1.6977 -3.0134 -0.5455
 3291TIP3    H234069   2.183   0.783  15.504 -3.1382  0.3647  0.6610
 3292TIP3   OH234070   4.615   1.304  15.859  0.7550 -0.0082  0.0327
 3292TIP3    H134071   4.592   1.248  15.934  0.8309  2.3533  1.9258
 3292TIP3    H234072   4.533   1.348  15.837  0.8351 -0.3799 -1.0457
 3293TIP3   OH234073   1.890   3.173  16.115  0.5304  0.3023 -0.1915
 3293TIP3    H134074   1.870   3.086  16.150  1.9505  0.4975  1.1967
 3293TIP3    H234075   1.966   3.159  16.058 -1.1217  0.1680 -2.5051
 3294TIP3   OH234076   6.310   2.037  13.880  0.0546  0.3275 -0.3031
 3294TIP3    H134077   6.352   1.959  13.916 -0.6565  1.0190  2.2054
 3294TIP3    H234078   6.216   2.019  13.887 -0.1127  1.3024  0.0956
 3295TIP3   OH234079   3.924   4.139  15.194  0.3412 -0.2085  0.1597
 3295TIP3    H134080   3.974   4.063  15.165  0.9747  0.4663 -0.5793
 3295TIP3    H234081   3.956   4.211  15.139 -0.0964  0.6364  0.9858
 3296TIP3   OH234082   4.067   3.425  16.141 -0.2099 -0.0411 -0.0113
 3296TIP3    H134083   4.085   3.404  16.050  0.8941  0.2942  0.1061
 3296TIP3    H234084   3.987   3.377  16.162 -0.3102 -0.3585 -1.0645
 3297TIP3   OH234085   2.363   3.690  15.582 -0.4401 -0.1203  0.5950
 3297TIP3    H134086   2.323   3.711  15.498  0.5827  1.1240  0.3832
 3297TIP3    H234087   2.349   3.769  15.635 -1.7894 -1.1842  1.8990
 3298TIP3   OH234088   4.654   1.738  15.079  0.0474  0.3314  0.0488
 3298TIP3    H134089   4.606   1.755  15.160  1.5921  2.5532  0.5973
 3298TIP3    H234090   4.669   1.824  15.041  1.2594 -0.4934 -1.4824
 3299TIP3   OH234091   1.306   4.890  16.370  0.1302 -0.3897  0.2826
 3299TIP3    H134092   1.308   4.978  16.334  0.4563  0.1515  1.5683
 3299TIP3    H234093   1.354   4.837  16.307 -1.6475 -0.0525 -1.4544
 3300TIP3   OH234094   2.197   1.224  14.152 -0.1851  0.1273 -0.0487
 3300TIP3    H134095   2.271   1.274  14.185 -0.7217  0.5534  0.5182
 3300TIP3    H234096   2.236   1.161  14.091  0.6486  0.2832  0.3159
 3301TIP3   OH234097   3.207   5.608  16.394 -0.1772 -0.2484 -0.1731
 3301TIP3    H134098   3.264   5.682  16.376  0.0059  0.6212  3.2168
 3301TIP3    H234099   3.263   5.531  16.379  0.3979  0.3782 -1.3755
 3302TIP3   OH234100   0.344   1.225  15.312 -0.3374 -0.1971 -0.8482
 3302TIP3    H134101   0.295   1.282  15.372 -0.7565  0.3736 -1.7219
 3302TIP3    H234102   0.281   1.200  15.245  0.4406  0.1576 -1.7287
 3303TIP3   OH234103   1.006   0.090  14.153 -0.0811  0.1520 -0.1653
 3303TIP3    H134104   0.916   0.096  14.122  0.1016 -0.2481 -0.7876
 3303TIP3    H234105   1.044   0.016  14.106  1.1218  1.4456 -1.3504
 3304TIP3   OH234106   1.600   2.162  16.427  0.1836 -0.1215 -0.0329
 3304TIP3    H134107   1.526   2.148  16.368 -1.9455  1.2317  2.0991
 3304TIP3    H234108   1.659   2.220  16.379  0.4275 -2.0431 -2.1811
 3305TIP3   OH234109   6.114   4.090  15.909  0.9239  0.0993  0.5328
 3305TIP3    H134110   6.161   4.018  15.952  1.1418 -1.0967 -1.5911
 3305TIP3    H234111   6.055   4.047  15.847 -0.9344  1.6834  1.1065
 3306TIP3   OH234112   4.717   3.915  15.533  0.5677  0.0371 -0.0414
 3306TIP3    H134113   4.649   3.924  15.599  0.4618  0.2671 -0.1780
 3306TIP3    H234114   4.693   3.978  15.465  1.1919  0.4867  0.1409
 3307TIP3   OH234115   6.553   6.734  14.296 -0.1582  0.1483  0.5219
 3307TIP3    H134116   6.533   6.824  14.272  0.9767  0.5240  0.8965
 3307TIP3    H234117   6.624   6.741  14.359 -0.2202 -1.0034  0.7550
 3308TIP3   OH234118   1.568   5.284  16.913  0.1692  0.0162 -0.0320
 3308TIP3    H134119   1.520   5.361  16.883 -1.3614 -0.7720  0.2842
 3308TIP3    H234120   1.505   5.212  16.904  1.3119 -1.0604  0.3972
 3309TIP3   OH234121   0.637   0.600  14.164  0.5396 -0.6520 -0.9127
 3309TIP3    H134122   0.688   0.522  14.141  0.2480 -0.6221 -1.6877
 3309TIP3    H234123   0.587   0.620  14.085  0.9460  0.5869 -0.8661
 3310TIP3   OH234124   0.533   6.542  16.577  0.1715 -0.1955 -0.7079
 3310TIP3    H134125   0.474   6.558  16.651  1.4470  0.3913  0.2445
 3310TIP3    H234126   0.520   6.450  16.555  0.6816 -0.7592  1.1366
 3311TIP3   OH234127   5.442   5.397  17.155  0.2694 -0.1732  0.2407
 3311TIP3    H134128   5.460   5.350  17.236  1.9587 -0.1898 -0.1031
 3311TIP3    H234129   5.521   5.385  17.102 -0.7905 -0.1748 -1.4207
 3312TIP3   OH234130   0.799   4.528  14.773  0.3997  0.1985  0.1826
 3312TIP3    H134131   0.764   4.616  14.758  0.6335  0.1661 -0.6087
 3312TIP3    H234132   0.726   4.470  14.750  0.4129  0.1711  0.2092
 3313TIP3   OH234133   1.209   1.755  16.777  0.0578 -0.4907 -0.3354
 3313TIP3    H134134   1.150   1.831  16.775 -1.2856 -1.4782  0.0720
 3313TIP3    H234135   1.296   1.792  16.792 -0.1997  1.1504 -2.3850
 3314TIP3   OH234136   6.428   2.365  16.675  0.2563 -0.0734 -0.0510
 3314TIP3    H134137   6.367   2.310  16.625 -1.8028 -0.1977  2.3750
 3314TIP3    H234138   6.508   2.313  16.682 -0.7578 -1.6934  0.0334
 3315TIP3   OH234139   4.442   4.525  16.136  0.2995 -0.2089  0.1805
 3315TIP3    H134140   4.396   4.609  16.135 -0.1801 -0.4314 -1.7860
 3315TIP3    H234141   4.507   4.533  16.205  1.3614  2.4015 -1.0131
 3316TIP3   OH234142   0.275   5.288  16.001  0.3714 -0.2689  0.3228
 3316TIP3    H134143   0.308   5.376  15.982  0.0419  0.0163  1.0465
 3316TIP3    H234144   0.338   5.229  15.960 -0.1128  0.3093 -1.3556
 3317TIP3   OH234145   3.349   4.895  15.304  0.4590  0.2240  0.0541
 3317TIP3    H134146   3.413   4.827  15.325 -1.7686 -1.8459  0.5171
 3317TIP3    H234147   3.301   4.908  15.386  0.2378  1.7166 -0.2894
 3318TIP3   OH234148   3.123   3.298  17.072  0.1199 -0.8217  0.0914
 3318TIP3    H134149   3.057   3.336  17.129 -0.4288 -1.6716  0.0461
 3318TIP3    H234150   3.074   3.240  17.014  0.6866 -0.1641 -1.0940
 3319TIP3   OH234151   3.115   4.651  15.813 -0.1904  0.2347 -0.4924
 3319TIP3    H134152   3.052   4.666  15.883  1.8992  1.3059  1.3036
 3319TIP3    H234153   3.168   4.731  15.810  1.2418 -0.6965 -1.7013
 3320TIP3   OH234154   3.334   1.860  15.475 -0.1554 -0.1873  0.1922
 3320TIP3    H134155   3.374   1.835  15.559  1.5193 -0.1802 -0.5619
 3320TIP3    H234156   3.409   1.877  15.417 -1.2759 -0.2098 -1.3137
 3321TIP3   OH234157   4.766   4.824  16.989 -0.0595 -0.3865  0.2423
 3321TIP3    H134158   4.856   4.798  16.970 -0.1587 -1.2048  0.8292
 3321TIP3    H234159   4.758   4.913  16.953  1.5765  0.4986  1.8692
 3322TIP3   OH234160   4.056   5.699  14.385 -0.4860  0.7532  0.5890
 3322TIP3    H134161   3.971   5.740  14.370 -0.2778  0.5262 -1.5983
 3322TIP3    H234162   4.111   5.731  14.313  0.9992  0.1231  1.3953
 3323TIP3   OH234163   1.821   0.482  14.369 -0.0974 -0.5449  0.1626
 3323TIP3    H134164   1.751   0.484  14.434  1.6039  2.4574  2.1160
 3323TIP3    H234165   1.831   0.389  14.348 -2.6182 -1.3570  2.0314
 3324TIP3   OH234166   0.527   0.546  16.166  0.3982  0.1728 -0.2203
 3324TIP3    H134167   0.544   0.468  16.218 -0.6684  0.9073  1.3036
 3324TIP3    H234168   0.459   0.519  16.104 -1.1495  0.2540  1.3647
 3325TIP3   OH234169   5.450   1.960  15.176  0.5185  0.0110 -0.6484
 3325TIP3    H134170   5.445   2.039  15.229  1.1849 -0.8332  0.7630
 3325TIP3    H234171   5.468   1.890  15.240  0.3104 -1.2170 -1.8829
 3326TIP3   OH234172   5.228   1.172  12.924  0.1936  0.4588  0.4684
 3326TIP3    H134173   5.188   1.128  12.849 -1.2253  0.3754  1.2485
 3326TIP3    H234174   5.306   1.120  12.943 -1.2510 -1.5743  1.1549
 3327TIP3   OH234175   0.024   5.143  16.649 -0.3801  0.5210  0.0860
 3327TIP3    H134176   0.015   5.074  16.583 -0.8376  0.7174 -0.0629
 3327TIP3    H234177  -0.066   5.164  16.673 -0.2082 -0.0281  1.2864
 3328TIP3   OH234178   5.891   1.222  14.346  0.1123  0.2070  0.0963
 3328TIP3    H134179   5.952   1.269  14.404  0.6198 -2.6482  2.0949
 3328TIP3    H234180   5.939   1.145  14.317 -1.4828 -0.4534 -0.9693
 3329TIP3   OH234181   0.332   2.736  15.574  0.2162  1.0702  0.2502
 3329TIP3    H134182   0.384   2.694  15.642  0.1704  0.5369 -0.0299
 3329TIP3    H234183   0.248   2.756  15.617 -0.0068  0.2536  0.2221
 3330TIP3   OH234184   1.003   0.041  13.039  0.0704 -0.5094 -0.1174
 3330TIP3    H134185   0.967  -0.033  13.088  0.3964  0.5546  1.8480
 3330TIP3    H234186   1.071   0.077  13.097 -1.2443  2.3684 -0.1823
 3331TIP3   OH234187   0.617   5.282  16.533 -0.1269 -0.1054 -0.6910
 3331TIP3    H134188   0.526   5.306  16.547 -0.3410 -1.2651  0.0958
 3331TIP3    H234189   0.658   5.294  16.619  0.1483 -0.8082 -0.7119
 3332TIP3   OH234190   1.570   4.270  14.611  0.2583 -0.1592 -0.3577
 3332TIP3    H134191   1.491   4.224  14.638 -0.0990  0.7625  0.2276
 3332TIP3    H234192   1.605   4.218  14.539 -0.9817 -0.4936 -0.7417
 3333TIP3   OH234193   4.185   2.537  15.922 -0.4674  0.2907 -0.2699
 3333TIP3    H134194   4.126   2.562  15.851  0.1065 -2.2781 -1.7655
 3333TIP3    H234195   4.196   2.443  15.912  1.0429  0.1153  2.2035
 3334TIP3   OH234196   0.818   4.011  15.649  0.3649 -0.3534  0.0292
 3334TIP3    H134197   0.899   3.973  15.684  0.4873 -0.0362  0.0949
 3334TIP3    H234198   0.779   3.941  15.596  0.3146 -0.7442  0.5826
 3335TIP3   OH234199   0.618   3.643  14.888 -0.0193 -0.7852 -0.6235
 3335TIP3    H134200   0.624   3.611  14.798  1.9347 -2.4035  0.0041
 3335TIP3    H234201   0.526   3.664  14.900 -0.4845 -1.3942 -2.7106
 3336TIP3   OH234202   6.161   0.075  14.120 -0.0050  1.1247  0.1940
 3336TIP3    H134203   6.198  -0.003  14.080 -3.2481 -0.4803 -0.0640
 3336TIP3    H234204   6.147   0.136  14.048 -2.2806 -0.2455 -0.6391
 3337TIP3   OH234205   2.849   1.515  14.189  0.1927 -0.0473 -0.6299
 3337TIP3    H134206   2.935   1.475  14.205  0.5680  0.7281 -0.6625
 3337TIP3    H234207   2.791   1.441  14.170  0.6177 -0.6692  0.4258
 3338TIP3   OH234208   2.049   0.132  13.160  0.0386  0.0008 -0.3680
 3338TIP3    H134209   1.976   0.118  13.100  1.5904 -3.1072 -1.7364
 3338TIP3    H234210   2.112   0.183  13.109  1.2045 -2.3364 -1.4222
 3339TIP3   OH234211   3.562   4.979  14.046 -0.0712 -0.1188  0.2451
 3339TIP3    H134212   3.656   4.989  14.037 -0.1215 -1.2884 -2.2850
 3339TIP3    H234213   3.525   5.062  14.016  0.1128 -0.1139  0.0371
 3340TIP3   OH234214   3.957   2.112  16.946 -0.7977  0.0622 -0.4011
 3340TIP3    H134215   3.957   2.188  17.003  0.4074 -0.1273 -0.1144
 3340TIP3    H234216   3.977   2.147  16.859  1.6760 -0.0798  0.0391
 3341TIP3   OH234217   5.641   2.733  16.722 -0.1744  0.0059 -0.1092
 3341TIP3    H134218   5.618   2.763  16.810  1.5684  1.7378 -0.2046
 3341TIP3    H234219   5.573   2.668  16.702 -3.0268  2.4305  0.8828
 3342TIP3   OH234220   0.705   5.974  15.982  0.1108  0.0922  0.7010
 3342TIP3    H134221   0.695   5.908  15.913 -2.3324 -0.0975  1.1485
 3342TIP3    H234222   0.679   6.056  15.939 -1.7536 -0.0783  1.4152
 3343TIP3   OH234223   0.469   3.652  16.788 -0.3214  0.5818  0.2094
 3343TIP3    H134224   0.530   3.716  16.751 -0.6463  1.6149  1.3918
 3343TIP3    H234225   0.414   3.703  16.847 -2.0206 -0.4292 -0.4573
 3344TIP3   OH234226   4.051   0.630  15.704 -0.5000  0.2316 -0.1415
 3344TIP3    H134227   3.987   0.605  15.770 -0.4516  0.7459  0.1058
 3344TIP3    H234228   4.111   0.689  15.750 -1.2215  1.6634 -0.9464
 3345TIP3   OH234229   0.833   4.738  16.245 -0.1530  0.4167  0.3988
 3345TIP3    H134230   0.905   4.679  16.225 -1.1482 -0.9819  0.7862
 3345TIP3    H234231   0.869   4.826  16.230  1.2113 -0.2857 -0.6991
 3346TIP3   OH234232   2.315   5.798  14.777 -0.1528 -0.4373  0.1975
 3346TIP3    H134233   2.406   5.827  14.779 -0.2159 -0.1666 -0.5743
 3346TIP3    H234234   2.276   5.845  14.703 -0.6489 -1.3395 -0.1376
 3347TIP3   OH234235   1.520   0.856  13.828 -0.4155 -0.1816 -0.2124
 3347TIP3    H134236   1.608   0.862  13.791  0.2227 -0.4500  1.2021
 3347TIP3    H234237   1.488   0.770  13.801  0.3082 -0.6549  0.4107
 3348TIP3   OH234238   1.994   0.490  13.761  0.2145 -0.5106 -0.3945
 3348TIP3    H134239   2.046   0.527  13.690  0.1767 -1.0245 -0.6919
 3348TIP3    H234240   2.059   0.468  13.829  0.1886  0.5263 -0.0187
 3349TIP3   OH234241   4.046   2.074  13.804 -0.2915  0.0788  0.0837
 3349TIP3    H134242   4.136   2.092  13.775 -0.8809  0.9356 -1.3432
 3349TIP3    H234243   4.005   2.160  13.805 -1.8040 -0.5512 -1.8781
 3350TIP3   OH234244   4.923   0.361  13.688 -0.5166  1.0808 -0.4166
 3350TIP3    H134245   5.005   0.329  13.650 -0.1694  2.2807 -0.7277
 3350TIP3    H234246   4.861   0.355  13.615 -0.7265  0.1699 -0.1807
 3351TIP3   OH234247   2.748   1.783  14.110  0.4695 -0.4990 -0.4424
 3351TIP3    H134248   2.672   1.786  14.052  1.1229 -1.0422 -1.3496
 3351TIP3    H234249   2.760   1.690  14.129  1.0255 -0.4388 -0.4850
 3352TIP3   OH234250   5.003   5.463  14.793  0.1344 -0.9818 -0.1425
 3352TIP3    H134251   5.089   5.460  14.836 -0.8054 -0.9747  1.8563
 3352TIP3    H234252   4.970   5.373  14.799 -0.5068 -0.7293  0.2288
 3353TIP3   OH234253   5.266   3.382  16.358  0.8430 -0.6072  0.0890
 3353TIP3    H134254   5.347   3.432  16.363 -0.2022  1.1927  0.0109
 3353TIP3    H234255   5.244   3.379  16.265  0.6882 -0.8713  0.1299
 3354TIP3   OH234256   3.156   1.168  16.356  0.5672 -0.1002  0.6732
 3354TIP3    H134257   3.249   1.175  16.332  0.5772  0.1701  0.7833
 3354TIP3    H234258   3.118   1.251  16.326  0.1770 -0.5640 -0.1753
 3355TIP3   OH234259   2.859   0.060  14.989  0.3791  0.4367  0.1330
 3355TIP3    H134260   2.916   0.103  15.053 -0.3622  0.8785  0.5100
 3355TIP3    H234261   2.826   0.132  14.935 -1.8760  0.5527  1.5569
 3356TIP3   OH234262   2.580   2.390  14.246 -0.1609  0.2190 -0.3171
 3356TIP3    H134263   2.660   2.337  14.245 -0.4469 -0.2435  0.2335
 3356TIP3    H234264   2.594   2.452  14.317 -0.0074  0.5964 -0.6755
 3357TIP3   OH234265   2.432   1.031  14.344 -0.0751  0.2000 -0.0047
 3357TIP3    H134266   2.435   0.951  14.396  2.2606 -0.6023 -1.2388
 3357TIP3    H234267   2.348   1.027  14.298  0.2165 -1.8459 -0.4630
 3358TIP3   OH234268   1.029   4.545  16.170  0.0092 -0.7461 -0.2789
 3358TIP3    H134269   1.081   4.484  16.222  0.7070  0.2424  0.1966
 3358TIP3    H234270   1.093   4.595  16.120 -0.5084  0.1212 -0.0965
 3359TIP3   OH234271   6.160   4.211  14.394 -0.7751 -0.0680 -0.0251
 3359TIP3    H134272   6.129   4.286  14.443  0.7379  0.1281  0.6622
 3359TIP3    H234273   6.081   4.157  14.381 -2.0034  1.8477 -1.0209
 3360TIP3   OH234274   3.443   2.658  14.957 -0.3310 -0.2026  0.0120
 3360TIP3    H134275   3.455   2.563  14.959  2.9050  0.0979  2.5057
 3360TIP3    H234276   3.404   2.679  15.042 -1.4124  0.7208 -0.6863
 3361TIP3   OH234277   1.411   4.837  15.482 -0.4786  0.0767 -0.1563
 3361TIP3    H134278   1.352   4.790  15.423  0.8097 -0.4045 -1.1006
 3361TIP3    H234279   1.376   4.818  15.569 -1.5856 -0.3713 -0.6677
 3362TIP3   OH234280   5.231   6.286  16.152 -0.2157 -0.0844 -0.0236
 3362TIP3    H134281   5.232   6.318  16.242  0.0540 -0.3908  0.0835
 3362TIP3    H234282   5.227   6.191  16.160  0.2346 -0.1352 -0.3272
 3363TIP3   OH234283   0.528   0.390  15.454 -0.0721  0.3813 -0.1448
 3363TIP3    H134284   0.563   0.387  15.543 -1.3455 -2.0077  0.3611
 3363TIP3    H234285   0.589   0.339  15.402 -0.5699 -0.2514 -0.1221
 3364TIP3   OH234286   5.527   1.694  14.788  0.0064  0.6613 -0.0547
 3364TIP3    H134287   5.487   1.606  14.793  0.4776  0.4824  0.7348
 3364TIP3    H234288   5.620   1.678  14.798  0.2123  1.1684 -1.0225
 3365TIP3   OH234289   5.524   4.331  14.083  0.0211  0.1678 -0.1806
 3365TIP3    H134290   5.554   4.420  14.099  1.0682 -0.0429 -0.8440
 3365TIP3    H234291   5.499   4.330  13.990 -3.1200  0.6005  0.5546
 3366TIP3   OH234292   3.638   0.398  14.304 -0.3562  0.2093  0.0643
 3366TIP3    H134293   3.650   0.333  14.235  0.3400  0.4215 -0.0187
 3366TIP3    H234294   3.622   0.346  14.383 -1.7325 -0.0303 -0.3420
 3367TIP3   OH234295   4.743   0.802  16.717  0.1959  0.2684 -0.0261
 3367TIP3    H134296   4.773   0.726  16.767 -1.9369 -0.5726  0.0520
 3367TIP3    H234297   4.786   0.793  16.632  1.1544 -0.1671  0.4895
 3368TIP3   OH234298   0.766   0.697  16.095  0.0139 -0.2105 -0.2324
 3368TIP3    H134299   0.723   0.783  16.103  0.3063 -0.1601  0.8517
 3368TIP3    H234300   0.696   0.634  16.111  0.4802 -0.1242  2.7256
 3369TIP3   OH234301   2.507   4.979  14.493 -0.1073  0.1091 -0.3310
 3369TIP3    H134302   2.567   4.994  14.421  1.4493  2.6655  1.3252
 3369TIP3    H234303   2.451   5.057  14.495 -1.8397 -1.0830 -0.2915
 3370TIP3   OH234304   3.827   1.060  15.471  0.1628 -0.6530 -0.2922
 3370TIP3    H134305   3.800   1.086  15.383  1.8711 -2.0423 -1.3058
 3370TIP3    H234306   3.904   1.115  15.490  0.0439 -0.6391  0.1709
 3371TIP3   OH234307   4.223   4.470  15.740 -0.0778  0.2238 -0.2879
 3371TIP3    H134308   4.179   4.472  15.825 -1.3435  0.8609 -0.9235
 3371TIP3    H234309   4.304   4.422  15.756 -0.6818 -0.4019  1.0862
 3372TIP3   OH234310   3.786   4.055  16.820  0.1461 -0.4516 -0.1385
 3372TIP3    H134311   3.863   4.048  16.877 -0.1784  4.6427  1.4388
 3372TIP3    H234312   3.813   4.115  16.751 -2.0301  0.6524 -0.1193
 3373TIP3   OH234313   5.336   3.127  16.518  0.3743 -0.2246  0.0572
 3373TIP3    H134314   5.253   3.084  16.498 -0.6248  1.0316  1.2723
 3373TIP3    H234315   5.355   3.181  16.441 -0.6766  0.5331  0.3024
 3374TIP3   OH234316   0.137   4.622  17.009  0.1239  0.3595  0.3479
 3374TIP3    H134317   0.070   4.664  17.063 -0.5701 -1.1391  0.7061
 3374TIP3    H234318   0.113   4.530  17.009  0.5618  0.1919 -1.8818
 3375TIP3   OH234319   4.817   3.917  13.713 -0.3037 -0.3163 -0.1494
 3375TIP3    H134320   4.764   3.867  13.651 -1.2958 -0.4610  0.7987
 3375TIP3    H234321   4.774   4.002  13.719 -0.4030 -0.4150  0.5845
 3376TIP3   OH234322   5.269   3.690  16.264  0.4126 -0.3653 -0.0892
 3376TIP3    H134323   5.193   3.649  16.306  0.4006 -2.6733 -2.0696
 3376TIP3    H234324   5.278   3.642  16.181  2.8561  1.1742 -0.8175
 3377TIP3   OH234325   4.128   4.748  14.030  0.0272  0.7192 -0.1458
 3377TIP3    H134326   4.156   4.662  14.001 -0.1383  0.3089  0.8830
 3377TIP3    H234327   4.143   4.805  13.954  0.8506 -0.0548 -0.5789
 3378TIP3   OH234328   5.861   2.580  16.190  0.3378 -0.0389  0.5680
 3378TIP3    H134329   5.790   2.520  16.211  1.1320 -0.9899  0.6025
 3378TIP3    H234330   5.913   2.534  16.124  0.5389  0.9318  0.0287
 3379TIP3   OH234331   4.526   1.518  16.114 -0.2651  0.4048  0.0354
 3379TIP3    H134332   4.499   1.429  16.092 -1.7222  0.7888  0.1358
 3379TIP3    H234333   4.509   1.525  16.208  1.8328  0.1547  0.4877
 3380TIP3   OH234334   3.361   3.245  15.302  0.0915  0.3244  0.3829
 3380TIP3    H134335   3.442   3.241  15.353 -0.0219 -1.3585  0.4902
 3380TIP3    H234336   3.303   3.299  15.355  1.0440  1.3303  0.4331
 3381TIP3   OH234337   1.190   6.513  16.734 -0.7797 -0.4388  0.2273
 3381TIP3    H134338   1.180   6.510  16.829 -0.9714 -1.1092  0.1966
 3381TIP3    H234339   1.277   6.475  16.718 -0.8183 -0.4882  0.1301
 3382TIP3   OH234340   5.193   5.637  15.870 -0.6306  0.0373 -0.7751
 3382TIP3    H134341   5.263   5.604  15.926  0.2054  1.6898 -0.7869
 3382TIP3    H234342   5.128   5.567  15.869  0.5827 -1.1473  0.0177
 3383TIP3   OH234343   0.044   3.006  16.144 -0.2350 -0.3870  0.7048
 3383TIP3    H134344  -0.034   2.998  16.088  0.6678 -1.7814 -0.4371
 3383TIP3    H234345   0.060   3.101  16.148 -0.5138 -0.2080 -1.1934
 3384TIP3   OH234346   3.385   1.168  16.968  0.3024 -0.1363 -0.2692
 3384TIP3    H134347   3.345   1.113  16.901 -0.6220  0.3839 -0.1731
 3384TIP3    H234348   3.313   1.187  17.028  1.2491 -1.1033  1.2250
 3385TIP3   OH234349   4.285   4.262  16.662  0.0844 -0.0281  0.5071
 3385TIP3    H134350   4.322   4.349  16.680 -0.9970  0.8523 -1.2233
 3385TIP3    H234351   4.239   4.239  16.743  1.1803  0.5506  1.3317
 3386TIP3   OH234352   3.813   1.821  14.075 -0.3119 -0.3535  0.4390
 3386TIP3    H134353   3.793   1.728  14.063  1.1633 -0.4746 -1.7153
 3386TIP3    H234354   3.837   1.829  14.167  1.8922 -2.6637  0.1701
 3387TIP3   OH234355   2.163   1.630  15.947  0.0172  0.2217 -0.3136
 3387TIP3    H134356   2.140   1.608  16.037  0.1499  0.3651 -0.2437
 3387TIP3    H234357   2.084   1.611  15.897  0.0620 -0.2213 -0.2252
 3388TIP3   OH234358   2.787   2.734  16.469 -0.4441  0.1725 -0.2450
 3388TIP3    H134359   2.699   2.720  16.435 -0.7785  0.1752  0.6121
 3388TIP3    H234360   2.776   2.744  16.563  0.7806 -3.0702  0.3659
 3389TIP3   OH234361   6.614   0.656  16.186  0.0012  0.4611 -0.2559
 3389TIP3    H134362   6.560   0.611  16.251  1.5903 -1.4653 -0.1746
 3389TIP3    H234363   6.700   0.663  16.228  1.1372 -1.0219 -2.1700
 3390TIP3   OH234364   1.322   6.015  14.394  0.1382 -0.3886 -0.4849
 3390TIP3    H134365   1.317   6.073  14.319  2.4527  0.2208 -0.2414
 3390TIP3    H234366   1.414   6.016  14.419 -0.1581 -2.4102  0.9275
 3391TIP3   OH234367   4.186   2.988  15.208  0.7377 -0.3071  0.0106
 3391TIP3    H134368   4.224   2.903  15.228 -0.3176 -0.4526  1.5825
 3391TIP3    H234369   4.104   2.968  15.163  0.7671 -0.1021 -0.1368
 3392TIP3   OH234370   3.129   2.262  16.338 -0.2903  0.6368  0.5055
 3392TIP3    H134371   3.181   2.337  16.310  0.8831 -0.3907 -0.1724
 3392TIP3    H234372   3.189   2.209  16.391 -0.8113 -0.2668  0.2278
 3393TIP3   OH234373   1.144   5.512  14.372  0.6725  0.2051 -0.0207
 3393TIP3    H134374   1.084   5.543  14.440 -2.3051 -1.8320 -1.4731
 3393TIP3    H234375   1.138   5.578  14.303 -0.9447 -0.5485 -0.6491
 3394TIP3   OH234376   1.485   0.044  16.615  0.1943  0.7716  0.2118
 3394TIP3    H134377   1.514   0.123  16.569 -1.3230  0.7602 -0.8581
 3394TIP3    H234378   1.393   0.034  16.588 -0.2941 -0.1224  2.0538
 3395TIP3   OH234379   0.711   5.560  16.473  0.0688 -0.2180  0.0923
 3395TIP3    H134380   0.642   5.612  16.514  0.8402 -0.7573  2.2259
 3395TIP3    H234381   0.693   5.470  16.499  2.2900 -0.2289  1.9772
 3396TIP3   OH234382   1.995   5.674  14.036 -0.1078  0.1761  0.2398
 3396TIP3    H134383   2.077   5.632  14.011  0.4239  1.9389 -1.1876
 3396TIP3    H234384   1.927   5.617  14.002  0.5676 -0.1044 -0.6635
 3397TIP3   OH234385   6.292   6.660  14.336 -0.0390  0.2760 -0.3315
 3397TIP3    H134386   6.382   6.646  14.307  0.0200  0.5562 -0.2814
 3397TIP3    H234387   6.253   6.714  14.268  0.5699  2.3468  0.8687
 3398TIP3   OH234388   3.232   3.095  13.754 -0.2892  0.1815 -0.0307
 3398TIP3    H134389   3.199   3.126  13.669 -2.4194  2.2015  1.4068
 3398TIP3    H234390   3.175   3.137  13.818  1.2665 -1.2575  2.4371
 3399TIP3   OH234391   5.348   0.374  16.332  0.0495 -0.3712  0.5547
 3399TIP3    H134392   5.440   0.387  16.310 -0.1336 -0.1100 -0.0809
 3399TIP3    H234393   5.347   0.294  16.385  0.5688 -0.7331  0.0319
 3400TIP3   OH234394   3.212   3.046  15.859  0.3695  0.7746  0.1625
 3400TIP3    H134395   3.136   3.045  15.801 -0.6824  1.6345  1.4757
 3400TIP3    H234396   3.263   3.123  15.832 -0.1496  1.2074  0.4028
 3401TIP3   OH234397   5.915   3.529  16.821 -0.4420  0.6484 -0.0212
 3401TIP3    H134398   5.840   3.532  16.762 -0.5786  0.1118  0.1149
 3401TIP3    H234399   5.876   3.537  16.909 -0.7075 -2.5476  0.2956
 3402TIP3   OH234400   0.802   5.920  16.252  0.4819  0.2647  0.1889
 3402TIP3    H134401   0.808   5.995  16.311  2.5129  0.3153 -0.0092
 3402TIP3    H234402   0.775   5.958  16.168  2.0871  0.9207 -0.0734
 3403TIP3   OH234403   1.591   0.963  14.813 -0.6989 -0.5301  0.5329
 3403TIP3    H134404   1.523   0.897  14.825  0.7997 -2.4528 -0.8666
 3403TIP3    H234405   1.641   0.933  14.737  0.3721  1.9836  0.1406
 3404TIP3   OH234406   1.862   3.384  15.609 -0.6667  0.5655 -0.7210
 3404TIP3    H134407   1.830   3.320  15.546 -1.3963 -0.3558  0.5355
 3404TIP3    H234408   1.958   3.378  15.603 -0.7163  1.1566 -2.3645
 3405TIP3   OH234409   1.335   2.196  14.478 -0.1117  0.2447 -0.3215
 3405TIP3    H134410   1.347   2.136  14.551 -0.4864  1.5132  0.8181
 3405TIP3    H234411   1.241   2.192  14.459 -0.2637  0.9747  0.2294
 3406TIP3   OH234412   3.909   1.989  15.230 -0.4447 -0.5202 -0.2812
 3406TIP3    H134413   3.819   2.021  15.219 -0.9683 -1.5455  0.7216
 3406TIP3    H234414   3.901   1.894  15.223  0.2404 -0.7601  1.6227
 3407TIP3   OH234415   2.991   6.664  16.802 -0.1301 -0.7611  0.3018
 3407TIP3    H134416   2.983   6.687  16.710  0.3524  2.7923  1.0107
 3407TIP3    H234417   2.904   6.680  16.839  0.4788  1.1297  1.0224
 3408TIP3   OH234418   5.224   1.620  15.004  0.1796 -0.3028  0.0760
 3408TIP3    H134419   5.197   1.648  14.917 -0.1188  1.3665  0.6675
 3408TIP3    H234420   5.296   1.558  14.989 -0.2549 -0.4782 -1.3548
 3409TIP3   OH234421   5.294   4.105  14.317  0.3869  0.2089 -0.2064
 3409TIP3    H134422   5.389   4.118  14.311  0.1070  2.0351 -1.1571
 3409TIP3    H234423   5.266   4.090  14.226 -0.0901 -1.8781  0.2147
 3410TIP3   OH234424   1.886   3.656  15.486 -0.8646 -0.2873  0.3976
 3410TIP3    H134425   1.854   3.590  15.424 -0.7176  0.0643 -0.0582
 3410TIP3    H234426   1.807   3.690  15.527 -0.8727 -1.6332  1.5648
 3411TIP3   OH234427   5.368   4.777  14.329 -0.6889  0.0569 -0.1319
 3411TIP3    H134428   5.319   4.855  14.302 -1.3811 -0.7096 -1.1586
 3411TIP3    H234429   5.322   4.704  14.288  1.0094 -0.7367 -0.7308
 3412TIP3   OH234430   6.224   1.604  15.821 -0.2074 -0.3296  0.1012
 3412TIP3    H134431   6.308   1.585  15.861  0.1487 -1.4441 -1.1147
 3412TIP3    H234432   6.240   1.679  15.763  0.3994 -1.6247 -1.4639
 3413TIP3   OH234433   2.834   4.311  14.853 -0.1784  0.2273 -0.0196
 3413TIP3    H134434   2.813   4.263  14.934  1.3508 -1.1387 -0.3953
 3413TIP3    H234435   2.776   4.272  14.787 -0.5845  0.5296  0.1497
 3414TIP3   OH234436   1.788   0.599  16.370 -0.4749 -0.0002  0.4052
 3414TIP3    H134437   1.830   0.658  16.307 -0.4266  0.8053  1.1786
 3414TIP3    H234438   1.696   0.626  16.371 -0.0058  1.8316  2.6319
 3415TIP3   OH234439   0.988   1.463  15.859 -0.5133  0.3105  0.7169
 3415TIP3    H134440   0.944   1.430  15.780  0.3542  1.4315 -0.2683
 3415TIP3    H234441   0.926   1.526  15.896 -0.7963  0.0076  0.7618
 3416TIP3   OH234442   5.486   5.315  16.223  0.4371  0.1480  0.4143
 3416TIP3    H134443   5.478   5.361  16.306 -0.8879 -1.4617  1.2405
 3416TIP3    H234444   5.580   5.305  16.209  0.6722  0.2347  1.8429
 3417TIP3   OH234445   5.950   1.777  14.503 -0.0076  0.5792 -0.2339
 3417TIP3    H134446   6.014   1.825  14.451  0.9262  1.1265  1.3507
 3417TIP3    H234447   6.001   1.735  14.572 -0.7921 -2.5563 -1.3575
 3418TIP3   OH234448   2.848   6.409  14.705  0.1292  0.5124 -0.0521
 3418TIP3    H134449   2.799   6.328  14.719 -0.4864  0.4429 -2.2015
 3418TIP3    H234450   2.913   6.386  14.639  1.5321  1.2090  1.0488
 3419TIP3   OH234451   5.810   0.319  16.840 -0.0328  0.2994  0.1089
 3419TIP3    H134452   5.869   0.337  16.767 -0.9229 -0.6279 -0.8945
 3419TIP3    H234453   5.743   0.387  16.834 -0.8814 -0.5599 -0.8680
 3420TIP3   OH234454   3.585   4.332  16.650 -0.2858 -0.0920  0.3645
 3420TIP3    H134455   3.507   4.301  16.603  0.3557 -0.5207 -0.4529
 3420TIP3    H234456   3.637   4.253  16.665  0.1840  0.2424  0.5285
 3421TIP3   OH234457   6.697   3.394  15.010  0.4693 -0.4378 -0.1047
 3421TIP3    H134458   6.668   3.351  14.930  1.2293 -1.0923 -0.0335
 3421TIP3    H234459   6.743   3.326  15.059  1.9761  0.5089 -0.1322
 3422TIP3   OH234460   0.274   1.888  15.209  0.2041 -0.0736 -0.5607
 3422TIP3    H134461   0.335   1.818  15.233  0.5729  0.3667 -0.2021
 3422TIP3    H234462   0.246   1.865  15.120  1.1146 -0.1289 -0.8441
 3423TIP3   OH234463   6.649   4.412  14.745  0.6471 -0.1761  0.2387
 3423TIP3    H134464   6.614   4.485  14.795 -1.6086  0.4426 -1.9937
 3423TIP3    H234465   6.571   4.371  14.705  2.2041 -0.6741 -2.5415
 3424TIP3   OH234466   4.720   2.554  15.056 -0.5329 -0.2650  0.5634
 3424TIP3    H134467   4.695   2.589  15.142 -0.6324 -1.3626  1.0036
 3424TIP3    H234468   4.637   2.549  15.008 -0.3218  1.4696 -0.0569
 3425TIP3   OH234469   5.302   6.021  16.284  0.1811 -0.1685 -0.5367
 3425TIP3    H134470   5.325   6.068  16.363  0.0123  0.7651 -1.0257
 3425TIP3    H234471   5.257   5.942  16.314 -3.0463  1.7913  0.3045
 3426TIP3   OH234472   2.737   3.830  17.012  0.1209 -0.1294  0.7100
 3426TIP3    H134473   2.724   3.886  17.089  0.8977  0.2140  0.5951
 3426TIP3    H234474   2.655   3.838  16.964  0.0015  0.4482  0.9947
 3427TIP3   OH234475   3.675   0.562  15.096  0.2894  0.1465 -0.2752
 3427TIP3    H134476   3.720   0.635  15.140  0.5515  1.1728 -2.1136
 3427TIP3    H234477   3.586   0.564  15.131  0.6710  0.4648  0.7100
 3428TIP3   OH234478   1.572   0.303  13.492  0.1211  0.2384 -0.3700
 3428TIP3    H134479   1.551   0.353  13.413 -0.2019 -0.8453 -1.0019
 3428TIP3    H234480   1.646   0.349  13.531  1.0140  0.1859 -1.9159
 3429TIP3   OH234481   1.693   1.787  16.857 -0.3840 -0.0946 -0.5200
 3429TIP3    H134482   1.677   1.835  16.776 -0.5118  0.8895  0.0617
 3429TIP3    H234483   1.618   1.729  16.866 -0.1833 -0.4884 -1.2837
 3430TIP3   OH234484   1.739   2.584  15.520 -0.4372  0.6701 -0.6810
 3430TIP3    H134485   1.797   2.524  15.473 -0.6711 -0.4161  0.3777
 3430TIP3    H234486   1.652   2.566  15.483 -0.5332  0.2244 -0.2458
 3431TIP3   OH234487   3.200   0.513  14.645  0.0596 -0.2549  0.1200
 3431TIP3    H134488   3.111   0.476  14.644 -0.8060  1.7276  0.0585
 3431TIP3    H234489   3.247   0.462  14.580 -0.7936 -1.8628  0.6970
 3432TIP3   OH234490   2.451   5.718  16.877  0.3041  0.3322 -0.1720
 3432TIP3    H134491   2.378   5.678  16.924  0.8020 -0.4443 -0.0491
 3432TIP3    H234492   2.442   5.812  16.894  0.3830  0.0863  1.3590
 3433TIP3   OH234493   5.502   6.110  15.022  0.3841  0.2195 -0.2438
 3433TIP3    H134494   5.414   6.072  15.029 -0.0711  1.3002  0.2307
 3433TIP3    H234495   5.530   6.120  15.113  0.3961  1.1843 -0.3385
 3434TIP3   OH234496   6.676   3.942  15.444 -0.5340 -0.0231  0.3833
 3434TIP3    H134497   6.654   3.923  15.535 -0.2300 -1.3701  0.1970
 3434TIP3    H234498   6.772   3.944  15.443 -0.5423  0.4790  0.1771
 3435TIP3   OH234499   0.678   1.101  15.532  0.3172  0.3117 -0.0205
 3435TIP3    H134500   0.596   1.134  15.569 -0.5626 -2.4079  0.6858
 3435TIP3    H234501   0.730   1.075  15.608  1.2248  0.5772 -0.5276
 3436TIP3   OH234502   1.296   5.431  14.100  0.0203  0.2678 -0.5992
 3436TIP3    H134503   1.211   5.471  14.084  0.2319  0.4317 -1.3758
 3436TIP3    H234504   1.333   5.419  14.012  0.0867 -1.3478 -0.3814
 3437TIP3   OH234505   0.773   5.893  15.246 -0.1093 -0.0785 -0.4043
 3437TIP3    H134506   0.711   5.835  15.203  0.7075 -0.8665 -0.5318
 3437TIP3    H234507   0.794   5.959  15.180 -0.8704  0.2575 -0.3280
 3438TIP3   OH234508   5.056   2.166  15.871  0.6529  0.5904 -0.0068
 3438TIP3    H134509   5.078   2.254  15.901 -2.4510  0.9209  1.6713
 3438TIP3    H234510   5.023   2.121  15.949  1.0984 -1.7109 -1.0548
 3439TIP3   OH234511   1.321   1.992  15.296  0.1071 -0.0478  0.1705
 3439TIP3    H134512   1.363   2.078  15.301 -0.7716  0.3999 -0.0105
 3439TIP3    H234513   1.227   2.011  15.296 -0.1402 -1.1043  1.9212
 3440TIP3   OH234514   2.563   6.464  13.589 -0.1365  0.5460  0.0796
 3440TIP3    H134515   2.472   6.477  13.612 -0.4926 -1.7473  0.1523
 3440TIP3    H234516   2.566   6.480  13.494 -1.3537 -2.4320 -0.5697
 3441TIP3   OH234517   5.730   0.045  16.825  0.5132  0.4524 -0.0368
 3441TIP3    H134518   5.765   0.042  16.735  0.1950  1.4950 -0.2096
 3441TIP3    H234519   5.744   0.136  16.853 -0.2276  0.3699  0.6300
 3442TIP3   OH234520   3.684   1.650  13.586 -0.7997 -0.0545  0.5572
 3442TIP3    H134521   3.607   1.616  13.540 -1.0866 -1.4219  1.9675
 3442TIP3    H234522   3.754   1.647  13.520 -1.5220 -0.5681 -0.2176
 3443TIP3   OH234523   0.507   6.016  14.330 -0.8806 -0.2254  0.2746
 3443TIP3    H134524   0.542   6.014  14.241  1.0349 -0.9303  1.0063
 3443TIP3    H234525   0.531   6.103  14.363 -0.4180 -0.4551  0.5453
 3444TIP3   OH234526   4.766   1.940  14.097  0.6537 -0.0579  0.4381
 3444TIP3    H134527   4.824   1.976  14.029  0.1413  0.1603  0.1146
 3444TIP3    H234528   4.810   1.963  14.179 -0.8676  3.6640  0.4191
 3445TIP3   OH234529   1.889   3.473  15.283  0.2348 -0.4731  0.4618
 3445TIP3    H134530   1.808   3.421  15.287  0.6370 -1.1751 -0.2003
 3445TIP3    H234531   1.958   3.412  15.309  0.5887  0.0592  0.7990
 3446TIP3   OH234532   2.514   6.523  16.989 -0.4682 -0.4339 -0.0735
 3446TIP3    H134533   2.512   6.440  17.037  1.5668  0.1468  1.1365
 3446TIP3    H234534   2.427   6.560  17.001 -0.8896 -1.6307  0.7625
 3447TIP3   OH234535   0.964   1.615  16.718  0.1864 -0.2371 -0.6112
 3447TIP3    H134536   0.901   1.675  16.678  0.2059 -0.0301 -0.3321
 3447TIP3    H234537   1.049   1.655  16.703  0.3605 -1.0829 -1.9923
 3448TIP3   OH234538   5.589   1.701  15.562 -0.3246 -0.5147  0.8938
 3448TIP3    H134539   5.563   1.617  15.599 -0.8059 -0.1528  1.3890
 3448TIP3    H234540   5.635   1.746  15.633 -0.2145 -0.2863  0.6832
 3449TIP3   OH234541   5.241   0.800  16.565  0.0042  0.4203  0.9405
 3449TIP3    H134542   5.259   0.807  16.659 -0.5454  0.4662  1.0415
 3449TIP3    H234543   5.262   0.709  16.544  0.2873  0.4519  1.0694
 3450TIP3   OH234544   2.907   1.079  13.285 -0.2921  0.2817  0.0635
 3450TIP3    H134545   2.879   1.171  13.286 -0.0372  0.3934 -1.0399
 3450TIP3    H234546   3.001   1.083  13.297 -0.2658  0.1789 -0.1037
 3451TIP3   OH234547   1.382   6.466  14.358  0.2528  0.1781  0.1163
 3451TIP3    H134548   1.336   6.409  14.421 -1.6298 -2.7816 -3.5258
 3451TIP3    H234549   1.319   6.535  14.338  0.6502  0.8189  1.0190
 3452TIP3   OH234550   1.610   5.967  15.639 -0.3556  0.2881  0.4583
 3452TIP3    H134551   1.545   5.916  15.591  0.5098  0.4161 -0.8958
 3452TIP3    H234552   1.572   6.055  15.643 -0.7147  0.1300  0.5708
 3453TIP3   OH234553   1.005   1.497  16.986 -0.3164 -0.1214  0.0617
 3453TIP3    H134554   0.974   1.522  16.899  0.9934  0.2699 -0.3079
 3453TIP3    H234555   0.938   1.532  17.046 -0.4924  0.8824 -0.7006
 3454TIP3   OH234556   3.964   1.311  13.862 -0.1270 -0.4703  0.6996
 3454TIP3    H134557   3.947   1.331  13.955  0.4418  0.7013  0.5718
 3454TIP3    H234558   3.941   1.392  13.816 -1.6539 -1.4537 -0.3618
 3455TIP3   OH234559   3.818   5.625  16.768  0.6796  0.0862  0.4487
 3455TIP3    H134560   3.764   5.584  16.836  0.7571 -0.2667  0.3024
 3455TIP3    H234561   3.887   5.560  16.750  0.9724  0.4021  0.4159
 3456TIP3   OH234562   2.926   2.517  13.860 -0.0530 -0.4125  0.5404
 3456TIP3    H134563   2.836   2.520  13.825  0.0459 -0.1271  0.3026
 3456TIP3    H234564   2.944   2.423  13.871 -0.6453 -0.4495  1.2961
 3457TIP3   OH234565   1.563   6.456  15.308 -0.1619 -0.2352 -0.4574
 3457TIP3    H134566   1.532   6.460  15.398 -2.1100  1.2636 -1.1130
 3457TIP3    H234567   1.616   6.377  15.304  0.0350 -0.3050  1.9981
 3458TIP3   OH234568   3.648   4.473  16.072 -0.2423  0.1537  0.3319
 3458TIP3    H134569   3.679   4.528  16.144  0.4330  1.1233 -0.6631
 3458TIP3    H234570   3.603   4.534  16.012 -0.3499 -0.5383 -0.3099
 3459TIP3   OH234571   4.097   6.727  16.307  0.1298 -0.0279  0.2567
 3459TIP3    H134572   4.122   6.720  16.399  0.0496 -0.5793  0.2403
 3459TIP3    H234573   4.137   6.809  16.277  1.6992 -0.7432  0.3007
 3460TIP3   OH234574   3.635   0.216  14.496 -0.6730 -0.8857  0.0548
 3460TIP3    H134575   3.593   0.147  14.548  1.8505 -1.9300  0.8299
 3460TIP3    H234576   3.706   0.249  14.551  1.6085 -1.4748 -2.3153
 3461TIP3   OH234577   4.031   1.316  15.013  0.1287  0.3955  0.0527
 3461TIP3    H134578   4.000   1.261  15.085  0.7944  0.1166  0.1303
 3461TIP3    H234579   4.045   1.255  14.941 -3.1160  0.9660 -1.2609
 3462TIP3   OH234580   0.644   5.789  14.458 -0.3739 -0.4708 -0.4351
 3462TIP3    H134581   0.603   5.872  14.435 -0.2080 -0.1639  0.3571
 3462TIP3    H234582   0.625   5.732  14.383 -0.6444  0.2186 -0.9024
 3463TIP3   OH234583   4.095   0.620  14.722  0.1939 -0.0568 -0.3130
 3463TIP3    H134584   4.034   0.640  14.794  1.3180 -1.2007  0.9978
 3463TIP3    H234585   4.038   0.590  14.651 -0.8355 -0.7652  0.7612
 3464TIP3   OH234586   2.801   2.211  14.573  0.4792 -0.7380  0.5591
 3464TIP3    H134587   2.867   2.144  14.592  1.4801 -0.4191 -1.5140
 3464TIP3    H234588   2.758   2.179  14.494 -0.9138 -0.2424  1.1044
 3465TIP3   OH234589   0.671   5.130  16.897 -0.2925 -0.1805  0.5386
 3465TIP3    H134590   0.599   5.110  16.837  0.3901 -0.0730 -0.3419
 3465TIP3    H234591   0.704   5.045  16.924  0.9948 -0.3254 -1.2398
 3466TIP3   OH234592   2.855   1.052  16.128 -0.1429 -0.6184  0.6573
 3466TIP3    H134593   2.760   1.047  16.137 -0.2364  0.6424  0.5284
 3466TIP3    H234594   2.874   0.995  16.053 -0.7358 -1.2275  0.9544
 3467TIP3   OH234595   1.469   4.736  16.194 -0.4465  0.0236 -0.2200
 3467TIP3    H134596   1.490   4.812  16.140  1.2401 -1.1725 -1.3556
 3467TIP3    H234597   1.549   4.683  16.193 -1.5287 -1.7169  0.6003
 3468TIP3   OH234598   6.355   5.101  16.454 -0.1190 -0.0140 -0.4138
 3468TIP3    H134599   6.326   5.036  16.518  1.7557 -1.1480 -0.6185
 3468TIP3    H234600   6.348   5.185  16.499  0.4902 -0.7172  1.0626
 3469TIP3   OH234601   6.389   0.296  16.804 -0.4224 -0.5576 -0.1465
 3469TIP3    H134602   6.329   0.283  16.878  0.9734 -0.6686  1.0003
 3469TIP3    H234603   6.331   0.320  16.731 -1.6758  2.8281  1.6945
 3470TIP3   OH234604   3.399   1.482  14.296  0.1133  0.8905 -0.9588
 3470TIP3    H134605   3.481   1.490  14.248  1.1048  2.5543  0.8946
 3470TIP3    H234606   3.361   1.570  14.295 -0.5619  0.6311  0.0392
 3471TIP3   OH234607   3.720   6.373  15.125  0.4499  0.4227 -0.0853
 3471TIP3    H134608   3.685   6.296  15.079 -1.0483 -0.4487  2.3235
 3471TIP3    H234609   3.777   6.337  15.193  1.1305  1.5563 -0.0348
 3472TIP3   OH234610   5.006   4.000  15.007  0.0210 -0.1729 -0.3418
 3472TIP3    H134611   4.943   3.957  15.066  0.9320 -1.0879  0.0063
 3472TIP3    H234612   4.997   4.093  15.026 -0.0636 -0.4129  0.8976
 3473TIP3   OH234613   0.174   4.152  16.655 -0.9533 -0.2706  0.2408
 3473TIP3    H134614   0.255   4.198  16.636 -0.4992 -1.5414 -1.1224
 3473TIP3    H234615   0.114   4.177  16.585 -0.7220 -1.6319 -0.4836
 3474TIP3   OH234616   5.478   0.695  13.387  0.2168 -0.4930 -0.6924
 3474TIP3    H134617   5.477   0.644  13.467  1.2150  0.8472  0.2218
 3474TIP3    H234618   5.403   0.664  13.337 -0.7407 -0.9800  0.9967
 3475TIP3   OH234619   1.337   6.093  13.969  0.1315 -0.0062  0.5786
 3475TIP3    H134620   1.392   6.037  14.024  0.7124  0.2965  0.3117
 3475TIP3    H234621   1.394   6.119  13.896 -0.4274  0.1411  0.1833
 3476TIP3   OH234622   4.459   1.722  14.157 -0.7472  0.3289 -0.0373
 3476TIP3    H134623   4.437   1.738  14.065  0.6540  1.1130 -0.2666
 3476TIP3    H234624   4.403   1.782  14.206  0.2673  1.7690 -0.5641
 3477TIP3   OH234625   6.399   2.200  13.683 -1.0209  0.1391  0.3489
 3477TIP3    H134626   6.378   2.146  13.759 -0.0393 -0.4535  0.2109
 3477TIP3    H234627   6.447   2.274  13.719 -0.0598 -0.4284  0.2565
 3478TIP3   OH234628   5.027   2.513  14.326 -0.2010 -0.0235 -0.0085
 3478TIP3    H134629   5.001   2.448  14.260 -0.9373  0.0459  0.2000
 3478TIP3    H234630   5.122   2.508  14.329 -0.2521 -1.1906  0.0918
 3479TIP3   OH234631   0.030   5.047  14.142  0.0708  0.0697 -0.2992
 3479TIP3    H134632   0.009   5.031  14.050 -0.3899  0.8564 -0.3482
 3479TIP3    H234633   0.063   5.137  14.143 -0.4817  0.2714  0.3826
 3480TIP3   OH234634   1.835   5.449  13.977  0.0293 -0.4436  0.2438
 3480TIP3    H134635   1.773   5.440  13.905 -0.0228  0.2811  0.1978
 3480TIP3    H234636   1.917   5.413  13.942 -0.5888 -2.3413  0.6378
 3481TIP3   OH234637   4.610   2.158  16.402 -0.1036 -0.2325 -0.5219
 3481TIP3    H134638   4.637   2.095  16.469 -0.3781  2.1533  2.0037
 3481TIP3    H234639   4.681   2.223  16.401 -1.0922  0.8706 -1.0455
 3482TIP3   OH234640   0.057   6.754  14.085  0.0249  0.0515  0.4492
 3482TIP3    H134641  -0.000   6.683  14.057  1.0551 -0.5277 -0.2452
 3482TIP3    H234642   0.131   6.710  14.126 -0.9401  0.8358  3.2710
 3483TIP3   OH234643   5.942   0.542  13.866  0.2093  0.6264  0.2698
 3483TIP3    H134644   6.033   0.541  13.839 -0.1066 -1.8889 -1.0328
 3483TIP3    H234645   5.895   0.583  13.793  0.1174  0.2169  0.0938
 3484TIP3   OH234646   2.855   5.919  14.672  0.0897 -0.0035  0.7059
 3484TIP3    H134647   2.830   5.930  14.581  0.7335  0.1796  0.5451
 3484TIP3    H234648   2.775   5.935  14.722 -0.3923 -0.6484  0.1498
 3485TIP3   OH234649   3.281   0.489  15.454  0.2721  0.0751  0.0805
 3485TIP3    H134650   3.209   0.447  15.407  0.6006  0.3006 -0.6267
 3485TIP3    H234651   3.298   0.569  15.405  1.9434 -0.6578 -0.5958
 3486TIP3   OH234652   3.669   1.119  15.714 -0.0309 -0.6598 -0.6850
 3486TIP3    H134653   3.728   1.057  15.670 -1.4842 -1.3067 -1.8157
 3486TIP3    H234654   3.678   1.099  15.807  1.6893 -0.5753 -0.8058
 3487TIP3   OH234655   6.754   4.424  16.086 -0.6927  0.0024 -0.5270
 3487TIP3    H134656   6.793   4.362  16.148  0.1880 -0.6786 -1.7165
 3487TIP3    H234657   6.757   4.378  16.002 -2.2235  0.7480 -1.0213
 3488TIP3   OH234658   3.591   1.450  13.819  0.4947  0.0666  0.3608
 3488TIP3    H134659   3.621   1.362  13.796  2.3375  1.5484 -3.9366
 3488TIP3    H234660   3.535   1.476  13.746 -1.4341  1.9271  2.3554
 3489TIP3   OH234661   0.024   5.447  15.729 -0.0261  0.2818  0.1355
 3489TIP3    H134662   0.070   5.369  15.698  0.2122  1.0512 -1.5449
 3489TIP3    H234663   0.085   5.519  15.715 -0.0764  0.7584  2.0682
 3490TIP3   OH234664   0.367   6.606  15.886  0.0317 -0.7697 -0.4983
 3490TIP3    H134665   0.335   6.696  15.894  1.4626 -0.3810  2.2671
 3490TIP3    H234666   0.454   6.608  15.926 -0.9445 -3.8561  2.2562
 3491TIP3   OH234667   0.511   5.343  16.163 -0.3278  0.4502  0.3614
 3491TIP3    H134668   0.458   5.388  16.228  0.7620  0.4524  1.2824
 3491TIP3    H234669   0.494   5.250  16.178  0.7367  0.4006  1.4077
 3492TIP3   OH234670   2.673   5.177  16.143 -0.8103 -0.6911  0.5028
 3492TIP3    H134671   2.666   5.083  16.158 -0.6449 -0.5782  1.3362
 3492TIP3    H234672   2.703   5.185  16.053 -2.3670 -1.4067 -0.1277
 3493TIP3   OH234673   1.196   0.253  15.927  0.0150  0.1538  0.3077
 3493TIP3    H134674   1.206   0.157  15.926 -1.2362  0.0032 -1.6235
 3493TIP3    H234675   1.116   0.269  15.877  0.1445  2.2215  0.7115
 3494TIP3   OH234676   4.343   3.538  16.160  0.5055  0.4273 -0.0990
 3494TIP3    H134677   4.362   3.599  16.232  0.2937  1.0575 -0.5727
 3494TIP3    H234678   4.249   3.522  16.166  0.4980  0.4332 -0.1980
 3495TIP3   OH234679   5.639   6.598  15.074  0.1883 -0.1009 -0.3579
 3495TIP3    H134680   5.713   6.538  15.084 -1.1590 -1.9719 -1.0811
 3495TIP3    H234681   5.657   6.647  14.994  0.3455 -0.9987 -0.8763
 3496TIP3   OH234682   6.692   2.750  13.962  0.3073 -0.1338 -0.0861
 3496TIP3    H134683   6.778   2.711  13.946  0.7379  1.4593 -1.9722
 3496TIP3    H234684   6.681   2.815  13.893 -1.9771  0.4657  0.7362
 3497TIP3   OH234685   1.989   4.561  16.574  0.5427 -0.1633  0.2839
 3497TIP3    H134686   2.076   4.599  16.567  0.3431  0.0846 -1.1974
 3497TIP3    H234687   1.995   4.480  16.523 -0.9204  1.4626 -2.7070
 3498TIP3   OH234688   2.467   5.133  15.640 -0.3126  0.8662  0.0631
 3498TIP3    H134689   2.481   5.143  15.546 -0.6398  1.4828  0.0725
 3498TIP3    H234690   2.396   5.071  15.647  2.2386 -2.3137  0.0142
 3499TIP3   OH234691   1.682   3.452  16.863 -0.2273  0.0895  0.7378
 3499TIP3    H134692   1.680   3.547  16.873  0.0112  0.2907 -0.8306
 3499TIP3    H234693   1.598   3.423  16.899  0.1783  0.7555  2.2849
 3500TIP3   OH234694   4.748   3.697  16.057  0.1862  0.6017 -0.5154
 3500TIP3    H134695   4.743   3.789  16.029  0.0666  0.2848 -1.5907
 3500TIP3    H234696   4.671   3.656  16.019  0.1995  0.0645  0.0236
 3501TIP3   OH234697   6.015   6.432  17.149 -0.5638 -0.8281 -0.4933
 3501TIP3    H134698   5.970   6.508  17.186 -0.8190 -2.3028  2.5369
 3501TIP3    H234699   6.096   6.467  17.113 -0.6946  0.8919  0.7669
 3502TIP3   OH234700   6.571   3.988  15.194  0.3760  0.1366  0.1331
 3502TIP3    H134701   6.608   3.955  15.276  0.5929 -0.0152 -0.0217
 3502TIP3    H234702   6.616   3.937  15.126  0.7399  0.7666 -0.1148
 3503TIP3   OH234703   3.678   0.627  16.706 -0.5924  0.4669 -0.3497
 3503TIP3    H134704   3.754   0.679  16.729 -1.2079  0.8727  0.8706
 3503TIP3    H234705   3.606   0.665  16.758 -1.2254 -1.0762 -0.0305
 3504TIP3   OH234706   5.468   5.583  14.628  1.3844 -0.0107 -0.2287
 3504TIP3    H134707   5.447   5.550  14.540 -0.8672 -1.1929  0.6762
 3504TIP3    H234708   5.446   5.511  14.687  1.0092  1.4084  1.4629
 3505TIP3   OH234709   3.765   2.893  15.543 -0.0852 -0.0882  0.3046
 3505TIP3    H134710   3.712   2.814  15.554  0.3890 -0.8756 -2.3088
 3505TIP3    H234711   3.853   2.860  15.525  0.2660  1.0608 -0.1561
 3506TIP3   OH234712   4.558   3.164  15.077  0.1378 -0.0411 -0.2085
 3506TIP3    H134713   4.546   3.082  15.029  0.6767  1.1329 -2.5016
 3506TIP3    H234714   4.649   3.161  15.106 -0.4002 -1.0902  1.4982
 3507TIP3   OH234715   6.261   0.078  13.803 -0.2766  0.3481  0.2140
 3507TIP3    H134716   6.317   0.156  13.799  0.3174 -0.1030 -0.8432
 3507TIP3    H234717   6.322   0.007  13.826 -0.9198  0.2722  1.8146
 3508TIP3   OH234718   2.050   2.113  14.977 -0.1762  0.8418 -0.3460
 3508TIP3    H134719   2.073   2.117  15.070 -2.1168  0.0448  0.2171
 3508TIP3    H234720   1.977   2.174  14.967 -1.8027 -1.0714 -0.7140
 3509TIP3   OH234721   6.498   4.183  17.106  0.2014  0.5226 -0.1388
 3509TIP3    H134722   6.406   4.156  17.097 -0.1865  1.0655  1.6763
 3509TIP3    H234723   6.494   4.277  17.124  1.0540  0.4186  0.6815
 3510TIP3   OH234724   2.347   0.011  16.056  0.3075 -0.2327 -0.0543
 3510TIP3    H134725   2.404  -0.065  16.045 -1.6505 -1.6570 -0.8846
 3510TIP3    H234726   2.342   0.024  16.150  2.3512  0.2597  0.0370
 3511TIP3   OH234727   5.411   5.550  16.116  0.5601 -0.4341  0.0997
 3511TIP3    H134728   5.384   5.598  16.194 -0.9443 -0.1474 -0.5668
 3511TIP3    H234729   5.393   5.458  16.136  0.3678 -0.3804  0.1739
 3512TIP3   OH234730   0.798   2.207  14.684  0.3912 -0.4272  0.4491
 3512TIP3    H134731   0.806   2.121  14.725  0.8576 -0.4264  0.3750
 3512TIP3    H234732   0.762   2.190  14.597  0.7419 -0.5785  0.3324
 3513TIP3   OH234733   4.328   2.179  16.953 -0.8595 -0.6690 -0.0039
 3513TIP3    H134734   4.369   2.107  17.000 -0.6834  0.8067  2.2963
 3513TIP3    H234735   4.261   2.212  17.014  0.7526  2.6462  0.2209
 3514TIP3   OH234736   4.947   6.539  15.062  0.0846  0.0775  0.5543
 3514TIP3    H134737   4.982   6.449  15.067  0.3556  0.0884 -0.8019
 3514TIP3    H234738   4.927   6.561  15.153 -0.4170 -1.5253  0.8775
 3515TIP3   OH234739   5.139   2.244  13.312 -0.4161  0.0726 -0.3449
 3515TIP3    H134740   5.129   2.339  13.318 -0.2704  0.0799 -0.1991
 3515TIP3    H234741   5.051   2.212  13.293 -0.0744  0.4116 -2.8408
 3516TIP3   OH234742   0.176   2.304  14.364  0.3198  0.2844  0.4116
 3516TIP3    H134743   0.109   2.281  14.428 -0.1757 -0.5292 -0.3940
 3516TIP3    H234744   0.142   2.273  14.280  1.2198  0.8247 -0.1709
 3517TIP3   OH234745   1.848   4.397  15.124  0.6007 -0.2316  0.3019
 3517TIP3    H134746   1.886   4.332  15.184  1.0983  0.6548  0.9806
 3517TIP3    H234747   1.902   4.390  15.045  0.3936 -0.9186  0.2122
 3518TIP3   OH234748   5.395   4.234  13.849  0.2461  0.0879 -0.1943
 3518TIP3    H134749   5.323   4.265  13.794  0.4709  0.8861 -0.0462
 3518TIP3    H234750   5.434   4.162  13.800 -0.5825 -0.2773 -0.3287
 3519TIP3   OH234751   0.687   1.749  16.709 -0.0580  0.3217 -0.1540
 3519TIP3    H134752   0.658   1.816  16.770 -0.6012  0.2407 -0.3190
 3519TIP3    H234753   0.624   1.753  16.637 -1.8072 -2.2417  1.1013
 3520TIP3   OH234754   5.513   3.983  15.942 -0.2642 -0.1284  0.0348
 3520TIP3    H134755   5.548   3.896  15.964  0.0846  0.0733  0.2897
 3520TIP3    H234756   5.462   4.008  16.019  0.5808  0.3835  0.4339
 3521TIP3   OH234757   4.184   5.684  15.407 -0.4080 -0.2647  0.5459
 3521TIP3    H134758   4.232   5.628  15.346 -1.2684  1.4669 -1.8915
 3521TIP3    H234759   4.100   5.699  15.364 -0.4550  2.3256  1.3811
 3522TIP3   OH234760   6.009   2.571  14.218 -0.3010 -0.0677 -0.1123
 3522TIP3    H134761   5.983   2.534  14.134  1.0564  1.1912 -1.1320
 3522TIP3    H234762   6.073   2.509  14.253 -0.7151 -0.4875 -0.0781
 3523TIP3   OH234763   5.253   0.063  15.719 -0.1800  0.7546  0.1277
 3523TIP3    H134764   5.342   0.042  15.690  0.0359 -0.4997  1.6050
 3523TIP3    H234765   5.201  -0.013  15.694 -0.8968  1.5184 -0.8050
 3524TIP3   OH234766   6.460   6.642  15.745 -0.4473  0.1664 -0.6378
 3524TIP3    H134767   6.427   6.711  15.804 -1.4949 -1.4747  0.8112
 3524TIP3    H234768   6.397   6.571  15.755  0.4828 -0.9277 -2.2547
 3525TIP3   OH234769   4.409   3.004  14.237 -0.1208 -0.7076 -0.2922
 3525TIP3    H134770   4.338   2.939  14.243 -0.3649 -0.5145 -0.9844
 3525TIP3    H234771   4.489   2.952  14.238 -0.2220 -0.8782  1.3830
 3526TIP3   OH234772   0.433   5.991  13.689  0.4587 -0.4941  0.2882
 3526TIP3    H134773   0.458   6.074  13.730 -3.1677  0.6901  0.5221
 3526TIP3    H234774   0.426   6.011  13.596  1.1906 -1.0243  0.1136
 3527TIP3   OH234775   4.279   1.507  14.746  0.4239 -0.5464 -0.2805
 3527TIP3    H134776   4.201   1.543  14.786 -0.5543 -0.4378 -2.1802
 3527TIP3    H234777   4.347   1.517  14.812 -0.7849  0.8427  0.8035
 3528TIP3   OH234778   0.288   6.630  14.196 -0.0355 -0.2732  0.3446
 3528TIP3    H134779   0.375   6.631  14.237  0.7234 -0.1489 -1.2193
 3528TIP3    H234780   0.303   6.595  14.108 -1.4615  0.4035 -0.1960
 3529TIP3   OH234781   4.360   1.189  14.972  0.4200 -0.1623  0.6040
 3529TIP3    H134782   4.357   1.190  14.876 -0.6872 -1.1273  0.6007
 3529TIP3    H234783   4.319   1.106  14.996  0.4026  0.2054  1.9329
 3530TIP3   OH234784   6.580   2.784  15.011  0.5177  0.3260 -0.1977
 3530TIP3    H134785   6.594   2.764  15.103  0.6515 -0.0495 -0.2993
 3530TIP3    H234786   6.546   2.873  15.011 -2.2959 -0.6455  0.4478
 3531TIP3   OH234787   0.885   2.242  15.866 -0.1992 -0.0665  0.4811
 3531TIP3    H134788   0.882   2.214  15.957  0.8922  1.1819  0.9250
 3531TIP3    H234789   0.950   2.312  15.864  1.5561 -1.6271 -1.7039
 3532TIP3   OH234790   2.905   4.673  16.692 -0.1979  0.3897 -0.6213
 3532TIP3    H134791   2.907   4.577  16.690 -1.2478  0.3450 -0.1475
 3532TIP3    H234792   2.935   4.696  16.780 -0.3013  0.4725 -0.6064
 3533TIP3   OH234793   3.347   3.986  14.337  0.2172 -0.0635 -0.1382
 3533TIP3    H134794   3.274   3.991  14.398 -0.1821 -0.4431 -0.5801
 3533TIP3    H234795   3.395   4.068  14.350  0.2596 -0.2300  0.8283
 3534TIP3   OH234796   0.761   6.394  16.476 -0.1886 -0.4614  0.0602
 3534TIP3    H134797   0.710   6.472  16.497  0.0753  0.2033 -1.6220
 3534TIP3    H234798   0.698   6.335  16.434  0.1381 -0.1393 -0.9000
 3535TIP3   OH234799   4.217   2.956  16.770  0.1878  0.0370 -0.2535
 3535TIP3    H134800   4.161   2.912  16.706 -0.2225 -0.8293  0.6568
 3535TIP3    H234801   4.175   2.938  16.854  0.8109  0.9938  0.2786
 3536TIP3   OH234802   0.863   4.113  13.899  0.1687  0.2919 -0.1999
 3536TIP3    H134803   0.784   4.157  13.869  0.4524  1.7189  0.9974
 3536TIP3    H234804   0.935   4.163  13.860  0.5070  1.3242  1.5829
 3537TIP3   OH234805   0.183   0.550  16.876  0.0074  0.4019  0.0480
 3537TIP3    H134806   0.107   0.601  16.902 -0.0670  1.8542 -2.6657
 3537TIP3    H234807   0.251   0.616  16.858  0.9482 -0.6684 -0.4610
 3538TIP3   OH234808   6.054   0.989  15.080 -0.1506  0.0660  0.1228
 3538TIP3    H134809   5.970   1.002  15.124  0.2183 -0.8628  1.1391
 3538TIP3    H234810   6.042   1.028  14.994 -0.9192  1.9142  1.0058
 3539TIP3   OH234811   2.425   3.275  14.788  0.3936  0.2810 -0.1696
 3539TIP3    H134812   2.462   3.352  14.745  1.6124 -1.2356 -2.0116
 3539TIP3    H234813   2.345   3.257  14.739  0.3978  0.0594 -0.0938
 3540TIP3   OH234814   3.766   1.551  13.988 -0.0565  0.1911  0.2024
 3540TIP3    H134815   3.853   1.557  13.949  0.0836 -0.1270  0.4576
 3540TIP3    H234816   3.709   1.527  13.915  0.0968  0.2325  0.0666
 3541TIP3   OH234817   4.922   2.283  14.811 -0.1533  0.2509  0.0438
 3541TIP3    H134818   4.908   2.377  14.796  0.4027  0.2233 -0.6751
 3541TIP3    H234819   4.921   2.244  14.724  1.2289 -0.1839  0.2032
 3542TIP3   OH234820   6.471   4.471  17.089  0.1274  0.1015  0.4207
 3542TIP3    H134821   6.380   4.493  17.071 -0.0052 -0.8351 -0.0953
 3542TIP3    H234822   6.509   4.552  17.123 -1.4718 -0.0667  2.8846
 3543TIP3   OH234823   3.817   1.843  16.464 -0.4304 -0.2568 -0.2187
 3543TIP3    H134824   3.864   1.850  16.546 -1.7336  0.7094  0.4976
 3543TIP3    H234825   3.726   1.825  16.489 -0.7365 -0.6006 -1.4699
 3544TIP3   OH234826   2.559   4.148  16.023  0.7109  0.0406  0.1228
 3544TIP3    H134827   2.578   4.091  15.948 -0.3832  0.5871 -0.5986
 3544TIP3    H234828   2.613   4.226  16.008  0.2349  0.2978 -0.3025
 3545TIP3   OH234829   4.117   6.618  15.234 -0.3473  0.2609 -0.4947
 3545TIP3    H134830   4.047   6.613  15.168 -1.3823  3.4098  0.1990
 3545TIP3    H234831   4.185   6.671  15.193 -0.2617  0.8051  0.3281
 3546TIP3   OH234832   1.847   3.411  14.221  0.3759  0.3438  0.6846
 3546TIP3    H134833   1.780   3.479  14.218 -0.8289 -0.7839  1.0900
 3546TIP3    H234834   1.806   3.335  14.180 -0.1845 -1.6457  4.4195
 3547TIP3   OH234835   4.665   6.722  17.322 -0.0189 -0.2782  0.5367
 3547TIP3    H134836   4.748   6.745  17.281 -0.0426 -1.4622 -0.2189
 3547TIP3    H234837   4.671   6.756  17.411  1.8845 -1.6433  0.9779
 3548TIP3   OH234838   2.374   6.394  16.677  0.3362  0.0815 -0.3273
 3548TIP3    H134839   2.292   6.367  16.718 -0.3952  3.8047  1.1641
 3548TIP3    H234840   2.441   6.378  16.744  0.1861  0.3393 -0.1111
 3549TIP3   OH234841   3.131   3.262  13.959 -0.1230  0.0426  0.2157
 3549TIP3    H134842   3.048   3.295  13.992 -0.0346 -0.0282  0.5086
 3549TIP3    H234843   3.175   3.338  13.922 -0.7299 -0.0795 -0.8238
 3550TIP3   OH234844   2.736   3.614  15.427  0.3006 -0.1895 -0.3688
 3550TIP3    H134845   2.810   3.604  15.487  0.9294  0.0403 -1.0944
 3550TIP3    H234846   2.758   3.559  15.352 -0.8109 -1.0345 -0.1035
 3551TIP3   OH234847   4.021   3.890  16.252 -0.3371  0.5008 -0.3132
 3551TIP3    H134848   4.061   3.831  16.315 -1.8802  1.2547  1.4639
 3551TIP3    H234849   4.095   3.936  16.212  0.6792  0.5632  1.5210
 3552TIP3   OH234850   3.884   0.811  14.846 -0.3963 -0.6200  0.0508
 3552TIP3    H134851   3.823   0.784  14.777 -0.8062  0.8427 -0.1964
 3552TIP3    H234852   3.831   0.815  14.925 -0.2150 -1.0330  0.1973
 3553TIP3   OH234853   2.547   3.089  16.711  0.5125 -0.5963 -0.1185
 3553TIP3    H134854   2.539   3.002  16.672  0.9697 -0.6222 -0.1595
 3553TIP3    H234855   2.614   3.133  16.658  0.2117 -0.1857 -0.1600
 3554TIP3   OH234856   4.618   4.693  15.518 -0.7535 -0.1679 -0.2400
 3554TIP3    H134857   4.660   4.641  15.587  0.2806  0.0709 -0.6742
 3554TIP3    H234858   4.621   4.783  15.551 -1.5968 -0.2339  0.0459
 3555TIP3   OH234859   5.583   5.168  13.996  0.7944  0.0083  0.3074
 3555TIP3    H134860   5.620   5.169  14.085 -2.5144  0.1512  1.8352
 3555TIP3    H234861   5.551   5.257  13.983  1.5169  0.0750 -1.2234
 3556TIP3   OH234862   1.409   1.645  14.277  0.0631 -0.2051 -0.0996
 3556TIP3    H134863   1.363   1.681  14.353 -0.6707 -1.1074 -0.0832
 3556TIP3    H234864   1.416   1.551  14.296  2.6590  0.0084  0.2468
 3557TIP3   OH234865   3.807   5.207  15.052 -0.1516 -0.7334 -0.0981
 3557TIP3    H134866   3.812   5.257  15.133  2.7585 -0.3919 -0.3653
 3557TIP3    H234867   3.765   5.267  14.990  0.5718  0.2579  0.3450
 3558TIP3   OH234868   0.488   2.989  16.276 -0.5900  0.1458  1.0449
 3558TIP3    H134869   0.444   2.955  16.354 -1.0484  0.0036  0.7238
 3558TIP3    H234870   0.553   2.923  16.254 -0.3917  0.2328  1.3619
 3559TIP3   OH234871   1.619   5.030  17.011 -0.5054 -0.3077  0.1362
 3559TIP3    H134872   1.631   5.081  16.930  0.7697 -0.8772 -0.0597
 3559TIP3    H234873   1.554   4.964  16.988 -0.2219 -0.4074 -0.4194
 3560TIP3   OH234874   1.623   2.189  16.032  0.0376  0.0396 -0.4536
 3560TIP3    H134875   1.717   2.182  16.019  0.0092  0.4357 -0.8956
 3560TIP3    H234876   1.586   2.114  15.986  0.2373 -1.0335  1.0744
 3561TIP3   OH234877   5.155   0.707  14.434 -0.1823  0.5599  0.0816
 3561TIP3    H134878   5.071   0.713  14.480 -0.8719 -1.5344 -0.8033
 3561TIP3    H234879   5.138   0.751  14.350 -0.0016  1.2299  0.3891
 3562TIP3   OH234880   0.186   2.277  14.714  0.1961  0.6442  0.2440
 3562TIP3    H134881   0.103   2.279  14.666  0.6485  0.2891 -0.5659
 3562TIP3    H234882   0.160   2.281  14.807 -0.9182 -2.5457  0.1815
 3563TIP3   OH234883   0.391   2.289  15.802  0.5993 -0.8092 -0.4921
 3563TIP3    H134884   0.477   2.282  15.761  0.5442 -2.0819 -0.4407
 3563TIP3    H234885   0.410   2.316  15.892  0.9748 -1.2328 -0.4355
 3564TIP3   OH234886   4.235   3.120  13.811 -0.0901 -0.0002 -0.0092
 3564TIP3    H134887   4.167   3.057  13.786  0.1968  0.3423 -1.7889
 3564TIP3    H234888   4.187   3.200  13.831 -0.2808 -0.0184 -0.3839
 3565TIP3   OH234889   0.137   5.296  15.081 -0.0786  0.1134  0.0491
 3565TIP3    H134890   0.166   5.237  15.012 -0.3667 -0.1126  0.1161
 3565TIP3    H234891   0.111   5.376  15.035 -0.7439 -0.2173 -0.1599
 3566TIP3   OH234892   1.582   5.695  14.813  0.0450  0.1212 -0.2991
 3566TIP3    H134893   1.600   5.714  14.720  2.0820 -0.4420 -0.0721
 3566TIP3    H234894   1.648   5.747  14.860 -0.3521 -0.3437  0.7797
 3567TIP3   OH234895   2.469   3.585  14.627 -0.3479 -0.3162 -0.1349
 3567TIP3    H134896   2.404   3.640  14.584 -0.4851 -0.1934  0.2268
 3567TIP3    H234897   2.476   3.507  14.571  0.3907  0.3883 -1.0497
 3568TIP3   OH234898   1.378   0.613  16.990  0.2953  0.3319 -0.2451
 3568TIP3    H134899   1.431   0.605  16.911  1.3621 -0.2080  0.5041
 3568TIP3    H234900   1.399   0.700  17.024 -0.5165  0.7568 -0.7713
 3569TIP3   OH234901   1.955   6.534  14.954 -0.0640 -0.5590  0.3621
 3569TIP3    H134902   2.046   6.561  14.949  0.3704 -1.3734  2.5896
 3569TIP3    H234903   1.933   6.541  15.047 -2.5141  0.3007 -0.1946
 3570TIP3   OH234904   2.974   4.182  15.167 -0.4645 -0.3822  0.1637
 3570TIP3    H134905   3.019   4.259  15.130  0.0954 -0.4445  0.6981
 3570TIP3    H234906   2.892   4.217  15.201 -0.5699 -0.1638 -0.2984
 3571TIP3   OH234907   0.847   2.576  15.945  0.5011  0.4874 -0.5583
 3571TIP3    H134908   0.873   2.654  15.897  1.8200  0.2135 -0.3283
 3571TIP3    H234909   0.849   2.603  16.037 -0.1803  0.4967 -0.5415
 3572TIP3   OH234910   4.643   3.444  15.328 -0.0782  0.0841  0.6226
 3572TIP3    H134911   4.650   3.406  15.241  1.3678  1.2168  0.1959
 3572TIP3    H234912   4.650   3.370  15.388  3.4695 -0.3698 -0.1455
 3573TIP3   OH234913   2.224   2.335  13.972  0.2074 -0.0543 -0.6568
 3573TIP3    H134914   2.257   2.299  14.054  1.1330  2.0511 -0.0608
 3573TIP3    H234915   2.130   2.313  13.973  0.4806 -1.3086  0.2421
 3574TIP3   OH234916   4.302   1.284  16.095  0.2438 -0.0227  0.1660
 3574TIP3    H134917   4.228   1.315  16.145  0.3833  0.0599  0.3223
 3574TIP3    H234918   4.363   1.249  16.160  0.4518  0.1426  0.0613
 3575TIP3   OH234919   4.592   0.466  16.731  1.0164 -0.3910 -0.3711
 3575TIP3    H134920   4.678   0.474  16.771  0.9867 -1.5445 -0.0155
 3575TIP3    H234921   4.605   0.407  16.657  0.2294 -2.2424  0.8712
 3576TIP3   OH234922   0.003   2.716  15.974  0.0936 -0.2057  0.4716
 3576TIP3    H134923  -0.028   2.683  16.058 -0.4027 -0.2535  0.2715
 3576TIP3    H234924  -0.024   2.651  15.910  0.0004  0.0906  0.2057
 3577TIP3   OH234925   5.499   4.512  15.824  0.0873  0.1297  0.1101
 3577TIP3    H134926   5.515   4.423  15.855  1.9990  1.1917  2.5133
 3577TIP3    H234927   5.415   4.536  15.863  0.9004  0.2927  1.8502
 3578TIP3   OH234928   1.837   5.813  17.158 -0.1766 -0.2406 -0.0052
 3578TIP3    H134929   1.846   5.800  17.064 -0.7726  1.7806 -0.3965
 3578TIP3    H234930   1.852   5.907  17.171 -0.8102 -0.3479  1.8127
 3579TIP3   OH234931   3.289   0.049  16.290  0.1371  0.0926  0.6187
 3579TIP3    H134932   3.376   0.088  16.301  0.3012 -0.3731  1.0316
 3579TIP3    H234933   3.240   0.114  16.240  0.6437  0.4766  0.6058
 3580TIP3   OH234934   3.286   3.669  14.347 -0.0833  0.4180  0.0159
 3580TIP3    H134935   3.262   3.723  14.422 -0.2599 -0.1096  0.3410
 3580TIP3    H234936   3.380   3.653  14.359  0.1143  1.1971 -0.4353
 3581TIP3   OH234937   6.374   0.328  15.136  0.5053 -0.2413  0.0303
 3581TIP3    H134938   6.450   0.296  15.184  0.1070 -0.8108  0.2904
 3581TIP3    H234939   6.307   0.261  15.149 -0.0410  0.2490 -0.1971
 3582TIP3   OH234940   5.295   5.254  14.652  0.6161 -0.2231  0.0467
 3582TIP3    H134941   5.339   5.302  14.722 -0.4376 -1.1837  1.4131
 3582TIP3    H234942   5.242   5.320  14.608  1.1926  0.3726  0.2236
 3583TIP3   OH234943   5.097   1.004  16.714 -0.2020 -0.6616  0.0530
 3583TIP3    H134944   5.051   1.060  16.776 -0.2534  0.2229 -0.7637
 3583TIP3    H234945   5.028   0.950  16.674 -0.7952  1.4573 -2.0068
 3584TIP3   OH234946   2.392   5.646  15.990  0.9598  0.0470 -0.1178
 3584TIP3    H134947   2.467   5.598  16.024  1.2789  0.9764  0.5200
 3584TIP3    H234948   2.380   5.719  16.051 -2.1026 -1.5361  1.4042
 3585TIP3   OH234949   6.030   2.413  14.648  0.1133  0.1775 -0.7018
 3585TIP3    H134950   6.049   2.418  14.742  0.9667  0.0833 -0.8611
 3585TIP3    H234951   6.020   2.319  14.631  1.6655  0.0400 -1.0098
 3586TIP3   OH234952   1.912   3.858  16.280  0.1139  0.0978  0.1224
 3586TIP3    H134953   1.877   3.822  16.199 -1.4910 -0.5931  1.0676
 3586TIP3    H234954   2.007   3.855  16.269 -0.0690 -0.3146 -1.5638
 3587TIP3   OH234955   1.912   4.486  13.742 -0.1381 -0.2757 -0.1662
 3587TIP3    H134956   1.922   4.538  13.821 -2.0228 -0.5067  0.2791
 3587TIP3    H234957   1.817   4.474  13.733  0.1449 -2.2792 -1.1165
 3588TIP3   OH234958   0.277   1.094  15.850 -0.0965  0.8657 -0.0491
 3588TIP3    H134959   0.228   1.032  15.795 -0.5917  0.4278  0.8599
 3588TIP3    H234960   0.328   1.146  15.788 -1.7061  1.3462 -1.0372
 3589TIP3   OH234961   6.640   2.540  16.539  0.1113 -0.4686 -0.3494
 3589TIP3    H134962   6.556   2.533  16.493 -1.3200  0.2697  2.0068
 3589TIP3    H234963   6.645   2.460  16.591  2.0505 -1.6293 -2.1715
 3590TIP3   OH234964   3.574   2.103  13.721  0.4387 -0.1901 -0.1311
 3590TIP3    H134965   3.641   2.115  13.788  0.5222 -1.9961  0.1791
 3590TIP3    H234966   3.495   2.079  13.771  0.5192 -1.6147 -0.6368
 3591TIP3   OH234967   4.779   4.973  16.161  0.2134  0.3039  0.3379
 3591TIP3    H134968   4.707   4.935  16.110 -0.6210  1.9423  0.2547
 3591TIP3    H234969   4.854   4.971  16.101 -0.3622  0.7564 -0.4180
 3592TIP3   OH234970   1.963   0.298  15.957  0.0851 -0.4739  0.2860
 3592TIP3    H134971   1.875   0.286  15.920 -0.1009 -0.4550  0.7147
 3592TIP3    H234972   1.967   0.392  15.977  0.4110 -0.3712 -0.2502
 3593TIP3   OH234973   5.819   1.150  13.750  0.2168 -0.3378 -0.6625
 3593TIP3    H134974   5.794   1.112  13.666 -3.3145  1.1166 -0.4116
 3593TIP3    H234975   5.743   1.200  13.778  1.2084 -0.7791  3.4570
 3594TIP3   OH234976   1.604   2.475  15.783 -0.0407  0.2235 -0.5273
 3594TIP3    H134977   1.641   2.393  15.751 -2.0228 -0.5746 -0.9594
 3594TIP3    H234978   1.628   2.539  15.717  0.1269 -0.3684 -1.0557
 3595TIP3   OH234979   1.922   2.390  14.306 -0.1609 -0.7068  0.8600
 3595TIP3    H134980   1.940   2.346  14.223  1.2292  0.1815  0.6456
 3595TIP3    H234981   1.986   2.351  14.367 -1.1125 -1.2917  1.5121
 3596TIP3   OH234982   1.446   0.249  15.214  0.2473  0.6763 -0.0125
 3596TIP3    H134983   1.434   0.187  15.142  0.7508 -1.0358  1.3145
 3596TIP3    H234984   1.538   0.272  15.211  0.5108 -0.2031  0.6543
 3597TIP3   OH234985   5.521   4.639  14.505 -0.2476  0.3108  0.5843
 3597TIP3    H134986   5.465   4.675  14.436 -3.1536 -0.2145  2.5290
 3597TIP3    H234987   5.597   4.604  14.457 -0.3756  3.0421 -1.9714
 3598TIP3   OH234988   4.957   4.560  15.913  0.6275 -0.4472  0.8320
 3598TIP3    H134989   5.048   4.589  15.906  0.6360 -0.9631 -2.9232
 3598TIP3    H234990   4.959   4.468  15.887 -0.9383 -0.6439  1.3216
 3599TIP3   OH234991   4.913   5.685  14.976  0.4962 -0.1936  1.0147
 3599TIP3    H134992   4.864   5.730  15.045  1.2862  1.8418  0.3228
 3599TIP3    H234993   4.876   5.597  14.973 -1.1660  0.4166  2.4180
 3600TIP3   OH234994   1.720   0.104  16.919  0.0850  0.5654 -0.3943
 3600TIP3    H134995   1.707   0.199  16.915  0.5464  0.8174  2.0860
 3600TIP3    H234996   1.807   0.094  16.959  0.0406 -0.9163 -0.6147
 3601TIP3   OH234997   4.947   2.797  15.284 -0.3801  0.1492  0.0792
 3601TIP3    H134998   4.918   2.851  15.358 -1.0592  1.4885 -1.0997
 3601TIP3    H234999   4.870   2.793  15.227  0.0715 -1.0180 -0.4595
 3602TIP3   OH235000   4.889   5.876  15.410 -0.4932  0.5373  0.1058
 3602TIP3    H135001   4.864   5.917  15.328 -1.6411  0.7474  0.5400
 3602TIP3    H235002   4.880   5.782  15.394 -1.1440  0.5941  0.1157
 3603TIP3   OH235003   5.303   4.279  16.968 -0.3152 -0.3840 -0.2420
 3603TIP3    H135004   5.226   4.225  16.984  0.8058 -1.3736  2.3216
 3603TIP3    H235005   5.276   4.368  16.992 -1.0486 -0.4646 -0.7568
 3604TIP3   OH235006   0.105   4.242  15.577  0.4223 -0.3751  0.0004
 3604TIP3    H135007   0.126   4.162  15.528 -0.0894 -0.3121 -0.3241
 3604TIP3    H235008   0.127   4.221  15.668  1.1797 -0.5660 -0.2172
 3605TIP3   OH235009   5.785   0.421  14.134  0.2114  1.1043  0.0513
 3605TIP3    H135010   5.853   0.456  14.078 -1.8720  0.2154 -3.3276
 3605TIP3    H235011   5.776   0.330  14.106 -0.5321  0.4045  2.3477
 3606TIP3   OH235012   5.386   2.955  14.949  0.2274 -0.2492 -0.7905
 3606TIP3    H135013   5.468   3.001  14.964  1.0684 -1.7045 -0.7334
 3606TIP3    H235014   5.344   2.951  15.035 -0.0378  0.7177 -0.8674
 3607TIP3   OH235015   2.989   0.662  15.677 -0.4047 -0.5997  0.0216
 3607TIP3    H135016   2.958   0.571  15.675 -0.0031 -0.7328 -1.5693
 3607TIP3    H235017   3.000   0.685  15.585 -1.6907  1.5026  0.3452
 3608TIP3   OH235018   5.837   3.158  16.170 -0.2836 -0.1305 -0.3130
 3608TIP3    H135019   5.778   3.204  16.228  1.5568  3.0960 -0.7632
 3608TIP3    H235020   5.885   3.098  16.227  0.2977  1.7273  1.2527
 3609TIP3   OH235021   3.624   1.692  14.915  0.0555 -0.0076 -0.1302
 3609TIP3    H135022   3.575   1.654  14.988 -1.3634 -0.1821 -1.1255
 3609TIP3    H235023   3.578   1.775  14.896  0.6297  0.2152 -0.5812
 3610TIP3   OH235024   5.352   3.924  16.680  0.0534  0.4657 -0.2206
 3610TIP3    H135025   5.352   4.019  16.680  0.6372  0.5060  1.6222
 3610TIP3    H235026   5.396   3.900  16.599  0.6866  1.7821 -0.2923
 3611TIP3   OH235027   5.632   5.079  16.620 -0.0747  0.2067 -0.2454
 3611TIP3    H135028   5.552   5.114  16.580  0.3591  1.5068 -0.0082
 3611TIP3    H235029   5.676   5.155  16.657  1.5513 -0.4050 -0.8353
 3612TIP3   OH235030   1.322   4.334  16.245  0.1286  0.3846 -0.0978
 3612TIP3    H135031   1.286   4.378  16.322 -1.0748 -0.3033 -0.2435
 3612TIP3    H235032   1.248   4.284  16.209  1.0910 -0.6164 -0.7464
 3613TIP3   OH235033   4.324   6.443  14.282 -0.3120  0.2050 -0.1152
 3613TIP3    H135034   4.275   6.450  14.200  0.6291 -2.1108 -0.9507
 3613TIP3    H235035   4.373   6.525  14.287 -2.4849  1.6040 -0.3880
 3614TIP3   OH235036   4.774   0.629  14.083 -0.7137  0.1588 -0.1550
 3614TIP3    H135037   4.698   0.688  14.086 -1.8231 -1.1746 -0.6947
 3614TIP3    H235038   4.736   0.542  14.066  0.7321 -0.9502  1.8585
 3615TIP3   OH235039   2.471   4.124  16.438  0.1446  0.2905 -0.0113
 3615TIP3    H135040   2.533   4.145  16.509  0.4816  0.3541 -0.3222
 3615TIP3    H235041   2.397   4.084  16.483  1.4152 -2.0131  0.1636
 3616TIP3   OH235042   6.236   5.599  14.787 -0.3621  0.5484  0.2762
 3616TIP3    H135043   6.256   5.522  14.841 -1.2693  0.3321  0.3210
 3616TIP3    H235044   6.316   5.651  14.790 -0.2005  0.2777  1.3963
 3617TIP3   OH235045   0.266   0.994  16.756  0.4260  0.2337  0.0990
 3617TIP3    H135046   0.254   1.064  16.821  2.3959 -0.9974  1.8934
 3617TIP3    H235047   0.315   1.036  16.685 -2.3963  1.7924 -1.0847
 3618TIP3   OH235048   4.367   0.578  15.905 -0.5566  0.3438  0.4802
 3618TIP3    H135049   4.330   0.655  15.861  0.7797 -0.2872 -1.9874
 3618TIP3    H235050   4.462   0.591  15.899 -0.3228 -1.1308  0.6671
 3619TIP3   OH235051   6.547   0.476  13.062  0.0851 -0.0439  0.1595
 3619TIP3    H135052   6.559   0.443  13.151  1.6672  0.0025 -0.0047
 3619TIP3    H235053   6.508   0.563  13.074  0.9807  0.2834  0.8643
 3620TIP3   OH235054   2.305   1.872  16.280 -0.3774  0.1664  0.2341
 3620TIP3    H135055   2.325   1.822  16.358 -0.5756 -1.4198 -0.6896
 3620TIP3    H235056   2.219   1.840  16.252  0.2740 -0.2883 -1.3647
 3621TIP3   OH235057   2.948   5.303  15.254  0.4162  0.8137  0.2717
 3621TIP3    H135058   2.989   5.389  15.260 -2.3035  2.2491 -0.2051
 3621TIP3    H235059   2.915   5.286  15.342  0.3265  0.5910  0.1954
 3622TIP3   OH235060   4.511   1.697  15.873  0.0944 -0.4841  0.1821
 3622TIP3    H135061   4.501   1.635  15.946 -0.7344 -0.1183  0.3907
 3622TIP3    H235062   4.445   1.669  15.809 -1.7215  1.3314  1.1192
 3623TIP3   OH235063   1.031   3.700  17.043  0.2783  0.1122 -0.3669
 3623TIP3    H135064   0.938   3.684  17.027  0.1708  0.1979  0.1716
 3623TIP3    H235065   1.049   3.781  16.995 -0.3258  1.0094  0.8572
 3624TIP3   OH235066   1.001   3.786  16.400  0.1757 -1.0177  0.1069
 3624TIP3    H135067   0.981   3.726  16.328 -1.7679  0.8516 -1.0546
 3624TIP3    H235068   1.009   3.730  16.477  0.8193 -2.9492 -1.2869
 3625TIP3   OH235069   5.413   2.907  14.664 -0.5766 -0.4661 -0.4765
 3625TIP3    H135070   5.508   2.892  14.660 -0.6349 -0.8464 -0.4494
 3625TIP3    H235071   5.397   2.932  14.755 -0.5871 -1.0007 -0.3283
 3626TIP3   OH235072   5.190   2.374  17.009 -0.3579 -0.1159  0.2281
 3626TIP3    H135073   5.119   2.335  16.957 -0.1211  0.9186 -0.9129
 3626TIP3    H235074   5.157   2.375  17.098  0.1414 -4.2017  0.6568
 3627TIP3   OH235075   3.891   2.104  15.719  0.3458 -0.1093 -0.6833
 3627TIP3    H135076   3.831   2.177  15.734 -0.7611 -0.7319 -1.8502
 3627TIP3    H235077   3.955   2.110  15.790 -0.8294  0.8548  0.3413
 3628TIP3   OH235078   4.796   2.320  16.603 -0.1719  0.0924 -0.2375
 3628TIP3    H135079   4.741   2.387  16.562 -1.3269 -0.4420  0.3681
 3628TIP3    H235080   4.843   2.367  16.672  1.4750  0.9108 -1.8192
 3629TIP3   OH235081   1.647   2.519  16.220 -0.0921 -0.5611 -0.1643
 3629TIP3    H135082   1.662   2.564  16.137 -2.0150  3.6298  1.4826
 3629TIP3    H235083   1.559   2.481  16.212 -1.1130  1.5161  0.4534
 3630TIP3   OH235084   1.918   2.412  15.059 -0.1891  0.3776  0.4673
 3630TIP3    H135085   1.999   2.414  15.007  0.0277  3.1431  0.7848
 3630TIP3    H235086   1.932   2.476  15.128 -2.2465  0.0938  1.2054
 3631TIP3   OH235087   2.912   4.766  15.975 -0.2192  0.4717 -0.5904
 3631TIP3    H135088   2.939   4.802  16.059  0.8192  2.6848 -1.7827
 3631TIP3    H235089   2.875   4.840  15.927 -1.7278 -0.9430 -1.7548
 3632TIP3   OH235090   5.336   1.072  13.602 -0.3398  0.6132  0.1956
 3632TIP3    H135091   5.427   1.065  13.574 -0.2090 -3.0038  1.0854
 3632TIP3    H235092   5.323   0.999  13.662 -3.8130  1.0768  0.2296
 3633TIP3   OH235093   4.693   4.113  14.665  0.3344 -0.5884 -0.2057
 3633TIP3    H135094   4.604   4.143  14.647  0.5363  0.0672 -0.1120
 3633TIP3    H235095   4.687   4.070  14.750 -0.1442 -1.6476 -0.7542
 3634TIP3   OH235096   1.809   3.406  16.258 -0.3924  0.8109  0.0705
 3634TIP3    H135097   1.883   3.354  16.227 -1.4084 -0.9374  0.4760
 3634TIP3    H235098   1.783   3.459  16.183  0.0123 -0.0248 -0.6729
 3635TIP3   OH235099   4.368   3.325  14.981 -0.4448  0.4270 -0.6234
 3635TIP3    H135100   4.311   3.312  15.056  1.1161 -0.4365  0.4733
 3635TIP3    H235101   4.443   3.267  14.998 -0.0485  0.2062 -2.8448
 3636TIP3   OH235102   3.530   4.584  14.585  0.3598 -0.2353  0.2083
 3636TIP3    H135103   3.490   4.509  14.627 -0.1885 -0.0149  0.0854
 3636TIP3    H235104   3.498   4.581  14.494  0.7605 -0.1576  0.0607
 3637TIP3   OH235105   1.690   3.899  14.647 -0.3074  0.3128 -0.7343
 3637TIP3    H135106   1.770   3.858  14.680 -1.4052 -0.1427  1.5985
 3637TIP3    H235107   1.644   3.829  14.601 -0.5243 -0.1480  0.1589
 3638TIP3   OH235108   2.390   5.699  16.417 -0.3077 -0.4218 -0.1034
 3638TIP3    H135109   2.452   5.687  16.489 -0.5230 -1.0235 -0.0180
 3638TIP3    H235110   2.378   5.794  16.412  1.1436 -0.2281 -0.5585
 3639TIP3   OH235111   2.704   2.909  16.223 -0.1199 -0.5829 -0.4447
 3639TIP3    H135112   2.635   2.938  16.282 -0.1480 -1.0107 -0.2606
 3639TIP3    H235113   2.727   2.821  16.254 -0.7621 -1.1931 -1.5918
 3640TIP3   OH235114   3.144   3.051  14.616  0.2775 -0.2958  0.3332
 3640TIP3    H135115   3.098   3.007  14.687  1.8860 -2.8419 -0.0502
 3640TIP3    H235116   3.123   2.999  14.538  0.8183  0.7109 -0.5119
 3641TIP3   OH235117   2.273   3.748  14.278 -0.3666  0.1600  0.5560
 3641TIP3    H135118   2.327   3.673  14.252 -0.0448  0.8601 -0.8909
 3641TIP3    H235119   2.275   3.746  14.374 -0.6677 -1.8788  0.5624
 3642TIP3   OH235120   2.234   6.272  16.459 -0.4138  0.0074  0.2435
 3642TIP3    H135121   2.148   6.313  16.462 -0.6325 -0.4432  2.7349
 3642TIP3    H235122   2.276   6.300  16.541  2.4868  1.5026 -1.5874
 3643TIP3   OH235123   4.186   1.856  15.767  0.6019 -0.0128  0.1317
 3643TIP3    H135124   4.099   1.818  15.781 -0.2063  1.5740 -0.4002
 3643TIP3    H235125   4.243   1.781  15.749 -0.7667 -1.0319 -0.0338
 3644TIP3   OH235126   1.786   0.424  13.604  0.1444  0.4719 -0.2211
 3644TIP3    H135127   1.848   0.449  13.673 -0.2640 -1.9026  1.1083
 3644TIP3    H235128   1.834   0.359  13.552 -0.5975 -0.0174 -0.3064
 3645TIP3   OH235129   3.619   4.943  14.994 -0.3374  0.1227  0.5905
 3645TIP3    H135130   3.621   5.005  14.921  0.0572 -0.1398  0.3788
 3645TIP3    H235131   3.601   4.858  14.953  0.0067 -0.0449  0.7875
 3646TIP3   OH235132   3.257   2.653  16.643  0.4031  0.1764  0.4655
 3646TIP3    H135133   3.308   2.730  16.669  1.5457 -0.1472 -0.7144
 3646TIP3    H235134   3.242   2.665  16.549  1.1810 -1.3338  0.1106
 3647TIP3   OH235135   6.177   3.268  15.409 -0.0310  0.5463 -0.4785
 3647TIP3    H135136   6.192   3.322  15.486  1.6028 -1.5453  0.7562
 3647TIP3    H235137   6.101   3.215  15.431  0.7081 -0.3714 -0.0940
 3648TIP3   OH235138   1.560   4.272  15.780  0.2699  0.9890 -0.2588
 3648TIP3    H135139   1.642   4.310  15.747 -0.1873  1.4476 -0.8779
 3648TIP3    H235140   1.498   4.282  15.709 -0.0742 -0.2683 -0.1597
 3649TIP3   OH235141   4.596   1.115  15.610  0.2017 -0.0853  0.3761
 3649TIP3    H135142   4.553   1.133  15.693 -1.0504 -0.7537 -0.1123
 3649TIP3    H235143   4.545   1.163  15.545  0.9821  0.1817 -0.0577
 3650TIP3   OH235144   3.941   0.435  14.495 -0.3618 -0.1723 -0.0322
 3650TIP3    H135145   4.007   0.366  14.506  0.9820  1.3913  3.4008
 3650TIP3    H235146   3.876   0.417  14.562 -0.6445  1.1501  0.0802
 3651TIP3   OH235147   2.393   4.710  16.261  0.0527 -0.1315 -0.0673
 3651TIP3    H135148   2.311   4.756  16.279  0.0457 -0.2055  0.0896
 3651TIP3    H235149   2.366   4.625  16.228  0.0278  0.7491 -2.5184
 3652TIP3   OH235150   6.509   5.007  16.014  0.2496  0.1710  0.3287
 3652TIP3    H135151   6.520   5.060  16.093  0.5441  1.2206 -0.3900
 3652TIP3    H235152   6.597   4.974  15.995  0.1013 -0.4160  0.6727
 3653TIP3   OH235153   3.099   4.144  14.468  0.2224 -0.0735 -0.1632
 3653TIP3    H135154   3.147   4.222  14.495  1.6619 -1.4016  1.3355
 3653TIP3    H235155   3.013   4.154  14.509 -0.4230  1.7127 -1.7946
 3654TIP3   OH235156   0.004   4.861  15.374 -0.5966 -0.5437 -0.1353
 3654TIP3    H135157  -0.036   4.845  15.288 -1.3357  3.2894 -0.6832
 3654TIP3    H235158  -0.036   4.942  15.404 -0.1170 -1.5942  3.7877
 3655TIP3   OH235159   6.706   0.150  14.731  0.4019  0.1786 -0.3843
 3655TIP3    H135160   6.640   0.202  14.777  1.5065  1.3845 -0.0982
 3655TIP3    H235161   6.790   0.186  14.760  1.1639 -0.0459 -2.1654
 3656TIP3   OH235162   1.229   2.663  16.239  0.6441  0.3770  0.4459
 3656TIP3    H135163   1.169   2.727  16.277  1.3683  0.9199  0.6971
 3656TIP3    H235164   1.247   2.602  16.310  1.1197  0.7483  0.6440
 3657TIP3   OH235165   2.334   4.585  14.548  0.4992  0.2905 -0.1610
 3657TIP3    H135166   2.294   4.603  14.463 -0.8727  1.1821  0.6419
 3657TIP3    H235167   2.260   4.569  14.607  1.4650 -2.1699  0.4940
 3658TIP3   OH235168   1.038   1.959  14.892  0.2348 -0.0394  0.0566
 3658TIP3    H135169   1.104   1.922  14.833 -0.5490 -1.0167 -0.2417
 3658TIP3    H235170   1.045   2.054  14.880  1.5308 -0.1311 -0.0112
 3659TIP3   OH235171   6.670   5.262  15.939  0.2535 -0.0356 -0.1295
 3659TIP3    H135172   6.698   5.314  16.014  1.3244 -0.4584 -0.2131
 3659TIP3    H235173   6.684   5.318  15.864 -2.3055  0.9829  0.0540
 3660TIP3   OH235174   2.195   3.597  14.930  0.7410  0.2120  0.0265
 3660TIP3    H135175   2.146   3.541  14.870  0.4387  1.2763 -0.7524
 3660TIP3    H235176   2.129   3.631  14.991  0.8881 -0.0990  0.3633
 3661TIP3   OH235177   6.529   5.152  16.243  0.0910 -0.3826 -0.4079
 3661TIP3    H135178   6.602   5.137  16.302  0.0222  0.6520 -0.0287
 3661TIP3    H235179   6.452   5.150  16.299  0.0096  0.4123 -0.4728
 3662TIP3   OH235180   0.325   2.875  14.864 -0.2525 -0.0255  0.5363
 3662TIP3    H135181   0.260   2.926  14.816  0.1265  0.6172  0.6907
 3662TIP3    H235182   0.397   2.863  14.801 -0.6024 -0.9212  0.2935
 3663TIP3   OH235183   5.144   6.395  15.896 -0.0994  0.4290  0.3108
 3663TIP3    H135184   5.162   6.381  15.989 -0.6208 -1.6560  0.1547
 3663TIP3    H235185   5.061   6.351  15.881  0.2152  0.3163 -1.2430
 3664TIP3   OH235186   5.391   4.199  15.332 -0.5692 -0.0770 -0.2644
 3664TIP3    H135187   5.389   4.182  15.426  2.7093  0.4124 -0.0034
 3664TIP3    H235188   5.299   4.201  15.306 -1.5827  0.0534  2.9522
 3665TIP3   OH235189   3.622   0.882  15.873 -0.3858 -0.2321 -0.3045
 3665TIP3    H135190   3.558   0.929  15.926 -0.2722 -2.0075  1.5551
 3665TIP3    H235191   3.707   0.915  15.903 -0.3630  0.1948 -0.8337
 3666TIP3   OH235192   2.180   1.486  14.374  0.0278 -0.2391  0.0378
 3666TIP3    H135193   2.144   1.555  14.318 -1.6050 -1.3251 -0.3189
 3666TIP3    H235194   2.149   1.508  14.462  0.4740  0.1009  0.1111
 3667TIP3   OH235195   1.887   2.816  15.513  0.3654  0.1285  0.0705
 3667TIP3    H135196   1.842   2.733  15.527  0.8664  0.0068  1.0734
 3667TIP3    H235197   1.980   2.794  15.519  0.5532  0.5181 -1.1317
 3668TIP3   OH235198   4.174   4.204  16.892 -0.2563  0.0644 -0.3962
 3668TIP3    H135199   4.109   4.134  16.889  0.0513 -0.2857  0.8457
 3668TIP3    H235200   4.221   4.191  16.974  0.9391  0.7257 -0.9501
 3669TIP3   OH235201   5.615   5.557  15.516 -0.2155  0.2005 -0.1016
 3669TIP3    H135202   5.608   5.462  15.515  0.2200  0.0944  2.2466
 3669TIP3    H235203   5.696   5.576  15.468  0.4049 -0.7180  0.5571
 3670TIP3   OH235204   5.648   2.749  14.867  0.0336 -0.0931 -0.1681
 3670TIP3    H135205   5.738   2.724  14.844 -0.0912 -1.0598  0.3626
 3670TIP3    H235206   5.651   2.764  14.961 -0.5322 -0.8853 -0.0204
 3671TIP3   OH235207   4.319   2.152  13.699 -0.3171 -0.5006 -0.2288
 3671TIP3    H135208   4.331   2.226  13.639  0.0246 -0.9378 -0.7119
 3671TIP3    H235209   4.408   2.124  13.722 -0.4317 -1.1305 -0.5233
 3672TIP3   OH235210   1.739   0.643  16.630  0.4053  0.0705  0.2832
 3672TIP3    H135211   1.756   0.621  16.539 -0.8372  0.5460 -0.0825
 3672TIP3    H235212   1.757   0.737  16.636 -0.4955  0.2531  0.2642
 3673TIP3   OH235213   6.743   6.746  16.333 -0.1026 -0.0107 -0.1352
 3673TIP3    H135214   6.800   6.740  16.410 -1.2527 -0.3657  0.7286
 3673TIP3    H235215   6.745   6.839  16.309  0.8193 -0.0185 -0.1207
 3674TIP3   OH235216   0.210   5.769  16.372 -0.0198  0.2268  0.4394
 3674TIP3    H135217   0.154   5.707  16.326  0.8448  0.7745 -1.4277
 3674TIP3    H235218   0.258   5.814  16.303  0.5973  1.8101  1.8357
 3675TIP3   OH235219   3.465   3.764  15.324  0.0788  0.2850  0.6773
 3675TIP3    H135220   3.462   3.708  15.246  3.2902 -0.0888  0.7120
 3675TIP3    H235221   3.482   3.852  15.289  0.8724  0.2256  0.9019
 3676TIP3   OH235222   1.769   6.305  15.241  0.1838 -0.1985 -0.0095
 3676TIP3    H135223   1.817   6.386  15.256 -0.9717  0.7605 -1.2511
 3676TIP3    H235224   1.837   6.237  15.236  1.2288  0.8082  0.1629
 3677TIP3   OH235225   6.546   3.905  14.644 -0.0902 -0.6108  0.2300
 3677TIP3    H135226   6.470   3.862  14.682 -0.1367 -0.6974  0.0375
 3677TIP3    H235227   6.604   3.921  14.719 -0.0017 -1.1510  0.2843
 3678TIP3   OH235228   2.615   1.836  15.542  0.5030  0.0577  0.2312
 3678TIP3    H135229   2.637   1.902  15.477  1.2609 -0.2205  0.1983
 3678TIP3    H235230   2.550   1.781  15.499 -0.1366  0.7783  0.2627
 3679TIP3   OH235231   2.434   0.794  14.483  0.0377 -0.4170  0.5948
 3679TIP3    H135232   2.513   0.761  14.526 -1.6583  0.0326  4.5549
 3679TIP3    H235233   2.380   0.716  14.469  1.1241 -0.7552 -2.3203
 3680TIP3   OH235234   1.884   6.274  14.936  0.0011 -0.1408 -0.0314
 3680TIP3    H135235   1.934   6.253  15.016 -1.9166  0.5290  1.4286
 3680TIP3    H235236   1.894   6.368  14.926 -0.1283 -0.1581 -0.3346
 3681TIP3   OH235237   4.540   6.543  16.892 -0.2699  0.5302  0.8058
 3681TIP3    H135238   4.487   6.464  16.901  0.3659  0.1782  1.5446
 3681TIP3    H235239   4.525   6.591  16.973  0.3726  0.5239  0.9338
 3682TIP3   OH235240   5.893   1.670  15.423  0.2087  0.4890  0.0108
 3682TIP3    H135241   5.869   1.608  15.492 -1.9493  1.2821  0.0564
 3682TIP3    H235242   5.816   1.671  15.365  2.2117 -0.7300 -2.9066
 3683TIP3   OH235243   2.720   0.882  16.902  0.4818 -0.1991  0.3837
 3683TIP3    H135244   2.737   0.962  16.854  0.3603  0.2685  1.1105
 3683TIP3    H235245   2.785   0.820  16.870  0.1065 -0.0519 -0.7259
 3684TIP3   OH235246   4.376   5.049  14.687  0.0529 -0.3000 -0.2648
 3684TIP3    H135247   4.453   4.993  14.698  0.0507 -0.5443 -1.3694
 3684TIP3    H235248   4.308   4.990  14.656 -0.4668 -0.0009  0.2910
 3685TIP3   OH235249   6.061   0.823  16.255  0.1598  0.2314  0.7746
 3685TIP3    H135250   5.965   0.820  16.253  0.0996  1.4635  0.5721
 3685TIP3    H235251   6.083   0.823  16.348 -0.3380  4.6041  1.1035
 3686TIP3   OH235252   2.079   6.457  16.924  0.1632  1.1200  0.5332
 3686TIP3    H135253   1.994   6.433  16.960 -0.7238  3.2948  0.0483
 3686TIP3    H235254   2.073   6.435  16.831  1.2371 -1.3918  0.9917
 3687TIP3   OH235255   6.020   0.640  14.145  0.0968 -0.1164 -0.0364
 3687TIP3    H135256   6.101   0.691  14.142  0.4699 -0.6937  0.1256
 3687TIP3    H235257   6.004   0.615  14.054 -0.0159  0.1725 -0.0977
 3688TIP3   OH235258   2.001   0.983  14.090 -0.0130 -0.1017 -0.3903
 3688TIP3    H135259   1.907   0.992  14.076  0.0050 -0.4193 -0.7398
 3688TIP3    H235260   2.031   1.071  14.111 -0.5127 -0.1418  0.4932
 3689TIP3   OH235261   3.779   0.094  15.623  0.3691 -0.3197 -0.3074
 3689TIP3    H135262   3.828   0.174  15.607  0.7863 -0.4394  0.3659
 3689TIP3    H235263   3.762   0.059  15.535 -1.0673  1.2347 -0.7015
 3690TIP3   OH235264   5.169   3.710  16.821  0.5470  0.4488 -0.2943
 3690TIP3    H135265   5.224   3.758  16.760 -0.9328  2.0432 -0.4612
 3690TIP3    H235266   5.079   3.733  16.796 -0.1614 -0.6858  1.0365
 3691TIP3   OH235267   3.479   5.751  14.565  0.3499  0.3932 -0.6265
 3691TIP3    H135268   3.398   5.723  14.608  0.4190  2.7224  1.2174
 3691TIP3    H235269   3.450   5.798  14.487  0.1076 -1.3785 -1.6559
 3692TIP3   OH235270   4.751   6.204  14.576  0.1498 -0.0618 -0.2421
 3692TIP3    H135271   4.731   6.114  14.604  1.5591 -0.2901  0.1222
 3692TIP3    H235272   4.837   6.197  14.535  0.5688  1.2376  0.3713
 3693TIP3   OH235273   0.106   4.297  16.291 -0.0958  0.0825  0.1333
 3693TIP3    H135274   0.053   4.230  16.332  1.7231 -0.9314  0.9387
 3693TIP3    H235275   0.083   4.378  16.337 -0.9805 -0.3157  0.4028
 3694TIP3   OH235276   5.057   6.659  15.987  0.4398 -0.2212  0.2166
 3694TIP3    H135277   5.111   6.588  15.952  0.3741  1.1902 -3.0419
 3694TIP3    H235278   4.968   6.636  15.962  0.5096  1.3387 -1.6684
 3695TIP3   OH235279   3.228   6.284  15.729 -0.8832  0.2864  0.0354
 3695TIP3    H135280   3.152   6.341  15.736 -0.6637  0.5992 -0.0979
 3695TIP3    H235281   3.196   6.206  15.684 -1.2694  0.1446  0.5518
 3696TIP3   OH235282   0.621   5.974  14.804  0.1701  0.2931 -0.8289
 3696TIP3    H135283   0.558   5.924  14.856  0.9624  0.4608  0.3418
 3696TIP3    H235284   0.690   5.911  14.783 -0.4922  0.0329 -2.3576
 3697TIP3   OH235285   5.634   3.330  14.892  0.9157 -0.5224  0.2433
 3697TIP3    H135286   5.588   3.411  14.871 -0.4370 -1.0584  0.9984
 3697TIP3    H235287   5.727   3.353  14.889  0.5649  0.8920 -0.1610
 3698TIP3   OH235288   3.032   1.045  14.184 -0.0556  0.5989  0.4569
 3698TIP3    H135289   2.949   1.004  14.208 -0.5104  0.7226 -0.7850
 3698TIP3    H235290   3.086   0.973  14.151  0.0229  0.6466  0.4803
 3699TIP3   OH235291   4.354   3.413  14.108 -0.4327 -0.1405 -0.2419
 3699TIP3    H135292   4.260   3.413  14.088 -0.4846 -0.6345  0.0035
 3699TIP3    H235293   4.376   3.506  14.116 -0.2041  0.2019 -3.4928
 3700TIP3   OH235294   5.845   4.902  15.831  0.0491  0.1557 -0.1749
 3700TIP3    H135295   5.823   4.985  15.790  1.4715 -0.0794 -1.5413
 3700TIP3    H235296   5.940   4.905  15.841 -0.0876 -0.5006  1.6203
 3701TIP3   OH235297   6.706   4.647  15.568 -0.3674 -0.4136 -0.1430
 3701TIP3    H135298   6.677   4.661  15.658 -2.8590  0.1809 -0.9492
 3701TIP3    H235299   6.740   4.732  15.539  0.4237 -0.6023  0.2077
 3702TIP3   OH235300   3.084   0.363  15.276 -0.2354 -0.3829 -0.1399
 3702TIP3    H135301   3.061   0.456  15.277  2.0117  0.2473  1.0773
 3702TIP3    H235302   3.019   0.323  15.219 -1.6065  1.8357 -0.2756
 3703TIP3   OH235303   3.620   4.205  14.600  0.6933 -0.1739  0.4550
 3703TIP3    H135304   3.540   4.230  14.647 -0.2967 -2.0775 -0.0964
 3703TIP3    H235305   3.589   4.169  14.517  2.1873 -0.2023 -0.1213
 3704TIP3   OH235306   6.230   1.420  14.139  0.2863 -0.3659  0.0277
 3704TIP3    H135307   6.153   1.476  14.126  0.5075  0.4417  1.9020
 3704TIP3    H235308   6.220   1.350  14.074 -1.0559  0.7309 -1.0042
 3705TIP3   OH235309   1.926   6.447  16.098  0.1738  0.1753  0.1783
 3705TIP3    H135310   1.978   6.523  16.124  0.1560 -0.4033  2.0110
 3705TIP3    H235311   1.837   6.467  16.128 -0.1248  0.0140 -0.5717
 3706TIP3   OH235312   0.416   4.367  13.694  0.0476  0.1772  0.0374
 3706TIP3    H135313   0.374   4.390  13.611  0.2002  0.5851  0.0724
 3706TIP3    H235314   0.356   4.400  13.761 -0.1158 -0.2245  0.0935
 3707TIP3   OH235315   2.612   5.484  15.401 -0.0927 -0.0580  0.2362
 3707TIP3    H135316   2.552   5.540  15.351 -0.1190  0.0849  0.4285
 3707TIP3    H235317   2.614   5.522  15.489 -1.0928 -1.0922  0.7309
 3708TIP3   OH235318   6.479   1.483  15.526 -0.3576 -0.3235  0.1147
 3708TIP3    H135319   6.413   1.511  15.589 -1.0201 -1.9874  0.2082
 3708TIP3    H235320   6.491   1.559  15.468  0.4042  1.3245  2.2841
 3709TIP3   OH235321   5.568   5.697  15.937  0.2364  0.2094 -0.1805
 3709TIP3    H135322   5.537   5.630  15.998  3.1968 -1.2187 -0.0539
 3709TIP3    H235323   5.570   5.778  15.988  0.8963 -0.5823  1.0870
 3710TIP3   OH235324   3.947   5.568  14.144  0.3298  0.1468  0.0623
 3710TIP3    H135325   3.983   5.480  14.157  0.5311  0.2450  0.1654
 3710TIP3    H235326   4.020   5.627  14.160 -0.1647  0.4072  1.4871
 3711TIP3   OH235327   4.764   4.136  15.826 -0.4402  0.1229  0.0928
 3711TIP3    H135328   4.709   4.184  15.764  0.3578  1.6921  0.5532
 3711TIP3    H235329   4.703   4.104  15.892 -1.0513  0.0504 -0.4854
 3712TIP3   OH235330   6.415   0.901  12.604 -0.6041  0.2566  0.0529
 3712TIP3    H135331   6.392   0.818  12.563  1.2381  0.8142 -2.3671
 3712TIP3    H235332   6.468   0.877  12.680  0.9156 -0.8635 -1.2741
 3713TIP3   OH235333   1.188   1.100  16.272  0.6835 -0.4688 -0.4201
 3713TIP3    H135334   1.263   1.097  16.331  1.0771  0.7767 -0.8395
 3713TIP3    H235335   1.222   1.134  16.190  0.0131 -1.6141 -1.1949
 3714TIP3   OH235336   2.291   4.480  13.983 -0.2106 -0.3514 -0.4940
 3714TIP3    H135337   2.329   4.556  13.938  0.8077 -0.8292 -0.4638
 3714TIP3    H235338   2.344   4.470  14.062  0.4588 -1.8259 -1.1039
 3715TIP3   OH235339   2.696   1.009  13.431  0.3802 -0.5016 -0.3128
 3715TIP3    H135340   2.769   1.018  13.370  1.3464  0.9489  0.9791
 3715TIP3    H235341   2.618   1.029  13.378  0.8223 -2.4832 -1.8079
 3716TIP3   OH235342   1.248   1.003  15.904  0.7773  0.1039 -0.1363
 3716TIP3    H135343   1.297   0.944  15.847  0.3651 -0.2881 -0.0923
 3716TIP3    H235344   1.168   0.955  15.925  0.2720  0.8095 -0.3770
 3717TIP3   OH235345   0.030   0.800  13.940 -0.2281 -0.3531 -0.5708
 3717TIP3    H135346   0.098   0.863  13.962  1.3988 -1.9660 -0.7632
 3717TIP3    H235347   0.056   0.719  13.984 -1.3613 -1.3577 -1.6489
 3718TIP3   OH235348   4.838   0.622  16.314 -0.2155 -0.1061  0.1539
 3718TIP3    H135349   4.901   0.553  16.331 -0.2371 -0.0480  0.4822
 3718TIP3    H235350   4.754   0.586  16.340 -0.4678 -0.5164 -1.1445
 3719TIP3   OH235351   0.816   4.051  16.110 -0.0873 -0.3092  0.3861
 3719TIP3    H135352   0.766   4.079  16.034  0.4653  0.9947  0.4776
 3719TIP3    H235353   0.896   4.012  16.074  0.3555  0.6648  0.2904
 3720TIP3   OH235354   5.507   5.968  14.186 -0.2646 -0.3209  0.2237
 3720TIP3    H135355   5.414   5.947  14.195 -0.2649 -0.3724  0.1065
 3720TIP3    H235356   5.515   6.056  14.222 -0.5235  0.0403 -0.5710
 3721TIP3   OH235357   1.412   3.858  15.022  0.0514 -0.0265 -0.2893
 3721TIP3    H135358   1.450   3.852  15.110  0.0757 -0.3423 -0.3199
 3721TIP3    H235359   1.362   3.939  15.023  0.1945  0.0599 -0.0376
 3722TIP3   OH235360   4.564   1.290  13.313 -0.5660 -0.0782 -0.1254
 3722TIP3    H135361   4.589   1.200  13.293 -3.7667 -0.8043 -1.3330
 3722TIP3    H235362   4.532   1.286  13.403  0.1381  0.0889  0.1427
 3723TIP3   OH235363   4.146   1.808  16.391  0.1762 -0.3993 -0.2630
 3723TIP3    H135364   4.130   1.846  16.478  0.9405 -1.1022  0.1994
 3723TIP3    H235365   4.242   1.803  16.385  0.0990 -1.4423 -0.6643
 3724TIP3   OH235366   6.332   1.414  14.786 -0.4531 -0.0766 -0.0535
 3724TIP3    H135367   6.290   1.361  14.853 -0.5788 -1.5526 -1.2564
 3724TIP3    H235368   6.315   1.505  14.813 -3.6487 -0.5849 -0.0300
 3725TIP3   OH235369   4.689   0.344  15.293 -0.7210 -0.1832 -0.0354
 3725TIP3    H135370   4.673   0.274  15.356 -0.4191 -0.4316 -0.2278
 3725TIP3    H235371   4.785   0.354  15.292 -0.8124  0.9841  0.7986
 3726TIP3   OH235372   1.693   2.494  14.267  0.3093  0.4946  0.3248
 3726TIP3    H135373   1.780   2.463  14.293  0.3884  0.8316  0.4752
 3726TIP3    H235374   1.664   2.433  14.199 -0.0949 -0.6767  1.5167
 3727TIP3   OH235375   2.128   3.011  15.376 -0.3240  0.5429 -0.1462
 3727TIP3    H135376   2.055   3.031  15.318 -0.1195 -1.1247 -1.0335
 3727TIP3    H235377   2.205   3.046  15.331 -0.1511 -0.8451 -0.9880
 3728TIP3   OH235378   2.124   0.308  15.283 -0.6832 -0.4171  0.4479
 3728TIP3    H135379   2.205   0.280  15.240 -0.3856  1.2953 -0.2055
 3728TIP3    H235380   2.127   0.404  15.280 -2.3890 -0.3016  1.0703
 3729TIP3   OH235381   1.556   1.352  16.236 -0.2335 -0.0117  0.1219
 3729TIP3    H135382   1.603   1.381  16.314 -0.7993 -0.9556  0.8388
 3729TIP3    H235383   1.492   1.421  16.219 -2.1225 -1.1107  2.2829
 3730TIP3   OH235384   2.409   0.905  13.400  0.0900  0.1153 -0.0172
 3730TIP3    H135385   2.366   0.950  13.472 -3.0761  1.2488 -2.3961
 3730TIP3    H235386   2.418   0.814  13.430 -1.5750  0.4371  1.6232
 3731TIP3   OH235387   3.336   0.593  16.508  0.3835 -0.2022  0.0513
 3731TIP3    H135388   3.361   0.514  16.555  1.3459 -0.4919 -0.9052
 3731TIP3    H235389   3.410   0.611  16.450  0.1008  1.2874  0.1016
 3732TIP3   OH235390   6.458   3.669  15.067 -0.0924 -0.1559 -0.1544
 3732TIP3    H135391   6.412   3.603  15.118  0.6445 -1.1436 -0.7298
 3732TIP3    H235392   6.391   3.709  15.012 -0.4740 -0.6936 -0.0789
 3733TIP3   OH235393   0.152   5.782  15.698 -0.4050 -0.1839  0.3625
 3733TIP3    H135394   0.176   5.869  15.667  1.2355 -1.2221 -1.5652
 3733TIP3    H235395   0.192   5.722  15.634  0.7031 -2.4473  2.9640
 3734TIP3   OH235396   1.515   5.757  15.201  0.6571  0.6279 -0.1533
 3734TIP3    H135397   1.510   5.679  15.146  2.7765 -0.3965  0.9629
 3734TIP3    H235398   1.584   5.811  15.161  1.5790  0.2978  0.9466
 3735TIP3   OH235399   0.956   4.625  16.521  0.2066 -0.0281 -0.6421
 3735TIP3    H135400   0.861   4.636  16.509  0.2797 -0.0667 -1.2935
 3735TIP3    H235401   0.986   4.710  16.552 -0.4839 -0.8620  2.6063
 3736TIP3   OH235402   2.404   1.513  15.063  0.3174 -0.3934 -0.0383
 3736TIP3    H135403   2.432   1.427  15.097  0.1133 -0.8057 -0.8949
 3736TIP3    H235404   2.400   1.501  14.968 -0.5758  0.3198 -0.0962
 3737TIP3   OH235405   5.156   6.146  14.098 -0.0136  0.1501  0.2114
 3737TIP3    H135406   5.224   6.196  14.054 -1.7658  0.5126 -2.3013
 3737TIP3    H235407   5.198   6.063  14.121  1.9582  1.3659  1.2294
 3738TIP3   OH235408   1.900   2.358  15.834 -0.3555 -0.5730 -0.3850
 3738TIP3    H135409   1.944   2.431  15.790 -0.2676 -0.1618  0.3600
 3738TIP3    H235410   1.841   2.322  15.768 -0.1122 -0.0726 -0.8862
 3739TIP3   OH235411   6.600   4.147  14.843 -0.3140  0.6876 -0.1487
 3739TIP3    H135412   6.601   4.233  14.801 -0.1003  1.1137  0.7040
 3739TIP3    H235413   6.678   4.147  14.899  0.2077 -0.4256 -0.8492
 3740TIP3   OH235414   6.033   5.607  14.016  0.0172  0.1870  0.2399
 3740TIP3    H135415   6.024   5.702  14.017  1.6357  0.3537  0.3451
 3740TIP3    H235416   5.965   5.578  13.955  2.3388  1.7852 -3.4295
 3741TIP3   OH235417   3.141   6.043  14.119  0.0988 -0.1539  0.2572
 3741TIP3    H135418   3.071   6.069  14.058 -0.5682 -0.6529  0.8059
 3741TIP3    H235419   3.157   5.951  14.099  0.1724 -0.2041  0.5499
 3742TIP3   OH235420   5.205   1.198  14.704 -0.1156  0.3607 -0.0947
 3742TIP3    H135421   5.262   1.171  14.632  0.3662 -1.1671  0.8226
 3742TIP3    H235422   5.255   1.266  14.749 -0.0309  0.6832 -0.6661
 3743TIP3   OH235423   6.417   3.977  16.836  0.0895  0.3760  0.0792
 3743TIP3    H135424   6.396   3.889  16.868 -1.2780  1.1337  1.4503
 3743TIP3    H235425   6.512   3.979  16.830  0.1052 -1.6049 -1.3125
 3744TIP3   OH235426   0.989   6.471  15.550 -0.2912 -0.1965 -0.1313
 3744TIP3    H135427   0.988   6.382  15.512 -0.4322 -0.9250  1.4926
 3744TIP3    H235428   1.072   6.509  15.520 -1.3037  0.0889 -2.8740
 3745TIP3   OH235429   0.873   6.191  14.399  0.7225  0.4157 -0.8640
 3745TIP3    H135430   0.915   6.186  14.485  1.8987  1.0777 -1.3712
 3745TIP3    H235431   0.780   6.199  14.418  0.9303  0.1304  0.3393
 3746TIP3   OH235432   4.649   2.571  16.921  0.3486  0.0240  0.1652
 3746TIP3    H135433   4.638   2.641  16.986  0.7437  0.7799 -0.5559
 3746TIP3    H235434   4.566   2.570  16.873  0.9106  1.1407 -0.8895
 3747TIP3   OH235435   0.182   5.929  14.956  0.0100  0.4848  0.7714
 3747TIP3    H135436   0.124   5.954  15.028  1.1987  0.1002  1.8932
 3747TIP3    H235437   0.122   5.894  14.889 -1.2840  2.4989  0.7911
 3748TIP3   OH235438   5.165   1.818  16.295  0.4934  0.0123  0.0118
 3748TIP3    H135439   5.127   1.894  16.339 -1.7272 -1.0856  0.1169
 3748TIP3    H235440   5.187   1.850  16.207 -0.4240  0.7964  0.0543
 3749TIP3   OH235441   4.978   3.900  14.768  0.2751  0.5212  0.0657
 3749TIP3    H135442   4.926   3.826  14.800  0.8115 -0.7262 -1.7898
 3749TIP3    H235443   5.012   3.941  14.847 -1.3837 -0.2007  1.2205
 3750TIP3   OH235444   1.104   5.549  17.275 -0.1869  0.0384 -0.2995
 3750TIP3    H135445   1.191   5.509  17.272  0.1730  0.8502 -2.5160
 3750TIP3    H235446   1.059   5.511  17.199 -0.1904  2.9096 -1.8550
 3751TIP3   OH235447   3.065   6.377  16.786 -0.5978 -0.3098  0.3326
 3751TIP3    H135448   3.018   6.360  16.704 -0.4328 -0.1829  0.2116
 3751TIP3    H235449   3.080   6.472  16.786 -0.8616 -0.2675  0.6538
 3752TIP3   OH235450   3.176   0.181  13.182  0.1339 -0.1269  0.1498
 3752TIP3    H135451   3.162   0.270  13.215 -0.2504  0.1318 -0.6808
 3752TIP3    H235452   3.090   0.154  13.149 -0.0377 -1.2595  1.4273
 3753TIP3   OH235453   1.394   3.653  15.686  0.0634 -0.4147  0.1563
 3753TIP3    H135454   1.461   3.586  15.676  1.1844  0.7815 -0.6637
 3753TIP3    H235455   1.416   3.719  15.619 -1.4139  0.4201  0.4599
 3754TIP3   OH235456   0.267   1.403  16.560  0.2227  0.5865  0.2839
 3754TIP3    H135457   0.204   1.332  16.569  0.6389  0.0032 -1.1064
 3754TIP3    H235458   0.315   1.403  16.642  0.7117 -1.2474  0.0433
 3755TIP3   OH235459   1.038   2.292  14.512 -0.3840  0.7361  0.6083
 3755TIP3    H135460   0.961   2.271  14.460 -0.0468  0.5914  0.1567
 3755TIP3    H235461   1.003   2.319  14.598 -0.8838 -0.5081  0.8175
 3756TIP3   OH235462   2.203   3.799  16.944  0.5750  0.2380  0.3075
 3756TIP3    H135463   2.180   3.721  16.995 -0.4908  0.7312  0.6011
 3756TIP3    H235464   2.121   3.827  16.903  0.9928  1.0735  0.0095
 3757TIP3   OH235465   4.511   6.134  16.151  0.1652 -0.2068 -0.3889
 3757TIP3    H135466   4.566   6.058  16.172 -0.1444 -0.6226 -1.0649
 3757TIP3    H235467   4.432   6.096  16.113 -1.7244  0.1698  2.7431
 3758TIP3   OH235468   0.126   5.978  15.383  0.1050 -0.1838  0.2101
 3758TIP3    H135469   0.031   5.991  15.389  0.2767  1.3240 -0.1554
 3758TIP3    H235470   0.162   6.031  15.453  0.8250  1.2813 -1.2138
 3759TIP3   OH235471   5.010   4.121  13.888  0.5753 -0.4294 -0.5419
 3759TIP3    H135472   4.955   4.069  13.830  1.8576  0.4402 -2.6521
 3759TIP3    H235473   4.968   4.207  13.890  0.6271 -0.4090 -0.2937
 3760TIP3   OH235474   3.557   1.888  15.348 -0.5448  0.0715  0.4684
 3760TIP3    H135475   3.545   1.981  15.329 -1.3527 -0.0859  0.1572
 3760TIP3    H235476   3.632   1.886  15.407  0.2933  0.7984 -0.5322
 3761TIP3   OH235477   1.814   0.671  13.149 -0.1386  0.2602 -0.2544
 3761TIP3    H135478   1.875   0.699  13.080 -0.1065  0.5740 -0.1017
 3761TIP3    H235479   1.783   0.585  13.120  0.2324  0.1817 -0.4269
 3762TIP3   OH235480   4.015   6.608  13.702  0.0449 -0.1718 -0.3909
 3762TIP3    H135481   3.963   6.600  13.622 -0.1718  2.5781 -0.6201
 3762TIP3    H235482   4.003   6.524  13.747 -1.1748 -1.1588 -2.4289
 3763TIP3   OH235483   6.506   5.699  16.941  0.2262 -0.1615 -0.4895
 3763TIP3    H135484   6.416   5.675  16.920  0.3101 -1.4401  0.4822
 3763TIP3    H235485   6.503   5.794  16.954 -0.5670  0.1129 -2.3623
 3764TIP3   OH235486   1.010   0.023  16.221 -0.1558  0.4611  0.1044
 3764TIP3    H135487   0.941  -0.005  16.281 -0.7896  2.9664  0.6469
 3764TIP3    H235488   1.024  -0.052  16.164 -1.6944 -0.9224  1.4468
 3765TIP3   OH235489   0.936   1.394  15.346  0.0676  0.6824  0.0429
 3765TIP3    H135490   1.025   1.401  15.380  1.2067 -1.5024 -2.2209
 3765TIP3    H235491   0.918   1.300  15.341 -2.0671  1.0462 -0.3623
 3766TIP3   OH235492   5.306   2.286  14.713  0.5133  0.2676  0.2283
 3766TIP3    H135493   5.250   2.231  14.768  0.9086 -0.0885  0.2753
 3766TIP3    H235494   5.346   2.225  14.651  1.5484  0.3741  0.7617
 3767TIP3   OH235495   4.559   0.486  15.515 -0.3220 -0.2752 -0.3005
 3767TIP3    H135496   4.587   0.417  15.455 -0.4107 -0.2780 -0.3386
 3767TIP3    H235497   4.478   0.520  15.477  0.3915  0.7356 -0.9889
 3768TIP3   OH235498   3.650   6.146  14.576  0.1268 -0.2593  0.0656
 3768TIP3    H135499   3.577   6.086  14.592 -0.2028  0.1880  0.2554
 3768TIP3    H235500   3.727   6.089  14.572 -0.4016 -0.9325 -1.6152
 3769TIP3   OH235501   2.985   6.293  15.247  0.4159 -0.4545 -0.2539
 3769TIP3    H135502   2.945   6.273  15.162  0.4724 -0.2528 -0.3303
 3769TIP3    H235503   3.057   6.352  15.225  1.3487 -1.5522 -0.2186
 3770TIP3   OH235504   2.571   2.550  15.790  0.0965 -0.5029 -0.1440
 3770TIP3    H135505   2.551   2.580  15.701 -0.9608 -0.1439  0.2093
 3770TIP3    H235506   2.496   2.498  15.816  0.1506 -0.1539  0.7486
 3771TIP3   OH235507   0.636   6.530  16.023 -0.0167  0.3254 -0.1832
 3771TIP3    H135508   0.623   6.435  16.013  0.5625  0.1427  0.6820
 3771TIP3    H235509   0.619   6.546  16.116  0.1134  1.0418 -0.2822
 3772TIP3   OH235510   2.820   1.935  14.476  0.3959  0.5280  0.0883
 3772TIP3    H135511   2.794   1.913  14.566 -1.9646 -0.7866 -0.8087
 3772TIP3    H235512   2.737   1.954  14.432  1.3726 -0.0154 -2.1048
 3773TIP3   OH235513   3.347   5.819  16.727  0.1019 -0.2271 -0.2642
 3773TIP3    H135514   3.442   5.808  16.725  0.0743 -1.2698  1.6664
 3773TIP3    H235515   3.332   5.910  16.700  1.5932 -0.1936 -1.0439
 3774TIP3   OH235516   6.134   0.394  14.701 -0.3604  0.1069  0.4080
 3774TIP3    H135517   6.193   0.319  14.709  0.2756  0.3443 -1.6641
 3774TIP3    H235518   6.069   0.367  14.636 -0.4327  1.1693  0.0200
 3775TIP3   OH235519   2.521   2.766  15.040 -0.2854 -0.5177  0.8472
 3775TIP3    H135520   2.548   2.856  15.020 -0.6856 -0.4224  0.7236
 3775TIP3    H235521   2.505   2.727  14.954  0.3789 -0.8692  0.8732
 3776TIP3   OH235522   4.153   6.733  17.007  0.7516  0.4169  0.1619
 3776TIP3    H135523   4.177   6.800  17.071  0.9202  0.3670  0.1531
 3776TIP3    H235524   4.170   6.650  17.053 -1.7028  0.3207  1.0567
 3777TIP3   OH235525   3.404   6.034  14.242 -0.2994  0.1883  0.1714
 3777TIP3    H135526   3.413   5.943  14.270 -0.0761  0.2687  0.3579
 3777TIP3    H235527   3.333   6.032  14.178  0.8172 -0.3806 -1.0904
 3778TIP3   OH235528   3.875   1.879  13.700  0.5772  0.5679  0.0246
 3778TIP3    H135529   3.904   1.959  13.744  2.1089  0.3944 -0.5798
 3778TIP3    H235530   3.956   1.839  13.668 -0.0358 -1.7821  1.2082
 3779TIP3   OH235531   2.841   6.127  15.782 -0.4960  0.6278  0.5054
 3779TIP3    H135532   2.840   6.062  15.712  2.2738 -0.0172  0.9510
 3779TIP3    H235533   2.884   6.084  15.855 -1.2983  2.0294  1.8844
 3780TIP3   OH235534   3.769   2.475  14.216  0.1543 -1.2928  0.2203
 3780TIP3    H135535   3.791   2.568  14.225 -1.5378 -0.9274  0.9652
 3780TIP3    H235536   3.757   2.463  14.122  0.2373 -0.7346  0.1320
 3781TIP3   OH235537   0.866   0.205  14.546  0.3405 -0.1706 -0.0305
 3781TIP3    H135538   0.914   0.245  14.619 -0.0457  1.2999 -0.5408
 3781TIP3    H235539   0.934   0.173  14.487  0.6680 -0.0364  0.2722
 3782TIP3   OH235540   5.055   5.955  16.661 -0.2117  0.2089 -0.0283
 3782TIP3    H135541   5.069   6.020  16.730 -1.3543 -0.2069  0.6264
 3782TIP3    H235542   4.987   5.897  16.696 -0.6749 -0.1344 -1.4160
 3783TIP3   OH235543   1.871   1.690  15.537  0.4609 -0.3695  0.0949
 3783TIP3    H135544   1.867   1.659  15.447 -0.1433  0.0863 -0.0380
 3783TIP3    H235545   1.785   1.727  15.554  0.3756 -0.9829  1.0583
 3784TIP3   OH235546   3.839   3.783  16.577 -0.3032 -0.7301 -0.1828
 3784TIP3    H135547   3.768   3.790  16.641 -0.4106 -1.0431 -0.2658
 3784TIP3    H235548   3.824   3.855  16.516 -1.0552 -1.2978 -0.6964
 3785TIP3   OH235549   5.767   3.813  15.632 -0.0754  0.0243 -0.5230
 3785TIP3    H135550   5.851   3.855  15.619 -0.4029  1.3658  1.2678
 3785TIP3    H235551   5.789   3.727  15.669  0.5689  1.1878  2.0588
 3786TIP3   OH235552   5.095   0.276  16.264  0.0395  0.1727 -0.0956
 3786TIP3    H135553   5.103   0.235  16.178 -1.4474  1.0263 -0.6895
 3786TIP3    H235554   5.183   0.308  16.284  0.3296  0.3025 -1.4907
 3787TIP3   OH235555   1.878   4.888  17.048  0.0969  0.1928 -0.1192
 3787TIP3    H135556   1.912   4.978  17.041 -0.5180  0.2928 -2.1733
 3787TIP3    H235557   1.784   4.899  17.062 -0.2561 -0.1117 -2.0997
 3788TIP3   OH235558   3.018   2.052  15.901  0.1740 -0.3776 -0.1552
 3788TIP3    H135559   3.003   1.972  15.953  2.9952 -1.5545 -0.9244
 3788TIP3    H235560   3.100   2.088  15.937  0.8847  0.1207 -2.1587
 3789TIP3   OH235561   5.957   2.974  16.344 -0.7695  0.1457  0.3601
 3789TIP3    H135562   5.968   2.990  16.438 -0.2496  2.0757  0.0232
 3789TIP3    H235563   6.031   2.918  16.320 -1.3447 -1.0232  1.2159
 3790TIP3   OH235564   2.496   1.923  15.788 -0.1208 -0.3211  0.0868
 3790TIP3    H135565   2.440   1.876  15.850  1.6865  0.1059  2.1611
 3790TIP3    H235566   2.538   1.854  15.737  0.3194 -0.8647  1.1378
 3791TIP3   OH235567   3.728   3.237  16.617  0.1760 -0.3008  0.2302
 3791TIP3    H135568   3.709   3.331  16.624  1.0602 -0.2158  1.7613
 3791TIP3    H235569   3.643   3.195  16.630  0.0336  0.2442  1.1223
 3792TIP3   OH235570   0.308   0.649  12.708 -0.4815 -0.0117 -0.2144
 3792TIP3    H135571   0.245   0.714  12.678  0.4096  0.3055 -1.4963
 3792TIP3    H235572   0.377   0.700  12.749  0.3871 -0.0857 -1.5252
 3793TIP3   OH235573   0.248   2.313  15.056  0.5566 -0.0498 -0.1356
 3793TIP3    H135574   0.170   2.265  15.027  0.7704  0.3421 -1.4548
 3793TIP3    H235575   0.233   2.331  15.148 -0.3568 -1.0472 -0.0721
 3794TIP3   OH235576   0.083   0.594  15.764  0.0232 -0.2847 -0.5213
 3794TIP3    H135577   0.143   0.594  15.689  0.3232  0.8954 -0.3019
 3794TIP3    H235578   0.124   0.652  15.827  0.3189 -2.0868  1.0377
 3795TIP3   OH235579   6.543   1.182  15.743  0.0361  0.4222 -0.8952
 3795TIP3    H135580   6.517   1.187  15.835  0.3516 -0.8403 -0.7114
 3795TIP3    H235581   6.461   1.195  15.695 -0.3690 -0.1769 -0.3972
 3796TIP3   OH235582   0.966   0.562  15.980  0.2455  0.1392  0.3471
 3796TIP3    H135583   0.948   0.476  16.017  0.5903 -0.0300  0.1349
 3796TIP3    H235584   0.914   0.623  16.032  0.1346 -0.1789  0.6100
 3797TIP3   OH235585   0.416   6.434  15.363 -0.0605 -0.0552 -0.1066
 3797TIP3    H135586   0.361   6.505  15.330  0.0270 -0.4372 -1.0991
 3797TIP3    H235587   0.416   6.368  15.293  0.8520 -0.4950  0.2837
 3798TIP3   OH235588   1.710   6.259  16.307 -0.5487 -0.3055 -0.0396
 3798TIP3    H135589   1.769   6.331  16.327  0.2130 -0.0883 -2.6938
 3798TIP3    H235590   1.625   6.300  16.295 -1.0082 -0.4255  2.2195
 3799TIP3   OH235591   3.197   4.383  14.529  0.4162  0.0613 -0.0889
 3799TIP3    H135592   3.193   4.453  14.464  0.2899 -1.2130 -1.5217
 3799TIP3    H235593   3.140   4.412  14.600 -0.6218  0.8617 -1.2138
 3800TIP3   OH235594   2.983   3.100  15.698 -0.0085 -0.5097  0.2876
 3800TIP3    H135595   2.951   3.010  15.698 -0.1478 -0.4573 -0.2592
 3800TIP3    H235596   2.908   3.153  15.723  0.0584 -0.5328  0.5493
 3801TIP3   OH235597   2.702   5.130  16.753 -0.0190  0.3013 -0.0920
 3801TIP3    H135598   2.643   5.059  16.779  3.1649 -2.9713 -1.0080
 3801TIP3    H235599   2.758   5.143  16.830  0.8507  0.1898 -0.6981
 3802TIP3   OH235600   4.755   0.914  15.582  0.4126  0.3352 -0.1528
 3802TIP3    H135601   4.694   0.987  15.573 -1.5130 -1.1081  0.4223
 3802TIP3    H235602   4.785   0.919  15.673  1.1136  0.9968 -0.4114
 3803TIP3   OH235603   4.856   1.952  15.938 -0.0650  0.4809 -0.2444
 3803TIP3    H135604   4.829   2.036  15.900  2.1177  1.5006  0.3208
 3803TIP3    H235605   4.840   1.888  15.868 -1.0819  1.4629 -0.9472
 3804TIP3   OH235606   2.669   6.616  15.142  0.1009  0.2817 -0.4034
 3804TIP3    H135607   2.755   6.641  15.110  0.5532  0.0568  0.6061
 3804TIP3    H235608   2.685   6.544  15.202 -0.4219  2.1196  2.1300
 3805TIP3   OH235609   6.615   3.593  16.176 -0.1549 -0.2329 -0.6847
 3805TIP3    H135610   6.611   3.512  16.125 -1.6265 -0.4353 -0.3011
 3805TIP3    H235611   6.618   3.564  16.267 -1.5670  0.1234 -0.5067
 3806TIP3   OH235612   4.911   5.986  15.137 -0.9561  0.3694  0.3435
 3806TIP3    H135613   4.961   5.960  15.060 -1.3500 -0.7861  0.4468
 3806TIP3    H235614   4.849   6.052  15.105 -1.2189 -0.2095 -0.3684
 3807TIP3   OH235615   3.784   4.426  14.674 -0.3007  0.0893  0.5098
 3807TIP3    H135616   3.748   4.494  14.616 -0.5145 -1.7712 -1.6910
 3807TIP3    H235617   3.732   4.348  14.653  0.5171 -0.9903  2.3163
 3808TIP3   OH235618   4.646   5.297  14.740  0.2523  0.1026  0.4032
 3808TIP3    H135619   4.628   5.323  14.831  0.8034 -1.0592  0.8650
 3808TIP3    H235620   4.682   5.209  14.747  0.4115  0.0396 -0.9488
 3809TIP3   OH235621   5.269   2.378  13.588 -0.2223  0.2590 -0.3658
 3809TIP3    H135622   5.322   2.458  13.587  1.6204 -0.8791  0.0653
 3809TIP3    H235623   5.196   2.398  13.646  0.8001  1.3024  0.6114
 3810TIP3   OH235624   2.708   4.236  15.100 -0.2336  0.4693 -0.2425
 3810TIP3    H135625   2.634   4.242  15.039 -0.4574  0.0301 -0.0253
 3810TIP3    H235626   2.667   4.220  15.185  0.0867  0.8718 -0.0116
 3811TIP3   OH235627   5.095   5.722  15.621 -0.0852 -0.3013 -0.7383
 3811TIP3    H135628   5.150   5.693  15.694 -1.6336 -1.9660 -0.1565
 3811TIP3    H235629   5.137   5.685  15.544  0.1938 -0.6701 -0.4141
 3812TIP3   OH235630   5.846   0.664  15.947 -0.3381  0.0969  0.4161
 3812TIP3    H135631   5.876   0.642  15.859 -0.6998 -0.2276  0.3698
 3812TIP3    H235632   5.856   0.759  15.953  1.1151 -0.0351  0.5610
 3813TIP3   OH235633   4.219   0.805  15.843 -0.2515  0.0888  0.2760
 3813TIP3    H135634   4.173   0.811  15.926  0.5195 -0.6601  0.7807
 3813TIP3    H235635   4.255   0.893  15.829 -0.3119  0.1966  0.7752
 3814TIP3   OH235636   2.823   2.884  15.759  0.0242  0.1919 -0.5181
 3814TIP3    H135637   2.788   2.812  15.812 -0.1920  0.2924 -0.5231
 3814TIP3    H235638   2.803   2.963  15.809  1.2670  0.1760  0.0356
 3815TIP3   OH235639   0.047   0.415  15.172 -0.8193 -0.1834  0.1379
 3815TIP3    H135640   0.131   0.460  15.183 -0.4720 -0.9067  0.5282
 3815TIP3    H235641   0.020   0.435  15.083  0.4955 -1.1386 -0.5085
 3816TIP3   OH235642   0.910   5.441  15.790  0.0928 -0.1959  0.3007
 3816TIP3    H135643   0.933   5.358  15.831  1.0233 -0.6869 -1.1387
 3816TIP3    H235644   0.920   5.506  15.859  1.0187 -1.0621  1.0023
 3817TIP3   OH235645   6.276   1.023  16.293  0.4277  0.5169 -0.0429
 3817TIP3    H135646   6.209   0.962  16.264  0.1209  0.5893  0.4791
 3817TIP3    H235647   6.325   0.975  16.360 -1.1727  1.4827  1.9601
 3818TIP3   OH235648   6.584   0.737  15.588  0.0298  0.2133 -0.1377
 3818TIP3    H135649   6.664   0.765  15.544  0.4240 -1.3085 -0.4772
 3818TIP3    H235650   6.614   0.672  15.652 -0.7595  0.9232  0.9800
 3819TIP3   OH235651   0.248   4.867  16.489  0.6588  0.3083 -0.0561
 3819TIP3    H135652   0.203   4.796  16.534 -0.2539 -1.0627 -2.8812
 3819TIP3    H235653   0.185   4.938  16.487 -0.0389 -0.3140 -0.8086
 3820TIP3   OH235654   1.512   1.808  15.265 -0.1604 -0.6653  0.1353
 3820TIP3    H135655   1.436   1.850  15.304 -0.2986 -1.5499  0.8590
 3820TIP3    H235656   1.587   1.852  15.306 -0.3030 -1.3764  1.1998
 3821TIP3   OH235657   4.348   3.188  14.590  0.5057  0.2982  0.4057
 3821TIP3    H135658   4.378   3.212  14.502  0.9975  0.9539  0.7535
 3821TIP3    H235659   4.252   3.194  14.584  0.3864 -1.5540 -0.6288
 3822TIP3   OH235660   0.555   2.308  14.390 -0.5571 -0.0094  0.6164
 3822TIP3    H135661   0.493   2.241  14.420  0.3221  0.1562  2.9426
 3822TIP3    H235662   0.533   2.386  14.439  1.0830  0.2322  1.0336
 3823TIP3   OH235663   5.806   3.228  15.502  0.0102  0.4632  0.0718
 3823TIP3    H135664   5.831   3.320  15.489 -1.6525  1.1374  1.2590
 3823TIP3    H235665   5.753   3.206  15.426  1.3712  0.0794 -0.7985
 3824TIP3   OH235666   2.786   0.705  14.746 -0.3563 -0.0890  0.0316
 3824TIP3    H135667   2.867   0.741  14.712 -0.0970 -0.3955  0.3100
 3824TIP3    H235668   2.812   0.658  14.825 -0.1606 -3.3004 -1.7412
 3825TIP3   OH235669   3.556   5.326  15.802 -0.2753  0.5082  0.2497
 3825TIP3    H135670   3.576   5.339  15.709 -0.9870 -0.2883 -0.0239
 3825TIP3    H235671   3.641   5.315  15.844 -0.0074 -0.8472 -0.5811
 3826TIP3   OH235672   3.633   2.823  15.261 -0.0407  0.3727  0.0577
 3826TIP3    H135673   3.566   2.754  15.261  0.6893 -0.3619  0.5574
 3826TIP3    H235674   3.666   2.824  15.351 -0.9042  2.2655  0.3968
 3827TIP3   OH235675   5.509   1.370  17.078 -0.2410  0.0101  0.4731
 3827TIP3    H135676   5.524   1.391  17.170 -0.3966 -0.0771  0.5197
 3827TIP3    H235677   5.591   1.329  17.048  0.3674  1.4011  0.1635
 3828TIP3   OH235678   2.181   0.776  14.629 -0.1057 -0.2073 -0.0124
 3828TIP3    H135679   2.219   0.817  14.552  1.4458  0.8583  1.2468
 3828TIP3    H235680   2.093   0.812  14.635  0.9983  2.6140  0.7112
 3829TIP3   OH235681   2.235   4.449  16.093  0.1051  0.0619  0.2606
 3829TIP3    H135682   2.306   4.456  16.030  0.0036 -2.0802 -0.1677
 3829TIP3    H235683   2.247   4.363  16.133 -2.1159 -0.2736  0.3218
 3830TIP3   OH235684   2.241   5.114  13.503  0.5162 -0.0571 -0.0594
 3830TIP3    H135685   2.163   5.059  13.506  0.2771  0.2259  3.4155
 3830TIP3    H235686   2.211   5.195  13.461 -0.8261 -0.3021  0.3570
 3831TIP3   OH235687   3.450   6.074  15.549  0.2182 -0.2464  0.4854
 3831TIP3    H135688   3.518   6.037  15.492 -0.5782 -0.7005 -0.1997
 3831TIP3    H235689   3.419   6.151  15.502 -0.7099 -0.8371  0.0921
 3832TIP3   OH235690   0.674   0.802  16.696  0.4913 -0.2855  0.3333
 3832TIP3    H135691   0.723   0.818  16.776  0.9467  0.5152 -0.0851
 3832TIP3    H235692   0.733   0.830  16.626  0.0781 -0.9091 -0.2792
 3833TIP3   OH235693   5.333   1.450  16.058  0.0608 -0.5506  0.4235
 3833TIP3    H135694   5.361   1.359  16.047 -1.4706 -0.9521 -0.4100
 3833TIP3    H235695   5.238   1.445  16.061 -0.1752  1.2240 -1.9424
 3834TIP3   OH235696   2.368   2.864  16.621 -0.0949 -0.4037  0.1898
 3834TIP3    H135697   2.366   2.772  16.648  0.3763 -0.7916 -1.0379
 3834TIP3    H235698   2.280   2.897  16.640  0.1191 -0.7198  1.8921
 3835TIP3   OH235699   4.245   5.375  16.571 -0.1451  0.0557 -0.1163
 3835TIP3    H135700   4.339   5.379  16.592 -0.3111 -1.4606  1.0635
 3835TIP3    H235701   4.210   5.457  16.607  0.5684  0.2069  0.2689
 3836TIP3   OH235702   3.515   5.690  13.982  0.6327  0.3645 -0.4372
 3836TIP3    H135703   3.600   5.650  13.961  0.8782  0.4932  0.3003
 3836TIP3    H235704   3.493   5.656  14.068  0.9122  1.8951  0.2788
 3837TIP3   OH235705   3.000   0.928  16.310 -0.3867  0.1267 -0.2873
 3837TIP3    H135706   3.039   1.004  16.352 -1.8755 -0.1825  1.8171
 3837TIP3    H235707   2.954   0.963  16.233 -0.7872  1.3058  0.4703
 3838TIP3   OH235708   2.107   1.803  13.846 -0.2634 -0.1265  0.0201
 3838TIP3    H135709   2.060   1.836  13.923  1.9025 -0.1158  1.4156
 3838TIP3    H235710   2.136   1.881  13.800 -0.4317 -0.1322 -0.0980
 3839TIP3   OH235711   4.029   6.174  15.985 -0.2458 -0.3755 -0.2008
 3839TIP3    H135712   4.021   6.082  15.962  1.8259 -0.8485  0.6833
 3839TIP3    H235713   4.091   6.209  15.921 -0.8836  0.3698 -0.4239
 3840TIP3   OH235714   2.599   0.425  14.719  0.0680 -0.3039  1.0812
 3840TIP3    H135715   2.588   0.490  14.788  2.0301 -0.6985  1.8204
 3840TIP3    H235716   2.510   0.408  14.687 -0.4507  3.6124 -0.0395
 3841TIP3   OH235717   3.755   0.683  16.190  0.0182  0.0059 -0.3875
 3841TIP3    H135718   3.747   0.634  16.109 -0.2175 -2.1056  0.8220
 3841TIP3    H235719   3.849   0.688  16.207  0.0762  0.6075 -0.8592
 3842TIP3   OH235720   6.307   2.747  15.207 -0.1253 -0.9283  0.1038
 3842TIP3    H135721   6.394   2.767  15.242 -1.8693  2.8681  2.9401
 3842TIP3    H235722   6.321   2.739  15.113  2.8857  3.4592 -0.1177
 3843TIP3   OH235723   1.347   0.881  14.080  0.4408 -0.1626  0.2602
 3843TIP3    H135724   1.413   0.893  14.012 -0.4541  1.7652 -0.3462
 3843TIP3    H235725   1.264   0.884  14.033 -0.1933  0.8761  1.3963
 3844TIP3   OH235726   3.251   0.354  13.922  0.0477 -0.1928 -0.5208
 3844TIP3    H135727   3.188   0.282  13.913 -0.7169  0.3054  0.6261
 3844TIP3    H235728   3.206   0.430  13.884 -0.7356  0.5255  1.7001
 3845TIP3   OH235729   4.495   0.835  13.309 -0.1366 -0.0854 -0.0887
 3845TIP3    H135730   4.459   0.832  13.220  1.2032 -1.1370 -0.6239
 3845TIP3    H235731   4.546   0.917  13.311  0.0109 -0.1689 -0.3662
 3846TIP3   OH235732   3.559   3.832  14.417 -0.9222 -0.5705  0.1233
 3846TIP3    H135733   3.620   3.824  14.344  1.1552  4.8538  0.7591
 3846TIP3    H235734   3.493   3.894  14.386 -1.9517 -0.7719  1.7935
 3847TIP3   OH235735   4.934   5.494  16.129 -0.3315 -0.2522 -0.0462
 3847TIP3    H135736   4.903   5.404  16.142 -0.1714 -0.2412  0.4536
 3847TIP3    H235737   4.923   5.511  16.036 -2.3439 -0.0655  0.1735
 3848TIP3   OH235738   6.625   2.988  16.781 -0.3849 -0.1111 -0.4387
 3848TIP3    H135739   6.710   3.032  16.790 -1.1052  0.8956  2.8496
 3848TIP3    H235740   6.642   2.917  16.719  2.6979  0.4258 -0.3991
 3849TIP3   OH235741   2.809   5.092  15.608  0.4200  0.0382 -0.3280
 3849TIP3    H135742   2.898   5.071  15.578 -0.4530 -1.6455 -1.9687
 3849TIP3    H235743   2.773   5.147  15.539  0.1724  0.7524  0.3520
 3850TIP3   OH235744   3.092   4.310  13.678 -0.2117 -0.1435 -0.2392
 3850TIP3    H135745   2.997   4.314  13.666 -0.2050  0.0079 -0.2385
 3850TIP3    H235746   3.124   4.270  13.597 -0.2811 -0.2393 -0.2193
 3851TIP3   OH235747   5.944   3.542  17.234 -0.1777 -0.3376  0.2646
 3851TIP3    H135748   5.867   3.491  17.258 -0.7758  0.0894 -0.6778
 3851TIP3    H235749   6.015   3.478  17.227 -0.2528 -0.6381  1.8691
 3852TIP3   OH235750   4.833   2.965  13.686  0.3465 -0.0013 -0.0090
 3852TIP3    H135751   4.737   2.966  13.687  0.2724  2.4060 -1.9447
 3852TIP3    H235752   4.855   2.896  13.623 -0.1042 -0.5569  0.4313
 3853TIP3   OH235753   5.578   0.339  16.020 -0.7739 -0.3447 -0.1085
 3853TIP3    H135754   5.573   0.247  16.046 -0.9221 -0.8484 -1.7686
 3853TIP3    H235755   5.509   0.349  15.953  1.1756  0.1454 -2.1844
 3854TIP3   OH235756   6.303   6.644  16.573 -0.0132 -0.2341  0.5998
 3854TIP3    H135757   6.398   6.628  16.570 -0.1732 -1.1117 -0.3644
 3854TIP3    H235758   6.287   6.676  16.661  1.3789  1.2035  0.3687
 3855TIP3   OH235759   1.034   6.165  14.838 -0.0549 -0.1316  0.2765
 3855TIP3    H135760   1.049   6.259  14.826 -0.3501 -0.0430  0.5615
 3855TIP3    H235761   1.061   6.125  14.756 -0.6220  0.2902 -0.1207
 3856TIP3   OH235762   3.310   2.649  15.191  0.4738 -0.7632 -0.3605
 3856TIP3    H135763   3.244   2.668  15.258  0.6578 -0.4760 -0.2589
 3856TIP3    H235764   3.390   2.629  15.240  0.5178 -0.8995 -0.4876
 3857TIP3   OH235765   3.093   0.667  16.287  0.4622 -0.0160  0.0492
 3857TIP3    H135766   3.056   0.750  16.317  1.0138 -0.3322  1.7464
 3857TIP3    H235767   3.186   0.686  16.273  0.5219 -0.2608  0.1050
 3858TIP3   OH235768   1.131   5.394  13.678 -0.4082 -0.0641  0.1658
 3858TIP3    H135769   1.051   5.416  13.630  0.0603  0.0487 -0.5696
 3858TIP3    H235770   1.159   5.310  13.642 -0.8366 -0.7096  1.2620
 3859TIP3   OH235771   4.902   2.600  14.829 -0.0748  0.3618 -0.5073
 3859TIP3    H135772   4.860   2.627  14.747 -0.5251 -0.2330 -0.4846
 3859TIP3    H235773   4.829   2.578  14.887  0.1157  3.3969  1.0458
 3860TIP3   OH235774   2.440   4.785  15.528 -0.2399  0.2896 -0.5679
 3860TIP3    H135775   2.382   4.776  15.604 -0.0190  1.9861 -0.1427
 3860TIP3    H235776   2.384   4.819  15.459 -0.4806 -1.4254 -1.2717
 3861TIP3   OH235777   4.659   4.578  17.107  0.1810  0.2796  0.3815
 3861TIP3    H135778   4.708   4.659  17.089  0.9219 -0.0159  1.0002
 3861TIP3    H235779   4.713   4.509  17.068  0.4058 -0.0834  1.3269
 3862TIP3   OH235780   2.902   4.436  15.355  0.0083 -0.1798  0.4329
 3862TIP3    H135781   2.859   4.462  15.437 -0.3171  1.3417 -0.1841
 3862TIP3    H235782   2.996   4.434  15.377 -0.1177 -0.3608  0.9800
 3863TIP3   OH235783   2.458   3.866  16.883  0.4137 -0.2811  0.0828
 3863TIP3    H135784   2.385   3.827  16.930  1.1758 -0.8138  0.8622
 3863TIP3    H235785   2.460   3.820  16.798 -0.5702  0.2318 -0.2220
 3864TIP3   OH235786   5.490   0.968  13.375 -0.2527  0.5524 -0.3382
 3864TIP3    H135787   5.476   0.982  13.281 -0.5464  1.0081 -0.2295
 3864TIP3    H235788   5.470   0.875  13.389 -1.5924  0.8004 -0.4744
 3865TIP3   OH235789   0.070   3.621  14.886  0.3957  0.3135 -0.4405
 3865TIP3    H135790   0.023   3.554  14.935  1.5128 -0.6399 -0.6297
 3865TIP3    H235791   0.127   3.572  14.826 -0.8365  1.4304 -2.6641
 3866TIP3   OH235792   6.540   0.315  14.861  0.2775 -0.0242 -0.4387
 3866TIP3    H135793   6.482   0.250  14.821  0.5192 -0.3354 -0.2798
 3866TIP3    H235794   6.509   0.323  14.951  0.6007 -0.3269 -0.3015
 3867TIP3   OH235795   6.422   6.064  16.504 -0.0073 -0.0532  0.4458
 3867TIP3    H135796   6.381   5.980  16.484 -0.5495  0.4587 -0.7072
 3867TIP3    H235797   6.437   6.105  16.419  1.2671  0.5618  0.9260
 3868TIP3   OH235798   5.468   6.094  17.249  0.3498  0.2766 -0.0830
 3868TIP3    H135799   5.480   6.102  17.343 -0.4627 -0.0495  0.0576
 3868TIP3    H235800   5.450   6.001  17.235  1.8575  0.0610 -0.7311
 3869TIP3   OH235801   6.682   1.251  15.329  0.4461 -0.2216 -0.2983
 3869TIP3    H135802   6.758   1.300  15.360  1.2101 -0.7888 -1.2132
 3869TIP3    H235803   6.716   1.196  15.259 -0.6098 -1.2406 -0.0469
 3870TIP3   OH235804   6.102   1.096  15.384  0.3410 -0.3282 -0.1066
 3870TIP3    H135805   6.038   1.163  15.408 -1.3779 -1.9358  0.0315
 3870TIP3    H235806   6.095   1.089  15.289 -0.5331 -1.2662  0.0090
 3871TIP3   OH235807   1.474   5.448  15.394 -0.2250 -0.0115  0.5309
 3871TIP3    H135808   1.556   5.401  15.410 -0.6684 -1.2029 -0.4957
 3871TIP3    H235809   1.458   5.497  15.474  0.5828 -1.1379  1.4096
 3872TIP3   OH235810   2.090   1.761  14.942  0.0333 -0.2284 -0.3313
 3872TIP3    H135811   2.052   1.677  14.914 -0.0942 -0.8621  1.6294
 3872TIP3    H235812   2.095   1.813  14.861 -1.0446 -1.6652 -1.3693
 3873TIP3   OH235813   2.234   3.963  16.558 -0.1262  0.0950  0.2487
 3873TIP3    H135814   2.191   3.932  16.478  1.2659 -0.0544 -0.4806
 3873TIP3    H235815   2.293   3.892  16.582 -0.7944 -0.0175  1.6476
 3874TIP3   OH235816   3.068   2.918  15.284 -0.9614 -0.0465 -0.4615
 3874TIP3    H135817   3.080   2.907  15.190 -0.3008  0.2148 -0.4104
 3874TIP3    H235818   2.976   2.943  15.294 -0.3630  2.8509 -1.3092
 3875TIP3   OH235819   0.474   5.091  16.707  0.0666 -0.5908  0.3304
 3875TIP3    H135820   0.492   5.069  16.616 -2.5855  1.6496 -0.8752
 3875TIP3    H235821   0.379   5.081  16.716  0.1880 -0.2061  2.7048
 3876TIP3   OH235822   3.703   3.902  14.772 -0.1931  0.2601 -0.3217
 3876TIP3    H135823   3.721   3.974  14.713 -2.4317  1.7327  0.6650
 3876TIP3    H235824   3.676   3.830  14.715  0.9021  0.5600 -1.2505
 3877TIP3   OH235825   6.192   2.291  15.733 -0.4998  0.2028  0.2229
 3877TIP3    H135826   6.286   2.308  15.734 -0.4924  0.2684 -0.7942
 3877TIP3    H235827   6.155   2.363  15.683 -1.4217  1.5948  2.7344
 3878TIP3   OH235828   5.075   0.132  14.987 -0.3019  0.0700  0.3512
 3878TIP3    H135829   5.129   0.211  14.992 -1.1036  0.8387 -1.8066
 3878TIP3    H235830   5.137   0.060  14.994  0.5727  0.8802  1.2897
 3879TIP3   OH235831   6.273   2.118  16.254  0.1103 -0.2232 -0.7007
 3879TIP3    H135832   6.291   2.025  16.271  0.9335 -0.3664 -2.2433
 3879TIP3    H235833   6.358   2.161  16.265 -0.1478  0.2612 -0.6019
 3880TIP3   OH235834   4.387   3.561  15.422 -0.1315 -0.8097 -0.0006
 3880TIP3    H135835   4.469   3.518  15.396  0.3574  0.0755  0.0322
 3880TIP3    H235836   4.354   3.508  15.494 -0.0042 -1.6279 -0.5267
 3881TIP3   OH235837   4.639   2.841  14.368  0.0579 -0.0789 -0.1221
 3881TIP3    H135838   4.687   2.896  14.430 -1.6754  0.3987  0.8815
 3881TIP3    H235839   4.706   2.805  14.310  1.4314  1.6822  0.2948
 3882TIP3   OH235840   5.384   6.168  15.307 -0.3020 -0.1310  0.4420
 3882TIP3    H135841   5.422   6.252  15.280 -0.1140 -0.2824  0.2391
 3882TIP3    H235842   5.289   6.185  15.309 -0.3261 -0.1280 -0.3511
 3883TIP3   OH235843   6.000   3.858  15.070  0.4348 -0.3488 -0.1001
 3883TIP3    H135844   6.079   3.854  15.015  1.1741 -1.3159  0.9963
 3883TIP3    H235845   6.033   3.859  15.160 -0.7618  1.0227  0.3690
 3884TIP3   OH235846   1.043   0.810  14.242  0.1413  0.8117  0.0730
 3884TIP3    H135847   0.952   0.811  14.213 -0.1867  0.6176  1.0348
 3884TIP3    H235848   1.094   0.808  14.162 -0.7422 -1.5774 -0.5153
 3885TIP3   OH235849   6.469   4.452  14.363  0.0989  0.0338 -0.4280
 3885TIP3    H135850   6.490   4.427  14.273 -1.7960  1.3240 -1.3021
 3885TIP3    H235851   6.406   4.523  14.353 -0.5417 -0.1412  1.9448
 3886TIP3   OH235852   2.462   4.465  16.468  0.5992 -0.4922 -0.1622
 3886TIP3    H135853   2.480   4.436  16.379  1.1035 -1.0473  0.1074
 3886TIP3    H235854   2.526   4.417  16.522 -0.8635 -1.5561  0.7061
 3887TIP3   OH235855   1.390   3.146  14.366  0.5149  0.0481  0.2333
 3887TIP3    H135856   1.434   3.105  14.440  0.7146  0.7310  0.4946
 3887TIP3    H235857   1.323   3.082  14.341  3.1342 -2.1931 -1.7509
 3888TIP3   OH235858   4.574   1.275  14.362 -0.0477  0.2504 -0.1301
 3888TIP3    H135859   4.579   1.341  14.430 -0.6103  1.6236 -1.3793
 3888TIP3    H235860   4.528   1.201  14.403  0.9596  0.4430  1.3961
 3889TIP3   OH235861   4.498   2.271  14.274  0.1924 -0.1065  0.1810
 3889TIP3    H135862   4.532   2.190  14.236  1.9374  0.3365  0.6988
 3889TIP3    H235863   4.538   2.341  14.222 -0.7906  0.4419  0.1454
 3890TIP3   OH235864   1.123   5.273  14.559 -0.1766 -0.0182  0.1956
 3890TIP3    H135865   1.083   5.245  14.476 -0.5735  1.7008 -0.2293
 3890TIP3    H235866   1.080   5.356  14.580  1.6103  0.7982  0.8773
 3891TIP3   OH235867   4.558   2.415  16.192 -0.1281  0.2970 -0.0153
 3891TIP3    H135868   4.620   2.477  16.231 -1.1659  1.5708 -0.3184
 3891TIP3    H235869   4.530   2.359  16.264 -0.3590  1.2063  0.6129
 3892TIP3   OH235870   1.567   0.727  15.643  0.1483 -0.6874 -0.2942
 3892TIP3    H135871   1.615   0.799  15.684  0.5529 -0.9765 -0.2570
 3892TIP3    H235872   1.477   0.740  15.670  0.1479  0.0402 -0.6112
 3893TIP3   OH235873   4.194   4.689  14.921 -0.4073 -0.0559  0.2807
 3893TIP3    H135874   4.121   4.680  14.983 -1.4432 -0.3289 -0.9386
 3893TIP3    H235875   4.165   4.642  14.843  1.5366 -1.0680  0.1309
 3894TIP3   OH235876   1.655   0.909  16.461 -0.2165 -0.1362 -0.2612
 3894TIP3    H135877   1.673   0.982  16.402 -0.4767  0.2666  0.1523
 3894TIP3    H235878   1.624   0.838  16.404 -0.2903  0.1878 -0.6244
 3895TIP3   OH235879   3.581   4.903  16.571  0.0508 -0.9190  0.5589
 3895TIP3    H135880   3.536   4.959  16.509  0.6179 -0.2462  0.7387
 3895TIP3    H235881   3.651   4.958  16.607  1.0356 -1.9387  0.2576
 3896TIP3   OH235882   6.705   5.459  16.325 -0.1536 -0.0478  0.3763
 3896TIP3    H135883   6.675   5.443  16.236 -0.9613 -0.8257  0.7756
 3896TIP3    H235884   6.761   5.384  16.346  1.2051  0.8301  0.0422
 3897TIP3   OH235885   6.027   6.716  14.843  0.2211 -0.4080  0.0508
 3897TIP3    H135886   6.119   6.703  14.865  0.7657  1.0847 -1.1342
 3897TIP3    H235887   6.005   6.802  14.879  0.8161  1.5861 -3.8394
 3898TIP3   OH235888   1.496   2.501  15.453  0.5040 -0.2821 -0.0490
 3898TIP3    H135889   1.467   2.543  15.372  0.4527 -0.8161 -0.3148
 3898TIP3    H235890   1.421   2.449  15.481 -0.8874  2.6881  2.3696
 3899TIP3   OH235891   2.114   4.812  15.934 -0.1554 -0.2014  0.2973
 3899TIP3    H135892   2.093   4.776  16.020 -0.1426 -2.2788 -0.5142
 3899TIP3    H235893   2.050   4.882  15.921 -0.5629 -0.2831  1.7267
 3900TIP3   OH235894   1.554   1.036  16.033  0.5208  0.0382  0.2166
 3900TIP3    H135895   1.618   1.055  16.102  2.0370 -1.0921 -0.8044
 3900TIP3    H235896   1.516   0.952  16.058 -0.0121  0.3420  0.4294
 3901TIP3   OH235897   3.320   4.182  15.712  0.2156  0.0661 -0.4062
 3901TIP3    H135898   3.325   4.086  15.712 -0.6972 -0.0075  0.5053
 3901TIP3    H235899   3.277   4.203  15.795 -2.1815  1.0926 -1.8095
 3902TIP3   OH235900   0.415   3.883  15.205  0.8226  0.0285 -0.1946
 3902TIP3    H135901   0.472   3.854  15.277  1.3294  0.9046 -0.2299
 3902TIP3    H235902   0.355   3.809  15.192  0.3094  0.0825  1.5423
 3903TIP3   OH235903   3.181   0.089  16.934  0.3827 -0.3568  0.1799
 3903TIP3    H135904   3.116   0.157  16.952  0.5059 -0.2825  0.3443
 3903TIP3    H235905   3.131   0.008  16.928  0.4395 -0.5200  1.7048
 3904TIP3   OH235906   2.480   6.551  15.968  0.0927 -0.0082 -0.4600
 3904TIP3    H135907   2.409   6.491  15.991  0.2401  0.2700  0.8249
 3904TIP3    H235908   2.555   6.495  15.951  0.1357 -0.2203  0.3836
 3905TIP3   OH235909   3.936   5.322  14.666  0.0096  0.0221  0.1918
 3905TIP3    H135910   3.973   5.236  14.681 -0.4898 -0.7461 -2.4484
 3905TIP3    H235911   4.002   5.369  14.615 -1.4453 -0.4670 -2.3194
 3906TIP3   OH235912   6.592   5.222  16.900  0.1196  0.5629 -0.2190
 3906TIP3    H135913   6.553   5.285  16.961 -0.0949  0.9923 -0.7893
 3906TIP3    H235914   6.679   5.256  16.881  0.6167 -0.1641  0.7102
 3907TIP3   OH235915   3.804   5.817  14.371 -0.5986 -0.8380 -0.0617
 3907TIP3    H135916   3.731   5.756  14.359 -1.1473  0.1406 -2.2616
 3907TIP3    H235917   3.791   5.853  14.458 -1.6129 -2.1142  0.3459
 3908TIP3   OH235918   5.095   5.930  14.948 -0.3256 -0.0185  0.1808
 3908TIP3    H135919   5.100   5.835  14.961  1.0181  0.1934  1.4487
 3908TIP3    H235920   5.151   5.947  14.873  1.2112 -0.0243  1.2818
 3909TIP3   OH235921   2.629   2.187  13.496 -0.1480  0.1752  1.1471
 3909TIP3    H135922   2.641   2.280  13.479 -0.5417 -0.0015 -0.2961
 3909TIP3    H235923   2.659   2.145  13.415 -0.1064 -0.9395  1.7271
 3910TIP3   OH235924   6.737   5.855  16.683  0.3170 -0.1207 -0.6002
 3910TIP3    H135925   6.689   5.891  16.759  1.6848  2.0890 -0.6940
 3910TIP3    H235926   6.668   5.836  16.619 -0.6754  0.3176  0.2964
 3911TIP3   OH235927   2.934   5.575  15.799 -0.0316  0.0671 -0.3329
 3911TIP3    H135928   3.004   5.562  15.736  0.1736  1.3911 -0.4142
 3911TIP3    H235929   2.940   5.668  15.822 -1.5363  0.1201 -0.0743
 3912TIP3   OH235930   2.311   3.085  15.090 -0.6803 -0.0611 -0.2014
 3912TIP3    H135931   2.366   3.143  15.037  0.4324 -2.1276 -1.4113
 3912TIP3    H235932   2.334   3.106  15.181  0.8043  0.3342 -0.6453
 3913TIP3   OH235933   4.955   5.474  14.350 -0.8123 -0.2519 -0.5116
 3913TIP3    H135934   5.047   5.480  14.325 -0.3810 -0.8950  0.8565
 3913TIP3    H235935   4.926   5.390  14.313 -1.3573  0.7245 -2.4236
 3914TIP3   OH235936   1.495   3.966  16.643 -0.3680  0.2763 -0.3589
 3914TIP3    H135937   1.542   3.898  16.594  1.9085  0.9391  0.7416
 3914TIP3    H235938   1.414   3.924  16.671  0.6191 -1.7509 -0.3295
 3915TIP3   OH235939   4.105   4.853  15.788  0.3411  0.3227  0.1529
 3915TIP3    H135940   4.085   4.857  15.882  1.5839  1.5803  0.4148
 3915TIP3    H235941   4.065   4.932  15.752 -0.3456 -0.2882 -0.4290
 3916TIP3   OH235942   5.012   6.589  14.652  0.2216 -0.2038 -0.1056
 3916TIP3    H135943   5.090   6.631  14.618  0.0332  0.5303  0.3461
 3916TIP3    H235944   4.960   6.568  14.575 -0.5514  2.1158 -0.2843
 3917TIP3   OH235945   5.885   1.994  16.752  0.1832  0.5328  0.1621
 3917TIP3    H135946   5.838   1.929  16.804 -1.2125  0.9383 -0.5466
 3917TIP3    H235947   5.850   1.984  16.663  1.0760  1.2059 -0.2835
 3918TIP3   OH235948   4.950   6.086  16.450  0.8967 -0.4973 -0.1527
 3918TIP3    H135949   4.960   6.179  16.468  2.8728 -0.3221 -1.8019
 3918TIP3    H235950   4.981   6.042  16.530  0.3551  0.2220  0.4660
 3919TIP3   OH235951   3.803   6.190  14.350 -0.7603 -0.0856 -0.5286
 3919TIP3    H135952   3.830   6.282  14.348 -2.7245  0.6437  1.5719
 3919TIP3    H235953   3.733   6.187  14.416  0.4100 -3.4232  0.7700
 3920TIP3   OH235954   4.255   2.282  15.288  0.0937  0.0228 -1.1728
 3920TIP3    H135955   4.291   2.274  15.376 -1.1576  0.8535 -0.5419
 3920TIP3    H235956   4.264   2.195  15.250 -1.8423 -1.1417  0.8104
 3921TIP3   OH235957   4.450   2.215  14.530  0.2744 -0.2698  0.3996
 3921TIP3    H135958   4.450   2.241  14.437 -1.3348 -0.6041  0.2908
 3921TIP3    H235959   4.518   2.269  14.569 -0.1316  1.0658 -0.6629
 3922TIP3   OH235960   1.802   1.370  13.850  0.0143  0.2515 -0.1887
 3922TIP3    H135961   1.766   1.314  13.781 -1.5633 -0.6646  1.2746
 3922TIP3    H235962   1.896   1.353  13.849 -0.2871 -1.5930 -0.5486
 3923TIP3   OH235963   2.998   0.088  14.111  0.3355 -0.4775 -0.0820
 3923TIP3    H135964   2.925   0.145  14.138  1.2968 -0.0041  1.6991
 3923TIP3    H235965   3.028   0.126  14.029 -0.6774  0.0199 -0.2454
 3924TIP3   OH235966   3.433   3.857  15.962  0.5362  0.6396  0.0517
 3924TIP3    H135967   3.400   3.810  16.039  0.4421  0.1130 -0.3045
 3924TIP3    H235968   3.382   3.938  15.960 -1.6932 -0.6952 -1.1982
 3925TIP3   OH235969   5.352   0.407  15.488  0.0337  0.6498  0.5064
 3925TIP3    H135970   5.366   0.490  15.533 -1.8847  1.9373 -1.0929
 3925TIP3    H235971   5.271   0.372  15.526 -0.6985  0.9380 -0.7278
 3926TIP3   OH235972   3.715   0.162  14.140  0.1228 -0.0087  0.1581
 3926TIP3    H135973   3.693   0.093  14.203  1.1707  2.7173  3.8029
 3926TIP3    H235974   3.802   0.139  14.108  0.2530 -0.6033  0.9325
 3927TIP3   OH235975   3.065   1.925  16.571 -0.3956 -0.5282 -0.0987
 3927TIP3    H135976   3.067   1.890  16.482 -0.5241 -0.1785 -0.2420
 3927TIP3    H235977   3.113   2.008  16.564  0.7138 -1.1034  0.4273
 3928TIP3   OH235978   4.155   3.756  14.514 -0.4724 -0.5210 -0.3577
 3928TIP3    H135979   4.092   3.766  14.443  0.1585 -0.4707 -0.9165
 3928TIP3    H235980   4.209   3.681  14.488 -0.5536 -0.8172  0.3096
 3929TIP3   OH235981   4.364   1.890  15.403 -0.5616  0.1108 -0.0533
 3929TIP3    H135982   4.357   1.814  15.460 -0.8307 -0.8407 -1.3034
 3929TIP3    H235983   4.287   1.943  15.424 -0.1786  0.2430  1.0864
 3930TIP3   OH235984   5.054   2.410  13.736 -0.2775 -0.1152 -0.1596
 3930TIP3    H135985   4.991   2.342  13.760 -0.7770  0.8152  1.3752
 3930TIP3    H235986   5.007   2.466  13.674 -0.5684 -0.0603  0.1082
 3931TIP3   OH235987   4.279   1.990  17.196  0.0903  0.6092  0.2229
 3931TIP3    H135988   4.196   1.944  17.179  0.0373  0.9946 -0.6261
 3931TIP3    H235989   4.253   2.073  17.234 -0.1259  1.8285 -2.3399
 3932TIP3   OH235990   4.335   4.746  13.832 -0.5728 -0.7980 -0.8248
 3932TIP3    H135991   4.360   4.674  13.891  1.4811  0.3484 -0.2166
 3932TIP3    H235992   4.416   4.771  13.788 -1.1715  1.3560 -0.8022
 3933TIP3   OH235993   2.788   2.324  15.924  0.0971  0.1650  0.2229
 3933TIP3    H135994   2.743   2.340  16.007 -0.3526 -0.6468  0.1463
 3933TIP3    H235995   2.718   2.310  15.861  0.4410  0.5507 -0.2494
 3934TIP3   OH235996   5.292   0.811  15.355  0.6444 -0.3596  0.7606
 3934TIP3    H135997   5.294   0.906  15.341  1.2683 -0.1316  2.1645
 3934TIP3    H235998   5.199   0.789  15.352  0.4143  0.4587  1.2472
 3935TIP3   OH235999   3.562   1.269  15.516  0.2348  0.1589  0.1512
 3935TIP3    H136000   3.615   1.271  15.436  0.3630  0.3547  0.2405
 3935TIP3    H236001   3.605   1.204  15.571 -1.4339 -2.0863 -1.0191
 3936TIP3   OH236002   0.897   2.659  13.716 -0.6132 -0.4131  0.3106
 3936TIP3    H136003   0.867   2.696  13.633 -1.9330  1.0299  1.3739
 3936TIP3    H236004   0.835   2.588  13.733  0.0872 -1.1853 -0.2414
 3937TIP3   OH236005   4.958   6.416  15.500  0.3212  0.0229  0.1600
 3937TIP3    H136006   4.935   6.331  15.462  0.3187 -0.5661  1.4347
 3937TIP3    H236007   4.875   6.462  15.508  0.1890 -0.2547  0.4019
 3938TIP3   OH236008   4.635   3.526  14.566  0.0370 -0.2950 -0.2958
 3938TIP3    H136009   4.545   3.521  14.533  0.4801  1.7811 -2.0649
 3938TIP3    H236010   4.648   3.444  14.611 -2.7848 -0.6436  0.1011
 3939TIP3   OH236011   3.540   2.447  14.664  0.4405  0.9995 -0.3480
 3939TIP3    H136012   3.571   2.533  14.693  1.3683  0.6077 -0.1162
 3939TIP3    H236013   3.580   2.435  14.578  1.0425  0.4502 -0.0086
 3940TIP3   OH236014   2.554   0.014  14.021  0.9165  0.2536  0.4263
 3940TIP3    H136015   2.613   0.005  14.096  1.6202  1.3992  0.0537
 3940TIP3    H236016   2.601   0.072  13.961 -0.2576  0.5609 -0.2398
 3941TIP3   OH236017   1.970   0.898  15.949 -0.5802  0.5932 -0.8314
 3941TIP3    H136018   1.945   0.862  15.864 -1.9408  0.3486 -0.3526
 3941TIP3    H236019   1.961   0.992  15.940 -1.2625  0.5358 -0.8122
 3942TIP3   OH236020   4.419   6.541  13.849 -0.4723  0.2030  0.3343
 3942TIP3    H136021   4.390   6.618  13.798 -0.0819 -0.2979 -0.6665
 3942TIP3    H236022   4.496   6.571  13.896 -0.4101  0.4734  0.0636
 3943TIP3   OH236023   1.785   3.218  16.467 -0.1623 -0.5356 -0.8702
 3943TIP3    H136024   1.800   3.295  16.413 -0.4010  0.0303 -0.1504
 3943TIP3    H236025   1.690   3.216  16.481 -0.1213 -0.7670 -0.6137
 3944TIP3   OH236026   1.532   2.169  15.373 -0.1861  0.3064 -0.0322
 3944TIP3    H136027   1.551   2.248  15.324 -0.3500 -0.4327 -1.3330
 3944TIP3    H236028   1.603   2.109  15.352 -0.8299 -0.4023 -0.2600
 3945TIP3   OH236029   2.793   0.374  16.878 -0.2146 -0.3297  0.1211
 3945TIP3    H136030   2.707   0.348  16.846 -0.5938  1.1877 -0.1917
 3945TIP3    H236031   2.806   0.461  16.842  1.9253 -0.9363 -0.6808
 3946TIP3   OH236032   6.358   1.372  13.306 -0.0079 -0.2877  0.0205
 3946TIP3    H136033   6.265   1.367  13.281 -0.6347  1.1722  1.7774
 3946TIP3    H236034   6.370   1.463  13.333  1.7332 -0.6551  0.6024
 3947TIP3   OH236035   3.968   6.280  16.944 -0.1291  0.0926 -0.5737
 3947TIP3    H136036   3.910   6.334  16.998  2.5192  1.4364  1.1705
 3947TIP3    H236037   4.008   6.341  16.882  0.9276 -0.3400 -0.3495
 3948TIP3   OH236038   5.170   6.531  15.250 -0.0575  0.1736  0.2922
 3948TIP3    H136039   5.128   6.454  15.289  1.6440  0.0184  1.9407
 3948TIP3    H236040   5.127   6.606  15.291 -0.5815  0.0844 -0.0824
 3949TIP3   OH236041   6.207   0.473  15.464  0.1779  0.1310  0.2235
 3949TIP3    H136042   6.124   0.465  15.417  1.2965  1.0801 -2.1125
 3949TIP3    H236043   6.229   0.383  15.490 -0.5106 -0.4692 -1.1475
 3950TIP3   OH236044   5.151   5.300  17.124 -0.0155  0.2257 -0.2802
 3950TIP3    H136045   5.138   5.394  17.114 -1.0001 -0.0946 -2.8548
 3950TIP3    H236046   5.234   5.282  17.080 -0.2838 -0.2164 -0.6189
 3951TIP3   OH236047   5.374   0.019  16.205  0.0480  0.1706 -0.3823
 3951TIP3    H136048   5.374   0.051  16.115 -0.1161  0.4344 -0.2882
 3951TIP3    H236049   5.282  -0.003  16.222 -0.2695  1.9410  0.3676
 3952TIP3   OH236050   4.623   4.232  15.205  0.5493  0.1946 -0.7692
 3952TIP3    H136051   4.591   4.266  15.122 -0.4464  0.4257 -0.3071
 3952TIP3    H236052   4.599   4.298  15.270 -0.1367 -0.6984 -0.0684
 3953TIP3   OH236053   1.554   4.595  14.565  0.0868  0.5240  0.3046
 3953TIP3    H136054   1.577   4.648  14.488 -0.7618  2.0697  1.0686
 3953TIP3    H236055   1.589   4.644  14.639  0.9004 -0.9554  0.9492
 3954TIP3   OH236056   4.458   1.300  13.557 -0.0502  0.5644  0.0511
 3954TIP3    H136057   4.413   1.228  13.602  1.8237  0.5811  2.1285
 3954TIP3    H236058   4.398   1.374  13.565 -0.3347  0.2181  1.4105
 3955TIP3   OH236059   0.857   1.705  15.390 -0.1436 -0.0152 -0.0061
 3955TIP3    H136060   0.856   1.779  15.330  0.7589 -1.0304 -1.3126
 3955TIP3    H236061   0.823   1.631  15.339  1.7807 -1.1898  0.2992
 3956TIP3   OH236062   2.164   1.733  14.577  0.1713 -0.2984  0.0673
 3956TIP3    H136063   2.198   1.814  14.540 -1.0337 -0.0585 -0.5906
 3956TIP3    H236064   2.079   1.757  14.614 -0.5480 -1.3799 -0.7909
 3957TIP3   OH236065   3.440   3.939  15.704  0.8202 -0.7944  0.5202
 3957TIP3    H136066   3.521   3.892  15.683 -0.4699 -2.8406 -0.1099
 3957TIP3    H236067   3.414   3.905  15.790  0.9036  0.2974  0.9990
 3958TIP3   OH236068   1.920   0.904  15.182  0.0281 -0.2196 -0.3528
 3958TIP3    H136069   1.936   0.995  15.158 -1.2523  0.6868  1.8365
 3958TIP3    H236070   1.842   0.880  15.132  0.4690 -0.1619 -1.0683
 3959TIP3   OH236071   5.430   4.186  14.684  0.2426 -0.0197 -0.1438
 3959TIP3    H136072   5.384   4.124  14.628 -0.2991 -0.5213  0.8256
 3959TIP3    H236073   5.370   4.202  14.757  1.5179 -0.5729  1.0824
 3960TIP3   OH236074   6.677   0.278  16.187 -0.4483 -0.2198 -0.4595
 3960TIP3    H136075   6.586   0.254  16.170 -0.4177  0.7171 -2.1116
 3960TIP3    H236076   6.713   0.302  16.102  1.2803 -0.2811  0.1971
 3961TIP3   OH236077   4.227   1.727  15.156 -0.0483  0.8180 -0.0007
 3961TIP3    H136078   4.264   1.703  15.241  0.1118  0.9567 -0.0303
 3961TIP3    H236079   4.133   1.733  15.171 -0.1649 -0.3521 -0.1065
 3962TIP3   OH236080   6.671   3.624  15.243 -0.5765 -0.6488  0.1766
 3962TIP3    H136081   6.627   3.621  15.158 -0.9454  2.4339  0.1237
 3962TIP3    H236082   6.600   3.618  15.307 -0.5261 -0.7889  0.2193
 3963TIP3   OH236083   0.936   3.503  15.039  0.3175  0.0941 -0.0329
 3963TIP3    H136084   0.958   3.440  14.970 -1.2202  0.2353 -0.6990
 3963TIP3    H236085   0.852   3.473  15.072 -0.1485  1.4515  0.0644
 3964TIP3   OH236086   1.684   3.786  14.906 -0.3453  0.3393 -0.2399
 3964TIP3    H136087   1.693   3.734  14.986 -0.5337 -0.1289 -0.5229
 3964TIP3    H236088   1.684   3.877  14.937 -1.4270  0.1382  0.4010
 3965TIP3   OH236089   4.363   6.351  14.558 -0.1555  0.2006 -0.0124
 3965TIP3    H136090   4.451   6.380  14.581  0.5359 -1.4893 -0.3139
 3965TIP3    H236091   4.358   6.364  14.463  0.2485 -0.7791 -0.1887
 3966TIP3   OH236092   0.163   2.967  16.410 -0.3074  0.2685  0.3728
 3966TIP3    H136093   0.104   2.949  16.337 -0.1778  0.8901  0.1032
 3966TIP3    H236094   0.138   3.055  16.439  0.5177  0.5696  0.2043
 3967TIP3   OH236095   3.190   5.031  16.909 -0.0485 -0.1066  0.4868
 3967TIP3    H136096   3.242   4.954  16.885 -0.0956 -0.4095  1.3089
 3967TIP3    H236097   3.179   5.024  17.004 -0.7809  0.4582  0.4580
 3968TIP3   OH236098   0.678   3.786  14.449 -0.2045 -0.6933  0.0589
 3968TIP3    H136099   0.665   3.733  14.528 -0.1889 -0.7726  0.0080
 3968TIP3    H236100   0.662   3.726  14.377 -0.1688 -0.6330  0.0003
 3969TIP3   OH236101   2.327   0.732  14.121  0.1628 -0.2234  0.0419
 3969TIP3    H136102   2.255   0.748  14.061  0.6279  2.9097  0.1635
 3969TIP3    H236103   2.303   0.652  14.167 -2.7101  0.1393 -0.6590
 3970TIP3   OH236104   0.011   1.100  14.123  0.2220 -0.3022  0.3978
 3970TIP3    H136105   0.012   1.194  14.143  1.2152  0.1924 -1.6526
 3970TIP3    H236106   0.025   1.057  14.207  2.5587  1.5028  1.0419
 3971TIP3   OH236107   0.837   5.527  14.997 -0.0901 -0.1908  0.1657
 3971TIP3    H136108   0.918   5.579  15.001  1.8788 -3.0562  0.2269
 3971TIP3    H236109   0.866   5.437  15.012 -3.5809 -1.1431  2.0920
 3972TIP3   OH236110   0.132   1.154  15.146 -0.0754  0.1881 -0.5660
 3972TIP3    H136111   0.107   1.241  15.112  1.0699  1.0442  0.6732
 3972TIP3    H236112   0.182   1.115  15.074 -2.0753 -0.2329 -1.8265
 3973TIP3   OH236113   0.701   1.783  13.189 -0.8612  0.3446 -0.8113
 3973TIP3    H136114   0.693   1.871  13.151 -0.8104 -0.3870 -2.6257
 3973TIP3    H236115   0.614   1.764  13.223 -0.8311  1.1484 -0.2548
 3974TIP3   OH236116   6.709   2.574  16.226  0.4480 -0.9502 -0.4534
 3974TIP3    H136117   6.622   2.615  16.229  1.0760  0.4418 -0.5496
 3974TIP3    H236118   6.720   2.537  16.314 -0.3403 -1.3849 -0.5222
 3975TIP3   OH236119   2.186   3.876  16.244 -0.2888 -0.4887  0.0043
 3975TIP3    H136120   2.277   3.852  16.230 -0.3174 -1.4032  1.2077
 3975TIP3    H236121   2.141   3.845  16.165  0.2666 -1.1295 -0.0709
 3976TIP3   OH236122   5.274   3.301  16.913  0.0000  0.1665 -0.1239
 3976TIP3    H136123   5.305   3.390  16.898 -1.5887  0.9303  0.8413
 3976TIP3    H236124   5.319   3.248  16.848  2.3549  1.3575  0.4345
 3977TIP3   OH236125   0.640   4.048  14.163  0.1445 -0.1109  0.3004
 3977TIP3    H136126   0.665   4.141  14.164 -1.1098  0.2351  0.9121
 3977TIP3    H236127   0.724   4.002  14.167  0.8844  0.9554 -1.4930
 3978TIP3   OH236128   5.453   4.058  16.208 -0.8799 -0.4169 -0.0187
 3978TIP3    H136129   5.456   4.146  16.172  2.2979  0.4542  1.9517
 3978TIP3    H236130   5.437   4.071  16.301 -0.7813 -1.9636  0.2395
 3979TIP3   OH236131   4.620   6.191  15.274 -0.3174 -0.4318  0.0515
 3979TIP3    H136132   4.583   6.121  15.220 -0.5096 -0.3264  0.0462
 3979TIP3    H236133   4.591   6.271  15.231  0.7416 -0.3421 -0.5179
 3980TIP3   OH236134   6.670   3.825  14.974 -0.2922 -0.0424  0.1739
 3980TIP3    H136135   6.590   3.784  15.006 -1.7862  1.6594 -1.1519
 3980TIP3    H236136   6.731   3.752  14.960 -2.3187 -1.6438 -0.7083
 3981TIP3   OH236137   3.481   2.082  16.715  0.3651  0.3670  0.4503
 3981TIP3    H136138   3.521   2.110  16.797 -1.3821  0.8690  1.1741
 3981TIP3    H236139   3.549   2.099  16.649  1.5715  0.5560  1.6844
 3982TIP3   OH236140   0.712   6.667  16.971 -0.1083 -0.4121  0.3600
 3982TIP3    H136141   0.751   6.709  16.895  1.7302 -1.0382  0.9003
 3982TIP3    H236142   0.627   6.710  16.981 -0.0987  0.1644 -1.6045
 3983TIP3   OH236143   4.893   2.645  16.739 -0.6339 -0.2081 -0.1645
 3983TIP3    H136144   4.820   2.680  16.688 -0.8637  1.1308  1.0022
 3983TIP3    H236145   4.856   2.629  16.826 -0.2212 -2.3174 -0.3189
 3984TIP3   OH236146   4.256   4.313  15.049  0.3399 -0.3643  0.6011
 3984TIP3    H136147   4.174   4.332  15.001  0.5344 -2.1939 -0.5452
 3984TIP3    H236148   4.279   4.224  15.023  1.5953 -0.6746  2.5605
 3985TIP3   OH236149   3.104   0.195  16.614  0.1379 -0.3945  0.0582
 3985TIP3    H136150   3.009   0.204  16.624 -0.0319 -1.3362 -0.6241
 3985TIP3    H236151   3.125   0.243  16.534  0.6397  2.0090  1.5284
 3986TIP3   OH236152   0.216   0.831  14.560  0.5089  0.1149 -0.0791
 3986TIP3    H136153   0.262   0.775  14.497  2.7424  0.6118  0.9975
 3986TIP3    H236154   0.210   0.778  14.639  0.9207  0.7071  0.3591
 3987TIP3   OH236155   0.615   2.869  16.679  0.2662 -0.0193 -1.0211
 3987TIP3    H136156   0.596   2.778  16.701  2.2390 -0.2866 -0.2105
 3987TIP3    H236157   0.560   2.888  16.603 -0.8405 -1.5966 -0.6500
 3988TIP3   OH236158   2.657   0.143  16.199 -0.5395 -0.2153 -0.2260
 3988TIP3    H136159   2.666   0.172  16.109  0.0725 -0.0535 -0.1230
 3988TIP3    H236160   2.610   0.214  16.243 -0.3228 -0.0298 -0.2917
 3989TIP3   OH236161   1.404   5.366  14.705  0.2836  0.7137  0.1288
 3989TIP3    H136162   1.321   5.397  14.742 -0.9044 -2.2666  0.2040
 3989TIP3    H236163   1.397   5.385  14.611 -0.9001 -0.2327 -0.0051
 3990TIP3   OH236164   5.005   2.062  14.647  0.2465  0.5366  0.2527
 3990TIP3    H136165   4.971   1.972  14.640 -1.4653  1.1459  0.2743
 3990TIP3    H236166   5.070   2.058  14.717  0.6270 -0.7925 -0.1366
 3991TIP3   OH236167   2.608   4.290  15.337  0.1977 -0.2016 -0.0970
 3991TIP3    H136168   2.627   4.384  15.335 -0.5258  0.0111  1.5317
 3991TIP3    H236169   2.687   4.250  15.374  0.2789 -0.1834 -0.2478
 3992TIP3   OH236170   3.154   1.310  14.671  0.3331  0.6535  0.5965
 3992TIP3    H136171   3.166   1.258  14.591  0.5942  0.1028  0.9898
 3992TIP3    H236172   3.163   1.401  14.642 -0.3031  0.4946 -0.1284
 3993TIP3   OH236173   2.036   3.102  15.645 -0.2747 -0.1529 -0.5011
 3993TIP3    H136174   1.945   3.071  15.647 -0.7635  1.2643  0.6485
 3993TIP3    H236175   2.073   3.061  15.566 -1.4220 -2.0321 -0.1249
 3994TIP3   OH236176   5.110   2.540  16.299  0.3679 -0.1193 -0.2661
 3994TIP3    H136177   5.144   2.476  16.362 -0.0816  0.9280  1.0779
 3994TIP3    H236178   5.092   2.618  16.351  3.0170  1.9661 -2.1435
 3995TIP3   OH236179   6.686   1.408  15.693  0.4679  0.6956  0.1281
 3995TIP3    H136180   6.629   1.434  15.621 -0.1775  1.4039  0.8631
 3995TIP3    H236181   6.666   1.316  15.708 -0.8777  1.0555  0.6945
 3996TIP3   OH236182   6.296   3.678  15.868  0.1992 -0.8769  0.2348
 3996TIP3    H136183   6.309   3.602  15.925  1.5763  0.1863  1.4299
 3996TIP3    H236184   6.296   3.753  15.928 -0.3576  0.1351 -0.9806
 3997TIP3   OH236185   3.238   0.359  14.981 -0.4947 -0.0390 -0.0843
 3997TIP3    H136186   3.224   0.428  15.047 -0.7578 -0.4337  0.2758
 3997TIP3    H236187   3.205   0.397  14.899  0.4755  0.7194 -0.1409
 3998TIP3   OH236188   4.113   1.009  16.300 -0.0617 -0.5090 -0.5631
 3998TIP3    H136189   4.192   1.017  16.248  0.2002 -0.5338 -0.1744
 3998TIP3    H236190   4.143   1.015  16.391 -0.4615 -0.8776 -0.4026
 3999TIP3   OH236191   0.732   5.396  14.443  0.0522 -0.4411  0.4544
 3999TIP3    H136192   0.792   5.423  14.513 -0.0257  0.1523  0.2982
 3999TIP3    H236193   0.737   5.468  14.379 -0.2129 -0.7710  0.0622
 4000TIP3   OH236194   1.012   1.957  16.738  0.5249 -0.0786 -0.6749
 4000TIP3    H136195   0.920   1.983  16.735  0.7857  0.8858 -0.5597
 4000TIP3    H236196   1.056   2.016  16.677  1.0592 -0.5558 -0.7571
 4001TIP3   OH236197   3.314   1.066  14.450  0.3298  0.0435 -0.2115
 4001TIP3    H136198   3.379   1.110  14.395 -0.7311  3.4316  1.0101
 4001TIP3    H236199   3.260   1.018  14.388  2.5241 -0.9816 -1.4788
 4002TIP3   OH236200   1.855   5.763  15.829 -0.0898  0.0496  0.2265
 4002TIP3    H136201   1.861   5.796  15.919 -1.7856 -2.2965  1.2860
 4002TIP3    H236202   1.817   5.676  15.838 -0.2403 -0.2784 -2.7871
 4003TIP3   OH236203   6.250   3.846  14.916 -0.3796 -0.2359 -0.5381
 4003TIP3    H136204   6.275   3.938  14.910 -1.6310  0.0758 -1.4588
 4003TIP3    H236205   6.276   3.809  14.832 -0.8713 -0.4512 -0.6000
 4004TIP3   OH236206   5.234   4.572  15.953  0.0832  0.0770  0.0825
 4004TIP3    H136207   5.243   4.622  16.034 -1.9773 -0.1253  0.4818
 4004TIP3    H236208   5.203   4.486  15.981 -1.4720  0.2670 -0.9537
 4005TIP3   OH236209   0.820   5.004  15.146  0.2319 -0.4145  0.1071
 4005TIP3    H136210   0.904   4.986  15.188 -0.3359 -0.3585  1.2897
 4005TIP3    H236211   0.783   4.917  15.128 -0.0613 -0.4378  0.8211
 4006TIP3   OH236212   0.095   2.633  14.807 -0.3255 -0.1155  0.4513
 4006TIP3    H136213   0.129   2.617  14.719 -0.1367 -0.4672  0.5872
 4006TIP3    H236214   0.048   2.553  14.830  0.2528 -0.3158  0.9628
 4007TIP3   OH236215   1.221   2.853  15.937  0.5092  0.4245  1.2300
 4007TIP3    H136216   1.287   2.791  15.967  3.0896  1.9848 -0.7552
 4007TIP3    H236217   1.249   2.937  15.972  1.2067  1.5649 -1.7716
 4008TIP3   OH236218   4.017   2.621  14.402  0.1362 -0.0642  0.0553
 4008TIP3    H136219   4.031   2.705  14.446  0.3556  0.6012 -1.2181
 4008TIP3    H236220   3.971   2.644  14.321  0.8676 -1.0649 -0.6783
 4009TIP3   OH236221   4.465   3.708  16.833  0.4352  0.4943  0.0232
 4009TIP3    H136222   4.379   3.723  16.872  0.0103 -1.0784 -0.2283
 4009TIP3    H236223   4.528   3.742  16.897 -0.3034 -0.2819  1.1808
 4010TIP3   OH236224   1.840   0.675  14.649  0.5022  0.2508  0.2644
 4010TIP3    H136225   1.901   0.602  14.657  2.4576  1.8158  0.6865
 4010TIP3    H236226   1.821   0.700  14.740 -0.6247 -0.0905  0.1317
 4011TIP3   OH236227   2.317   5.326  15.873  0.0704 -0.3616  0.6287
 4011TIP3    H136228   2.334   5.420  15.881 -0.0574 -0.4084  1.5612
 4011TIP3    H236229   2.402   5.288  15.849  0.9431 -0.3733  3.3940
 4012TIP3   OH236230   1.487   5.327  15.705 -0.5030 -0.1657  0.1259
 4012TIP3    H136231   1.575   5.335  15.742 -0.2313  1.2002 -0.7354
 4012TIP3    H236232   1.471   5.412  15.663 -1.4210 -1.0865 -1.4904
 4013TIP3   OH236233   0.370   3.286  15.600 -0.3728  0.4153  0.1657
 4013TIP3    H136234   0.443   3.322  15.651 -2.1679  2.2538  1.6172
 4013TIP3    H236235   0.293   3.334  15.632 -2.2322 -1.4304 -1.2946
 4014TIP3   OH236236   3.325   4.286  15.200 -0.0633  0.5274 -0.2693
 4014TIP3    H136237   3.330   4.373  15.161 -1.8921  2.0065  2.4624
 4014TIP3    H236238   3.342   4.300  15.293 -1.6087 -1.8036  0.4574
 4015TIP3   OH236239   1.006   5.149  16.435 -0.3209 -0.0633  0.1647
 4015TIP3    H136240   0.918   5.186  16.431 -0.2223  0.2320  0.5888
 4015TIP3    H236241   1.057   5.213  16.485  0.1085 -0.2816  0.0162
 4016TIP3   OH236242   4.662   4.937  15.630  0.5937  0.7464  0.7311
 4016TIP3    H136243   4.677   4.931  15.725 -0.2924  0.9802  0.8926
 4016TIP3    H236244   4.663   5.030  15.612  1.6365  0.6796  0.3451
 4017TIP3   OH236245   0.626   1.264  16.777 -0.3428  0.2400 -0.1073
 4017TIP3    H136246   0.532   1.280  16.787 -0.6703 -2.3826  2.0619
 4017TIP3    H236247   0.667   1.342  16.816 -1.6199  0.7628  0.2472
 4018TIP3   OH236248   1.477   0.005  15.462 -0.2930  0.0784  0.3883
 4018TIP3    H136249   1.400   0.039  15.509  0.1281  1.1523  0.3413
 4018TIP3    H236250   1.440  -0.045  15.389 -0.9647  0.8866  0.1523
 4019TIP3   OH236251   4.579   5.460  16.024  0.5379  0.3851  0.4087
 4019TIP3    H136252   4.617   5.497  16.103  2.2886 -0.0563 -0.1739
 4019TIP3    H236253   4.605   5.368  16.025 -0.8161 -0.0229  0.1243
 4020TIP3   OH236254   2.099   3.513  15.632 -0.3687 -0.4319  0.4138
 4020TIP3    H136255   2.023   3.566  15.608 -0.0477 -0.3108 -0.3553
 4020TIP3    H236256   2.172   3.554  15.586 -0.1969 -1.8634 -0.6620
 4021TIP3   OH236257   0.344   3.671  15.487 -0.2636  0.5080  0.3350
 4021TIP3    H136258   0.280   3.617  15.533  0.7083  0.6575  1.9252
 4021TIP3    H236259   0.323   3.761  15.512 -0.8644  0.7679 -1.0161
 4022TIP3   OH236260   1.997   5.236  16.658 -0.0639 -0.1202 -0.2930
 4022TIP3    H136261   2.086   5.226  16.626 -0.6825  0.2010 -2.2099
 4022TIP3    H236262   1.970   5.324  16.631 -0.5409  0.3160  1.4326
 4023TIP3   OH236263   2.931   0.107  15.948 -0.0197 -0.6773  0.0335
 4023TIP3    H136264   2.851   0.060  15.974  0.2148 -2.4992 -2.1274
 4023TIP3    H236265   2.970   0.051  15.880  1.8467  1.3301 -0.6716
 4024TIP3   OH236266   3.469   2.751  15.541  0.5942  0.6134  0.1206
 4024TIP3    H136267   3.413   2.829  15.538  1.5187  1.6002  3.7562
 4024TIP3    H236268   3.410   2.679  15.519 -1.1280  1.9770 -0.0090
 4025TIP3   OH236269   3.217   4.680  14.069  0.2923  0.1826  0.2466
 4025TIP3    H136270   3.309   4.697  14.091  0.6085 -1.1616  0.0227
 4025TIP3    H236271   3.199   4.739  13.996  1.2587 -0.1761 -0.3060
 4026TIP3   OH236272   4.117   1.288  16.774  0.7456 -0.4579  0.4687
 4026TIP3    H136273   4.042   1.240  16.739 -0.3125  1.8109 -0.5948
 4026TIP3    H236274   4.119   1.266  16.867 -0.9534 -0.9183  0.4224
 4027TIP3   OH236275   3.951   1.906  14.307  0.3252  0.1635  0.0896
 4027TIP3    H136276   3.998   1.952  14.376 -0.2883 -0.1991  0.7758
 4027TIP3    H236277   3.979   1.815  14.316 -0.3089 -0.0127  0.3471
 4028TIP3   OH236278   2.237   0.186  15.670  0.0404 -0.0432  0.3667
 4028TIP3    H136279   2.208   0.100  15.699 -1.4121 -0.1313 -1.2065
 4028TIP3    H236280   2.313   0.169  15.614 -1.9408 -0.6691 -2.3194
 4029TIP3   OH236281   5.024   5.752  16.138  0.0149 -0.3585 -0.2307
 4029TIP3    H136282   5.111   5.738  16.176  0.1843  0.1764 -0.4103
 4029TIP3    H236283   4.973   5.676  16.166  0.4938 -0.5936  0.0165
 4030TIP3   OH236284   5.824   2.071  15.338  0.1208 -0.0114  0.0396
 4030TIP3    H136285   5.912   2.057  15.302  0.7601 -2.3484  2.2086
 4030TIP3    H236286   5.769   2.008  15.290 -0.3359  1.1678 -1.0323
 4031TIP3   OH236287   3.507   6.516  16.704  0.5874  0.4063  0.4041
 4031TIP3    H136288   3.506   6.435  16.652  1.8175  0.2749  0.5532
 4031TIP3    H236289   3.426   6.560  16.681 -1.0456 -1.7427  1.7291
 4032TIP3   OH236290   6.060   0.632  14.834 -0.3584 -0.0978 -0.0228
 4032TIP3    H136291   6.008   0.676  14.767 -0.6542 -0.1987  0.1385
 4032TIP3    H236292   6.107   0.563  14.786  0.4053  0.6320 -0.3390
 4033TIP3   OH236293   0.207   1.713  16.163 -0.2144 -0.1968 -0.6235
 4033TIP3    H136294   0.287   1.762  16.147  1.2832 -2.2507  0.1101
 4033TIP3    H236295   0.198   1.655  16.088 -1.5966  0.6856 -1.1732
 4034TIP3   OH236296   1.410   2.687  16.026 -0.0535 -0.2930  0.3826
 4034TIP3    H136297   1.362   2.662  16.105  1.3232 -1.4991  0.9025
 4034TIP3    H236298   1.406   2.609  15.970 -0.7963  0.4595 -0.6551
 4035TIP3   OH236299   5.909   4.741  15.609 -0.4200 -0.4829  0.6313
 4035TIP3    H136300   5.884   4.782  15.691 -1.1382  3.5930 -1.3784
 4035TIP3    H236301   5.831   4.693  15.581 -2.0207  2.2153  0.1125
 4036TIP3   OH236302   3.714   5.376  15.262 -0.4479  0.2609  0.0411
 4036TIP3    H136303   3.657   5.299  15.255 -0.2401  0.0056  1.0134
 4036TIP3    H236304   3.660   5.448  15.231 -1.1384 -0.0573  0.4744
 4037TIP3   OH236305   0.118   0.001  15.016 -0.0640 -0.3630 -0.7964
 4037TIP3    H136306   0.182   0.070  15.030  1.7708 -2.2310  0.6501
 4037TIP3    H236307   0.164  -0.064  14.962 -0.7079 -1.7336  0.2489
 4038TIP3   OH236308   0.137   2.066  15.338  0.0061  0.0220 -0.1134
 4038TIP3    H136309   0.195   2.006  15.291  0.8610  0.7674 -0.0343
 4038TIP3    H236310   0.191   2.144  15.355 -0.5961  0.1795  1.2056
 4039TIP3   OH236311   1.760   5.581  16.791  0.1382  0.2706  0.4119
 4039TIP3    H136312   1.723   5.594  16.703  0.3033  1.0789  0.4530
 4039TIP3    H236313   1.693   5.531  16.837 -0.3191  0.5466  0.0674
 4040TIP3   OH236314   0.382   5.473  16.346  0.6044 -0.3081  0.0563
 4040TIP3    H136315   0.310   5.422  16.383  0.7541 -1.1369 -0.7672
 4040TIP3    H236316   0.407   5.534  16.416 -0.2845 -0.6408  0.6706
 4041TIP3   OH236317   4.505   4.780  17.037  0.3957 -0.0948  1.2904
 4041TIP3    H136318   4.511   4.707  17.099  0.5645  2.3982  4.5001
 4041TIP3    H236319   4.595   4.809  17.025  0.3420 -0.4123 -0.0468
 4042TIP3   OH236320   6.585   0.926  16.109  0.1441  0.3970 -0.0242
 4042TIP3    H136321   6.515   0.930  16.044  0.3840  0.4065 -0.2862
 4042TIP3    H236322   6.605   0.833  16.117 -0.4147  0.3233  0.6145
 4043TIP3   OH236323   5.072   3.548  15.387 -0.5250 -0.3895 -0.7817
 4043TIP3    H136324   5.123   3.618  15.346  1.3518 -0.5550  1.1268
 4043TIP3    H236325   4.983   3.585  15.395  0.1656  1.3725 -0.7964
 4044TIP3   OH236326   2.548   3.527  14.039  0.5141  0.1113  0.7122
 4044TIP3    H136327   2.565   3.463  13.970  0.1586 -0.7095  1.3622
 4044TIP3    H236328   2.629   3.578  14.046  0.4399  0.4374 -0.5283
 4045TIP3   OH236329   6.044   3.884  13.756  0.7033 -0.0398 -0.0498
 4045TIP3    H136330   6.056   3.791  13.739 -1.0943 -0.4515  0.6723
 4045TIP3    H236331   5.967   3.888  13.813  0.5121  1.9189 -0.3794
 4046TIP3   OH236332   6.411   1.887  16.670  0.9200  0.0081 -0.2804
 4046TIP3    H136333   6.467   1.933  16.607 -0.1680 -1.0802 -2.1601
 4046TIP3    H236334   6.399   1.800  16.632 -0.7347 -0.3183  0.8592
 4047TIP3   OH236335   6.262   6.178  15.588 -0.0626 -0.0111  0.0053
 4047TIP3    H136336   6.311   6.114  15.538 -0.2912 -0.9855  0.9886
 4047TIP3    H236337   6.232   6.131  15.666 -1.3511  0.9316  0.1244
 4048TIP3   OH236338   4.227   5.249  14.812  0.1508  0.2005  0.3370
 4048TIP3    H136339   4.292   5.186  14.782  0.0277 -0.6979  1.8915
 4048TIP3    H236340   4.146   5.199  14.817 -0.2018  0.7786  0.4927
 4049TIP3   OH236341   0.715   1.632  15.626  0.2711 -0.1845  0.4780
 4049TIP3    H136342   0.769   1.564  15.667 -0.1422 -0.6943  0.1837
 4049TIP3    H236343   0.764   1.656  15.546  0.5263  0.0285  0.6944
 4050TIP3   OH236344   3.104   1.057  13.878 -0.4509  0.2241 -0.0964
 4050TIP3    H136345   3.176   1.069  13.940 -1.5841  0.5250  1.2011
 4050TIP3    H236346   3.125   0.976  13.832  0.3766 -0.0615  0.7557
 4051TIP3   OH236347   1.054   3.713  16.101 -0.0910 -0.5704 -0.3772
 4051TIP3    H136348   0.965   3.701  16.136 -0.4764  0.4094 -0.9638
 4051TIP3    H236349   1.056   3.805  16.075  1.8065  0.0215  1.5431
 4052TIP3   OH236350   6.701   2.808  16.615 -0.1611  0.6977 -0.4297
 4052TIP3    H136351   6.666   2.724  16.586  0.3535  0.0089  0.8811
 4052TIP3    H236352   6.794   2.805  16.591 -0.5874  1.8443 -2.4102
 4053TIP3   OH236353   1.985   4.184  15.243 -0.3194 -0.3421 -0.1324
 4053TIP3    H136354   1.996   4.102  15.291 -2.1431 -1.0179 -0.7803
 4053TIP3    H236355   2.069   4.197  15.199 -0.1651 -2.1641 -0.4542
 4054TIP3   OH236356   2.339   5.010  15.120  0.1576  0.6319  0.2840
 4054TIP3    H136357   2.322   5.075  15.051 -0.0417  1.1412  0.8070
 4054TIP3    H236358   2.405   4.953  15.082 -0.3041  0.6051 -0.5241
 4055TIP3   OH236359   1.564   2.992  16.294 -0.2282  0.0374  0.3176
 4055TIP3    H136360   1.511   3.012  16.216 -0.0764 -0.0348  0.1974
 4055TIP3    H236361   1.542   2.902  16.315 -0.0211 -0.0495  0.1632
 4056TIP3   OH236362   0.882   0.864  13.127  0.6099 -0.3546  0.3912
 4056TIP3    H136363   0.869   0.835  13.037 -2.2067 -0.4922  0.7331
 4056TIP3    H236364   0.968   0.830  13.151  1.4518 -0.3047 -2.2101
 4057TIP3   OH236365   5.076   1.106  15.452 -0.1834  0.1379  0.4120
 4057TIP3    H136366   4.997   1.148  15.487  0.0800 -0.1011  1.3373
 4057TIP3    H236367   5.044   1.023  15.415 -0.3505 -0.0331  0.9255
 4058TIP3   OH236368   1.945   4.130  15.873 -0.1590 -0.1126  0.0405
 4058TIP3    H136369   2.001   4.075  15.929  0.7902 -0.5589 -1.3100
 4058TIP3    H236370   1.971   4.219  15.895 -0.7737 -0.2218  1.2961
 4059TIP3   OH236371   3.750   3.781  16.236 -0.2255 -0.9078  0.3268
 4059TIP3    H136372   3.693   3.858  16.237  0.6730 -0.2072 -0.2990
 4059TIP3    H236373   3.832   3.812  16.198  0.4698 -1.9708  0.8853
 4060TIP3   OH236374   0.098   3.105  16.684  0.3830 -0.0820 -0.2450
 4060TIP3    H136375   0.166   3.164  16.715  0.9885 -0.8945  0.0151
 4060TIP3    H236376   0.026   3.162  16.658  0.9153  0.7539  0.0908
 4061TIP3   OH236377   3.135   5.072  15.977  0.0463  0.1959 -0.0062
 4061TIP3    H136378   3.064   5.077  16.041  0.0225 -0.1912 -0.0013
 4061TIP3    H236379   3.127   5.153  15.926 -0.3575  0.1835  0.0379
 4062TIP3   OH236380   4.964   0.327  15.347  0.3009 -0.0589  1.1034
 4062TIP3    H136381   5.033   0.350  15.409  0.2842 -2.2840  2.0280
 4062TIP3    H236382   5.002   0.259  15.292 -0.6697 -0.2755  0.6778
 4063TIP3   OH236383   0.926   4.064  15.352  0.2644 -0.0683 -0.2163
 4063TIP3    H136384   0.851   4.011  15.327  0.6953 -0.2842 -1.0864
 4063TIP3    H236385   0.968   4.015  15.423 -1.5189  1.0185  1.7152
 4064TIP3   OH236386   0.167   3.081  15.556 -0.1506 -0.0750 -0.1954
 4064TIP3    H136387   0.165   3.044  15.645 -0.9319 -1.8671 -0.9187
 4064TIP3    H236388   0.252   3.125  15.551 -0.0056 -0.0934  1.3694
 4065TIP3   OH236389   2.260   5.594  15.741  0.0565  0.2470 -0.3399
 4065TIP3    H136390   2.323   5.591  15.813  0.4932 -3.0918 -0.6900
 4065TIP3    H236391   2.176   5.572  15.781 -0.0883  0.5024 -0.5053
 4066TIP3   OH236392   5.363   0.865  14.667 -0.5326 -0.3208  0.1926
 4066TIP3    H136393   5.397   0.851  14.579 -0.2971 -0.2787  0.2759
 4066TIP3    H236394   5.406   0.945  14.697 -0.8363 -0.1719  0.2346
 4067TIP3   OH236395   6.259   5.833  16.101 -0.0122  0.3083 -0.1081
 4067TIP3    H136396   6.267   5.832  16.006 -1.4004  0.9840 -0.2567
 4067TIP3    H236397   6.227   5.921  16.122  0.1922  0.1407  0.9698
 4068TIP3   OH236398   0.054   0.873  15.230 -0.1775 -0.7739 -0.2923
 4068TIP3    H136399   0.146   0.861  15.204  0.1811 -0.8862  0.9434
 4068TIP3    H236400   0.036   0.965  15.212  0.2338 -0.7121 -0.4060
 4069TIP3   OH236401   5.937   3.894  16.851  0.0879  0.0878 -0.2384
 4069TIP3    H136402   5.878   3.904  16.926  0.6429  0.3670  0.1696
 4069TIP3    H236403   5.884   3.850  16.785  0.2701 -2.3900  1.1488
 4070TIP3   OH236404   0.901   3.261  15.395  0.3008 -0.6157 -0.1627
 4070TIP3    H136405   0.855   3.234  15.474 -0.2867  0.7219 -0.0059
 4070TIP3    H236406   0.839   3.241  15.324  0.3407 -0.7383 -0.1623
 4071TIP3   OH236407   1.402   4.723  15.738  0.2096 -0.0664 -0.2207
 4071TIP3    H136408   1.370   4.662  15.804 -0.2619  1.8061  1.3814
 4071TIP3    H236409   1.486   4.754  15.773  1.8470 -1.7905 -2.3544
 4072TIP3   OH236410   4.492   1.965  14.446  0.1582  0.3891  0.0863
 4072TIP3    H136411   4.472   2.044  14.496  2.6859 -1.1266  3.9210
 4072TIP3    H236412   4.579   1.980  14.410 -0.7629  0.5870 -2.2731
 4073TIP3   OH236413   1.525   6.156  15.139 -0.4619 -0.6217 -0.2785
 4073TIP3    H136414   1.480   6.122  15.216  1.4373 -0.4441  0.9880
 4073TIP3    H236415   1.609   6.189  15.173 -0.0376  0.5002 -2.2546
 4074TIP3   OH236416   3.208   1.095  13.163  0.4599 -0.0197 -0.0960
 4074TIP3    H136417   3.276   1.152  13.128  1.6360 -1.1217  0.2987
 4074TIP3    H236418   3.173   1.050  13.086  1.0881 -0.3824 -0.1829
 4075TIP3   OH236419   5.655   2.402  16.907  0.6018 -0.3871 -0.1928
 4075TIP3    H136420   5.720   2.332  16.916 -0.2667 -1.2266 -0.2219
 4075TIP3    H236421   5.665   2.454  16.987 -0.3205 -1.9566  1.0079
 4076TIP3   OH236422   6.346   5.233  16.737  0.5093 -0.2083 -1.4399
 4076TIP3    H136423   6.398   5.198  16.809 -0.1219 -0.5099 -1.1319
 4076TIP3    H236424   6.277   5.284  16.779  1.2067  1.1572 -1.8703
 4077TIP3   OH236425   3.080   0.144  13.849  0.5712 -0.4455  0.3896
 4077TIP3    H136426   3.097   0.049  13.851 -0.5772 -0.6909 -0.6262
 4077TIP3    H236427   3.061   0.163  13.758  1.2793  0.8754  0.5043
 4078TIP3   OH236428   4.165   6.503  16.048 -0.1000  0.1887 -0.0363
 4078TIP3    H136429   4.097   6.451  16.090 -0.8613  0.7530 -0.5520
 4078TIP3    H236430   4.220   6.532  16.121 -0.2127 -0.5425  0.3499
 4079TIP3   OH236431   2.927   6.526  13.600  0.0022  0.2587  0.2905
 4079TIP3    H136432   2.917   6.583  13.677 -0.0694 -0.8504  1.1366
 4079TIP3    H236433   2.854   6.464  13.608 -0.0376  0.1621 -0.7215
 4080TIP3   OH236434   3.182   2.727  16.388  0.0254  0.4963  0.4321
 4080TIP3    H136435   3.156   2.804  16.438 -1.3715  2.2077 -2.6916
 4080TIP3    H236436   3.144   2.739  16.302  0.9947 -3.0313 -0.6861
 4081TIP3   OH236437   3.616   3.120  15.321 -0.1535 -0.0082  0.2273
 4081TIP3    H136438   3.636   3.028  15.304  0.5580  0.1266  0.2985
 4081TIP3    H236439   3.579   3.121  15.409  0.6621 -0.1252  0.5784
 4082TIP3   OH236440   1.979   6.507  16.644 -0.5007 -0.1343 -0.4059
 4082TIP3    H136441   1.895   6.552  16.632 -1.4738 -1.3699  1.1559
 4082TIP3    H236442   1.974   6.433  16.584 -1.6365 -1.5266  1.2769
 4083TIP3   OH236443   3.955   3.488  16.909  0.2031  0.1988 -1.0694
 4083TIP3    H136444   3.995   3.561  16.955  0.9622 -1.7934  1.7006
 4083TIP3    H236445   4.023   3.421  16.906 -1.0321 -1.0865 -1.8212
 4084TIP3   OH236446   2.355   2.212  16.099  0.1021 -0.0426 -0.6547
 4084TIP3    H136447   2.280   2.155  16.115  0.0955  0.1095 -0.1347
 4084TIP3    H236448   2.426   2.175  16.150  0.1105  0.3798 -0.3509
 4085TIP3   OH236449   2.153   4.211  16.703  0.0646 -0.5756  0.4890
 4085TIP3    H136450   2.178   4.133  16.652 -0.3512 -1.7512  2.0113
 4085TIP3    H236451   2.225   4.222  16.765  0.3236  0.5372  0.0142
 4086TIP3   OH236452   0.483   6.145  15.465  0.1703 -0.1370 -0.3163
 4086TIP3    H136453   0.429   6.224  15.463  1.3017  0.8878 -5.3716
 4086TIP3    H236454   0.564   6.172  15.507 -1.6624 -0.7096  4.0676
 4087TIP3   OH236455   0.119   0.124  16.602  0.1150 -0.2497 -0.0651
 4087TIP3    H136456   0.157   0.044  16.640 -0.5881 -0.5575  0.0113
 4087TIP3    H236457   0.144   0.194  16.663  2.2500 -0.0820 -1.0341
 4088TIP3   OH236458   6.133   5.996  14.744  0.2289  0.3671  0.2055
 4088TIP3    H136459   6.054   5.948  14.719  0.8536 -0.7680  0.3811
 4088TIP3    H236460   6.178   6.013  14.662  0.8813 -0.9090  0.2799
 4089TIP3   OH236461   2.878   3.336  14.901  0.3765  0.4315  0.0345
 4089TIP3    H136462   2.913   3.352  14.813  1.6463 -1.8270  0.0698
 4089TIP3    H236463   2.954   3.320  14.955 -0.5132 -0.9134  0.9406
 4090TIP3   OH236464   1.029   2.786  16.354 -0.7043 -0.0054 -0.0750
 4090TIP3    H136465   0.944   2.831  16.349 -1.5748 -1.6404 -1.5330
 4090TIP3    H236466   1.035   2.757  16.444 -0.7970  1.7189  0.5241
 4091TIP3   OH236467   1.421   5.799  15.450 -0.1938 -0.1588  0.3636
 4091TIP3    H136468   1.440   5.716  15.495  1.4412  0.5123  0.9675
 4091TIP3    H236469   1.457   5.787  15.362 -1.0729 -0.5103  0.0299
 4092TIP3   OH236470   3.279   1.758  16.573 -0.1624 -0.3469  0.5346
 4092TIP3    H136471   3.317   1.765  16.486  0.5522 -0.9527  0.7799
 4092TIP3    H236472   3.215   1.828  16.578 -0.2072 -0.3090 -0.4747
 4093TIP3   OH236473   3.485   1.418  16.846 -0.2923 -0.4608  0.1287
 4093TIP3    H136474   3.416   1.484  16.836  0.2886  0.0882 -0.3085
 4093TIP3    H236475   3.437   1.335  16.852 -1.0183 -0.0318  0.4255
 4094TIP3   OH236476   1.229   2.576  14.193 -0.4769 -0.3222  0.0171
 4094TIP3    H136477   1.244   2.630  14.116  3.1431  0.8101  1.2962
 4094TIP3    H236478   1.174   2.631  14.250  0.1016  0.4994 -0.1945
 4095TIP3   OH236479   3.557   6.213  14.099 -0.1665  0.5024 -0.2694
 4095TIP3    H136480   3.505   6.164  14.163 -0.4207  0.6373 -0.3727
 4095TIP3    H236481   3.529   6.180  14.014  1.3657 -0.8893 -0.2849
 4096TIP3   OH236482   5.650   0.580  16.146 -0.1118 -0.0523  0.2327
 4096TIP3    H136483   5.614   0.501  16.105 -2.0665  0.3911  0.9697
 4096TIP3    H236484   5.704   0.620  16.078 -0.4560 -1.1313 -0.7174
 4097TIP3   OH236485   1.093   3.324  14.873 -0.0803 -0.5337 -0.1179
 4097TIP3    H136486   1.178   3.336  14.831 -0.3813 -1.4097 -1.0056
 4097TIP3    H236487   1.112   3.272  14.951  0.2606 -0.2823 -0.0297
 4098TIP3   OH236488   0.513   2.400  14.686 -0.3725  0.1955  0.6882
 4098TIP3    H136489   0.469   2.317  14.667  1.7132 -1.0512  1.0226
 4098TIP3    H236490   0.558   2.386  14.769  0.0007  1.6779  0.7718
 4099TIP3   OH236491   6.333   2.984  16.533 -0.3455  0.2792  0.0951
 4099TIP3    H136492   6.360   2.905  16.581  0.6887  0.6467  0.1446
 4099TIP3    H236493   6.284   3.036  16.597 -2.7452 -1.1455 -0.4398
 4100TIP3   OH236494   2.824   5.078  15.900  0.7689 -0.1957  0.3113
 4100TIP3    H136495   2.797   5.083  15.809  0.8234 -1.2142  0.2269
 4100TIP3    H236496   2.857   5.165  15.921  0.5867  0.0907 -0.5813
 4101TIP3   OH236497   3.521   1.792  15.655  0.4965 -0.0560  0.7652
 4101TIP3    H136498   3.548   1.702  15.671  0.3075 -0.0968  0.8478
 4101TIP3    H236499   3.603   1.841  15.649  0.8615 -0.7932 -2.8512
 4102TIP3   OH236500   3.221   1.054  15.156  0.4554 -0.0061 -0.1138
 4102TIP3    H136501   3.182   1.064  15.069 -0.7073 -3.1122 -0.0533
 4102TIP3    H236502   3.191   1.131  15.204 -3.1220 -0.6674 -1.0298
 4103TIP3   OH236503   6.000   2.514  13.783 -0.3009  0.2140  0.2563
 4103TIP3    H136504   5.914   2.472  13.791  0.2059 -1.1883 -1.0567
 4103TIP3    H236505   5.999   2.554  13.696  0.3598  0.2103  0.2413
 4104TIP3   OH236506   0.234   0.743  15.955  0.1204  0.7412  0.8512
 4104TIP3    H136507   0.206   0.834  15.970 -2.0669  0.2509  0.0979
 4104TIP3    H236508   0.224   0.701  16.040  0.2656  0.9829  0.9897
 4105TIP3   OH236509   4.481   3.869  15.678  0.0965  0.5031 -0.2509
 4105TIP3    H136510   4.396   3.903  15.649 -0.7678 -1.8437 -0.6135
 4105TIP3    H236511   4.461   3.811  15.751  1.3304 -0.5312 -0.6993
 4106TIP3   OH236512   0.952   6.539  16.117  0.2046  0.6940  0.0589
 4106TIP3    H136513   0.973   6.529  16.024  2.0862 -4.4515  0.7358
 4106TIP3    H236514   0.857   6.536  16.121  0.1431 -0.7189 -1.6113
 4107TIP3   OH236515   3.426   5.110  15.567  0.1799  0.5135  0.1426
 4107TIP3    H136516   3.359   5.151  15.511  0.7417  2.9588  1.1314
 4107TIP3    H236517   3.378   5.045  15.618 -0.5539 -0.9856 -2.2757
 4108TIP3   OH236518   5.145   2.858  15.983  0.6608  0.1763  0.2379
 4108TIP3    H136519   5.212   2.831  15.920 -0.3343 -1.7116 -0.1041
 4108TIP3    H236520   5.103   2.934  15.942  0.8102 -0.3016 -0.8255
 4109TIP3   OH236521   0.686   0.466  13.581  0.4996 -0.0317  0.9458
 4109TIP3    H136522   0.609   0.522  13.572  0.4800 -0.3436 -1.4983
 4109TIP3    H236523   0.760   0.526  13.587  0.4431  0.3403 -1.2873
 4110TIP3   OH236524   1.316   6.672  13.832  0.4683 -0.1084 -0.1335
 4110TIP3    H136525   1.400   6.640  13.797  0.2806 -0.3797 -0.3343
 4110TIP3    H236526   1.253   6.655  13.762  0.3137  0.4431 -0.1296
 4111TIP3   OH236527   5.114   4.168  17.129  0.0772  0.3805 -0.0538
 4111TIP3    H136528   5.105   4.261  17.148  0.8165  0.2692  0.9488
 4111TIP3    H236529   5.026   4.133  17.136  0.1246  0.5782  2.0696
 4112TIP3   OH236530   0.718   3.105  14.912 -0.2166 -0.8973 -0.1844
 4112TIP3    H136531   0.753   3.131  14.826 -0.8125 -1.9438 -0.7729
 4112TIP3    H236532   0.763   3.024  14.933 -1.0197 -1.3514 -0.1471
 4113TIP3   OH236533   3.195   0.716  14.415 -0.2948 -0.0692 -0.1380
 4113TIP3    H136534   3.265   0.651  14.420 -0.4382 -0.1390  3.2248
 4113TIP3    H236535   3.124   0.672  14.368  0.3136 -1.6629  0.3951
 4114TIP3   OH236536   0.022   4.923  14.927 -0.6206 -0.1112 -0.2586
 4114TIP3    H136537   0.105   4.969  14.939  0.5103 -1.2421 -3.1092
 4114TIP3    H236538  -0.012   4.912  15.016  2.3368  0.2337  1.0180
 4115TIP3   OH236539   2.555   2.096  16.246  0.1748 -0.1732 -0.0267
 4115TIP3    H136540   2.554   2.034  16.319  1.0742  1.7985  1.7765
 4115TIP3    H236541   2.610   2.054  16.180  1.6764 -0.8876  1.5700
 4116TIP3   OH236542   4.979   1.270  16.176 -0.2968 -0.3675 -0.1710
 4116TIP3    H136543   4.894   1.236  16.148  0.3039 -2.5891  0.5383
 4116TIP3    H236544   4.964   1.299  16.266 -0.4026 -0.3244 -0.2034
 4117TIP3   OH236545   4.634   2.634  15.316  0.0056 -0.2360  0.2665
 4117TIP3    H136546   4.612   2.686  15.393 -0.9779  0.7836 -0.6677
 4117TIP3    H236547   4.549   2.605  15.281  0.5066 -2.4374  0.6881
 4118TIP3   OH236548   0.570   1.892  15.665  0.3455 -0.3314 -0.5509
 4118TIP3    H136549   0.476   1.893  15.647 -0.6385 -1.7849  3.3654
 4118TIP3    H236550   0.603   1.816  15.618 -0.9961 -1.2453 -0.0751
 4119TIP3   OH236551   2.251   3.455  16.940 -0.2491 -0.3409  0.2865
 4119TIP3    H136552   2.187   3.446  17.010 -0.0619  0.6859  0.6007
 4119TIP3    H236553   2.275   3.365  16.918 -1.4694 -0.7209  0.4529
 4120TIP3   OH236554   0.812   0.068  16.539 -0.4066 -0.3599 -0.4543
 4120TIP3    H136555   0.818   0.083  16.633 -0.9491  0.3890 -0.5279
 4120TIP3    H236556   0.852   0.146  16.499 -0.4777 -0.5163 -0.8430
 4121TIP3   OH236557   0.970   1.441  13.093 -0.1297 -0.1195 -0.1515
 4121TIP3    H136558   0.891   1.414  13.140  0.6813 -2.7448 -0.1919
 4121TIP3    H236559   0.996   1.364  13.042  1.4853  1.2486 -1.5252
 4122TIP3   OH236560   0.750   5.240  15.043  0.2722  0.2470 -0.1929
 4122TIP3    H136561   0.804   5.249  14.964  0.1067 -0.3225 -0.3815
 4122TIP3    H236562   0.787   5.165  15.089  0.9352  1.1432  0.7479
 4123TIP3   OH236563   4.763   4.641  16.118 -0.2601  0.6492 -0.1226
 4123TIP3    H136564   4.834   4.629  16.055 -1.1662 -0.1410 -1.0321
 4123TIP3    H236565   4.689   4.670  16.065 -0.9700  0.2549  0.6316
 4124TIP3   OH236566   1.977   5.507  16.998 -0.1461 -0.0168  0.3731
 4124TIP3    H136567   1.911   5.520  16.929 -0.4313 -1.8295  0.2604
 4124TIP3    H236568   1.939   5.440  17.055  0.6038  0.6224  1.6512
 4125TIP3   OH236569   1.535   1.995  15.877  0.0817  0.1594 -0.4072
 4125TIP3    H136570   1.586   1.916  15.896  0.1463  0.8144  2.8180
 4125TIP3    H236571   1.555   2.016  15.786  2.6111 -1.7102 -0.3860
 4126TIP3   OH236572   2.758   2.190  15.335 -0.4682  0.3191  0.1599
 4126TIP3    H136573   2.720   2.236  15.410 -1.4150 -0.3015  0.0838
 4126TIP3    H236574   2.789   2.107  15.371  1.9156  1.2575  0.4452
 4127TIP3   OH236575   0.398   0.544  15.823  0.2403 -0.4129  0.0373
 4127TIP3    H136576   0.345   0.615  15.860 -0.6085  0.4210 -2.6013
 4127TIP3    H236577   0.340   0.468  15.824  0.1167 -0.3186  0.1453
 4128TIP3   OH236578   4.958   2.032  16.756 -0.6144  0.1270  0.4289
 4128TIP3    H136579   4.992   1.943  16.740 -0.0080  0.6998 -1.8353
 4128TIP3    H236580   4.870   2.031  16.719 -0.2224  0.7336 -0.5542
 4129TIP3   OH236581   6.571   2.100  14.037 -0.3497  0.5030  0.2586
 4129TIP3    H136582   6.532   2.028  13.988 -1.7068 -0.2087  2.2783
 4129TIP3    H236583   6.511   2.173  14.022  0.6645  1.0959 -1.2281
 4130TIP3   OH236584   1.365   3.449  14.186 -0.1734  0.0034  0.0986
 4130TIP3    H136585   1.288   3.403  14.221  0.2291 -0.8096 -0.0705
 4130TIP3    H236586   1.392   3.508  14.257 -0.5172 -0.2357  0.4302
 4131TIP3   OH236587   1.319   6.069  16.247 -0.0998  0.2621 -0.4161
 4131TIP3    H136588   1.357   6.153  16.221 -1.1245  0.7453 -0.3862
 4131TIP3    H236589   1.225   6.080  16.235 -0.3463 -0.5228  0.6128
 4132TIP3   OH236590   4.973   2.610  15.932 -0.3755 -0.6278 -0.0790
 4132TIP3    H136591   5.022   2.686  15.963 -0.7153 -0.0649 -0.8793
 4132TIP3    H236592   4.953   2.630  15.840 -0.7617 -1.5330 -0.2076
 4133TIP3   OH236593   0.620   0.271  14.981 -0.0752 -0.1884 -0.0796
 4133TIP3    H136594   0.666   0.328  14.919 -1.0184  1.1285  0.3825
 4133TIP3    H236595   0.625   0.184  14.941  2.0441  0.0443 -0.4446
 4134TIP3   OH236596   1.870   0.753  15.410  0.0011  0.5903 -0.2650
 4134TIP3    H136597   1.775   0.744  15.410 -0.1053  1.2453  1.9871
 4134TIP3    H236598   1.894   0.754  15.317 -2.2363  0.9965 -0.8844
 4135TIP3   OH236599   6.496   2.744  16.245  0.1970  0.2900  0.4656
 4135TIP3    H136600   6.486   2.759  16.152  1.8292 -0.0267  0.2103
 4135TIP3    H236601   6.487   2.831  16.285  2.8090  1.0166 -0.3384
 4136TIP3   OH236602   3.426   0.638  15.183 -0.5733  0.4269  0.0375
 4136TIP3    H136603   3.478   0.718  15.191  0.2330  0.0384 -1.1527
 4136TIP3    H236604   3.338   0.668  15.160 -0.9329  1.0854  2.0406
 4137TIP3   OH236605   4.169   2.485  16.770  0.0365  0.1434  0.0497
 4137TIP3    H136606   4.081   2.523  16.772 -0.1608 -0.2882 -0.1449
 4137TIP3    H236607   4.195   2.480  16.862 -0.6847 -0.9323  0.2195
 4138TIP3   OH236608   4.519   2.710  16.358 -0.5168  0.0929 -0.1125
 4138TIP3    H136609   4.551   2.744  16.274 -2.1380  0.9148 -0.4312
 4138TIP3    H236610   4.523   2.786  16.417 -0.3521 -0.2230  0.2873
 4139TIP3   OH236611   3.261   2.046  15.729 -0.4361  0.5082 -0.5338
 4139TIP3    H136612   3.311   1.975  15.769 -0.8545  0.3797 -0.2324
 4139TIP3    H236613   3.193   2.066  15.793  0.0226  1.5750 -0.3586
 4140TIP3   OH236614   1.336   4.178  15.357  0.2384 -0.0308  0.0365
 4140TIP3    H136615   1.301   4.250  15.304 -2.2412 -1.0244  0.1749
 4140TIP3    H236616   1.323   4.100  15.303 -0.1082 -0.7644  1.1518
 4141TIP3   OH236617   0.990   3.767  15.753 -0.6064 -0.6250  0.8538
 4141TIP3    H136618   0.908   3.746  15.799 -0.1497 -0.0064  1.9953
 4141TIP3    H236619   1.033   3.682  15.743 -0.4028 -0.7135  2.2339
 4142TIP3   OH236620   0.753   6.211  15.323  0.3853 -0.3334  0.5164
 4142TIP3    H136621   0.742   6.125  15.283  0.4399 -0.9161  1.6908
 4142TIP3    H236622   0.714   6.202  15.410 -0.3467  1.0834  0.3575
 4143TIP3   OH236623   6.609   1.300  16.013  0.4283 -0.2466 -0.6687
 4143TIP3    H136624   6.704   1.301  16.025  0.4099 -1.6035 -0.2846
 4143TIP3    H236625   6.576   1.244  16.083 -0.7863  1.1748 -0.0469
 4144TIP3   OH236626   4.116   2.862  16.084  0.3718 -0.0493 -0.1866
 4144TIP3    H136627   4.133   2.834  16.174  0.0392 -1.4416 -0.5217
 4144TIP3    H236628   4.029   2.826  16.065  0.9884 -0.9091 -1.4777
 4145TIP3   OH236629   0.784   6.417  15.727  0.3679  0.1990  0.6191
 4145TIP3    H136630   0.732   6.495  15.747 -1.5222 -0.8872  0.1210
 4145TIP3    H236631   0.856   6.450  15.673 -0.3519  1.6182  0.4745
 4146TIP3   OH236632   0.668   4.346  16.686 -0.0945  0.0463  0.2650
 4146TIP3    H136633   0.577   4.334  16.712 -0.1095 -0.9433 -0.1851
 4146TIP3    H236634   0.664   4.355  16.590  0.4808 -3.1495 -0.1972
 4147TIP3   OH236635   3.057   0.009  13.352  0.0202 -0.0631 -0.2102
 4147TIP3    H136636   3.120   0.029  13.283 -1.5869  0.7736 -1.4876
 4147TIP3    H236637   2.993  -0.049  13.311 -0.4596 -0.3198  0.8541
 4148TIP3   OH236638   6.152   1.553  15.031  0.0593 -0.1205  0.2217
 4148TIP3    H136639   6.166   1.541  15.124 -1.8555  0.6710  0.6577
 4148TIP3    H236640   6.219   1.615  15.003  0.1445  0.2526  1.2464
 4149TIP3   OH236641   6.514   5.358  15.112 -0.3074 -0.0286  0.3854
 4149TIP3    H136642   6.561   5.441  15.117 -1.3250  0.7874 -1.9524
 4149TIP3    H236643   6.578   5.292  15.136  1.0176  1.3142  0.6785
 4150TIP3   OH236644   5.192   1.400  14.224 -0.8872  0.2908  0.0111
 4150TIP3    H136645   5.137   1.437  14.294 -1.2165  0.4113 -0.3057
 4150TIP3    H236646   5.161   1.443  14.145  0.6198  1.4293  0.0004
 4151TIP3   OH236647   4.349   3.160  16.900  0.0900 -0.2276  0.5912
 4151TIP3    H136648   4.302   3.088  16.859 -0.8384  1.0649 -0.6776
 4151TIP3    H236649   4.419   3.182  16.838 -0.9342  1.3225 -0.0819
 4152TIP3   OH236650   2.658   0.836  15.208  0.0945  0.1003 -0.4261
 4152TIP3    H136651   2.664   0.912  15.266  0.0390 -0.0866 -0.1760
 4152TIP3    H236652   2.710   0.768  15.251  2.7343  0.8989 -2.1015
 4153TIP3   OH236653   3.203   2.693  16.973  0.2843 -0.1826 -0.4549
 4153TIP3    H136654   3.187   2.635  16.899 -0.5836  0.1323 -0.5363
 4153TIP3    H236655   3.264   2.759  16.939  0.9725 -0.8270 -0.4725
 4154TIP3   OH236656   3.710   3.867  15.131  0.4894  0.0266 -0.4269
 4154TIP3    H136657   3.803   3.867  15.154  0.4195 -1.3472 -0.0798
 4154TIP3    H236658   3.694   3.781  15.092 -1.2729 -0.9692  2.2396
 4155TIP3   OH236659   1.528   4.838  16.566  0.4485  0.6474 -0.0323
 4155TIP3    H136660   1.436   4.831  16.542  0.3687 -1.8080  0.7555
 4155TIP3    H236661   1.573   4.777  16.508  1.5048  1.3242  0.0423
 4156TIP3   OH236662   2.165   2.408  14.927 -0.6573  0.2231  0.4596
 4156TIP3    H136663   2.240   2.399  14.986 -0.5722 -2.0945  0.0919
 4156TIP3    H236664   2.202   2.449  14.848  0.1473 -0.5114  0.4406
 4157TIP3   OH236665   4.650   2.613  15.822 -0.1831  0.2327  0.1525
 4157TIP3    H136666   4.598   2.560  15.883  0.1273 -0.0848  0.1426
 4157TIP3    H236667   4.674   2.690  15.872 -0.1449  0.0898  0.3558
 4158TIP3   OH236668   0.143   2.891  15.358  0.7698 -1.0787 -0.1006
 4158TIP3    H136669   0.114   2.957  15.420  2.6466 -0.4057  0.1455
 4158TIP3    H236670   0.204   2.836  15.408  1.5629 -1.1269 -1.0677
 4159TIP3   OH236671   6.110   3.003  16.730  0.5120  1.1582 -0.0768
 4159TIP3    H136672   6.175   2.932  16.733 -1.4332 -0.9843 -3.2625
 4159TIP3    H236673   6.041   2.975  16.790  1.1956  2.0559  1.1678
 4160TIP3   OH236674   4.029   4.706  15.140  0.5758 -0.1826  1.0017
 4160TIP3    H136675   3.974   4.782  15.121  1.0458 -0.1366 -0.3282
 4160TIP3    H236676   3.968   4.639  15.171  0.1299  0.6648  1.9853
 4161TIP3   OH236677   1.765   3.829  16.064  0.6548  1.0434  0.5484
 4161TIP3    H136678   1.720   3.745  16.056  0.8785  0.8360  1.3324
 4161TIP3    H236679   1.695   3.894  16.060  0.5956  0.9275 -1.4170
 4162TIP3   OH236680   3.293   2.455  14.361  0.1936  0.7976  0.1574
 4162TIP3    H136681   3.351   2.385  14.391 -0.5292  0.6794  1.3393
 4162TIP3    H236682   3.336   2.490  14.283  0.9954 -0.3931  0.0428
 4163TIP3   OH236683   0.474   5.883  17.055  0.1923 -0.3568  0.6039
 4163TIP3    H136684   0.493   5.805  17.107  0.3458 -1.8273 -1.5031
 4163TIP3    H236685   0.538   5.880  16.983 -0.6947  0.9531 -0.2877
 4164TIP3   OH236686   3.521   5.434  16.081 -0.4228  0.2476 -0.3275
 4164TIP3    H136687   3.531   5.484  16.000  0.1236  0.3579 -0.1956
 4164TIP3    H236688   3.558   5.491  16.149 -1.0896  0.2542  0.0362
 4165TIP3   OH236689   4.844   4.758  16.610  0.0570 -0.3812  0.1272
 4165TIP3    H136690   4.819   4.746  16.518 -0.6395 -0.5605  0.3295
 4165TIP3    H236691   4.800   4.839  16.636 -0.0668 -0.5368  0.4072
 4166TIP3   OH236692   1.349   6.219  14.220  0.2290  0.1828  0.0692
 4166TIP3    H136693   1.395   6.297  14.252 -0.5985 -0.0976  2.0643
 4166TIP3    H236694   1.310   6.248  14.137  2.1682  1.0426 -0.6161
 4167TIP3   OH236695   1.665   6.563  15.082  0.2948 -0.3027 -0.0233
 4167TIP3    H136696   1.708   6.479  15.067  0.4651 -0.4981  1.4255
 4167TIP3    H236697   1.617   6.551  15.164 -1.9831  0.1300 -1.2001
 4168TIP3   OH236698   6.504   6.729  13.897  0.3424 -0.1792 -0.2736
 4168TIP3    H136699   6.439   6.700  13.961  1.5127 -0.4751  0.8170
 4168TIP3    H236700   6.565   6.656  13.889  1.7660  0.8905  0.4027
 4169TIP3   OH236701   6.235   5.115  15.707 -0.4741  0.3639  0.6639
 4169TIP3    H136702   6.179   5.094  15.783 -0.5119  1.6072  0.9947
 4169TIP3    H236703   6.232   5.210  15.700  0.0641  0.3143 -0.5110
 4170TIP3   OH236704   2.701   0.285  14.454  0.6557 -0.2204 -0.1628
 4170TIP3    H136705   2.661   0.328  14.378 -0.2915 -1.4614 -0.3979
 4170TIP3    H236706   2.655   0.323  14.529 -1.0920 -1.6643 -0.4327
 4171TIP3   OH236707   5.547   2.909  15.590  0.4074 -0.1645 -0.0506
 4171TIP3    H136708   5.596   2.989  15.610  0.0092  0.1371 -0.2746
 4171TIP3    H236709   5.456   2.931  15.609  0.2807 -0.5237 -0.2331
 4172TIP3   OH236710   5.058   0.607  15.238 -0.2380  0.0768 -0.0090
 4172TIP3    H136711   4.994   0.539  15.258 -0.2038 -0.7453 -2.3790
 4172TIP3    H236712   5.141   0.560  15.230 -0.1630  0.3925 -1.4035
 4173TIP3   OH236713   5.207   1.558  15.531  0.2218  0.3827  0.0663
 4173TIP3    H136714   5.188   1.503  15.606  2.8229 -0.4570  0.2109
 4173TIP3    H236715   5.174   1.645  15.555 -0.7053 -0.2939  1.3320
 4174TIP3   OH236716   2.336   0.279  15.916  0.6534 -0.0180  0.1156
 4174TIP3    H136717   2.290   0.252  15.837 -1.1174  0.9405  0.7752
 4174TIP3    H236718   2.343   0.199  15.969  1.4386 -0.5610 -0.7652
 4175TIP3   OH236719   1.951   5.429  15.511  0.1417  0.3623 -0.7080
 4175TIP3    H136720   2.009   5.364  15.551 -2.2166 -1.5307 -0.1518
 4175TIP3    H236721   1.963   5.417  15.417  0.5209 -0.1163 -0.6046
 4176TIP3   OH236722   5.964   4.673  14.629  0.1211  0.2819  0.3590
 4176TIP3    H136723   5.979   4.762  14.596 -1.8612  0.4791 -0.1792
 4176TIP3    H236724   5.961   4.683  14.724 -0.7892  0.9494  0.2789
 4177TIP3   OH236725   3.680   6.719  14.341  0.0655 -0.4906  0.0973
 4177TIP3    H136726   3.755   6.686  14.292 -0.2836 -2.5999  0.8913
 4177TIP3    H236727   3.714   6.737  14.429  0.4270  2.1773 -0.4923
 4178TIP3   OH236728   3.124   0.396  16.426 -0.3541 -0.3726  0.3324
 4178TIP3    H136729   3.178   0.455  16.478 -0.0354 -0.2621 -0.1099
 4178TIP3    H236730   3.081   0.453  16.362 -0.8480 -0.4862  0.5611
 4179TIP3   OH236731   2.677   6.401  13.810 -0.0367  0.1297 -0.4169
 4179TIP3    H136732   2.641   6.421  13.724  1.2803  0.7425 -0.8596
 4179TIP3    H236733   2.732   6.324  13.795 -2.9579 -2.3824  0.7332
 4180TIP3   OH236734   1.502   6.216  15.651 -0.5896 -0.6683  0.4251
 4180TIP3    H136735   1.575   6.276  15.636 -1.5438  0.1415 -1.2292
 4180TIP3    H236736   1.460   6.249  15.731 -0.8609  0.6817 -0.2333
 4181TIP3   OH236737   5.452   5.026  16.916  0.4728 -0.2884 -0.1190
 4181TIP3    H136738   5.419   5.065  16.835 -0.3802 -0.3471  0.1956
 4181TIP3    H236739   5.547   5.020  16.902  0.6772  2.0538 -0.1114
 4182TIP3   OH236740   3.538   5.534  15.138 -0.0323  0.3048 -0.2803
 4182TIP3    H136741   3.561   5.557  15.048  1.6763  1.0015  0.3023
 4182TIP3    H236742   3.514   5.618  15.178  0.3715  0.1683  0.2389
 4183TIP3   OH236743   1.773   1.968  14.285 -0.1186 -0.5013 -0.4815
 4183TIP3    H136744   1.743   1.878  14.274  0.1372 -0.7388  0.5855
 4183TIP3    H236745   1.708   2.022  14.240 -0.4808 -1.2007 -0.7979
 4184TIP3   OH236746   4.182   5.506  14.906 -0.0530 -0.2616  0.4710
 4184TIP3    H136747   4.171   5.434  14.844 -0.0119 -1.0406  1.3429
 4184TIP3    H236748   4.257   5.480  14.960  0.9181  1.1525 -0.1633
 4185TIP3   OH236749   3.771   2.388  15.483  0.3056 -0.0249  0.1065
 4185TIP3    H136750   3.725   2.331  15.544  0.9866 -1.0030 -0.2677
 4185TIP3    H236751   3.831   2.330  15.436  0.9896  0.9916 -0.3225
 4186TIP3   OH236752   2.600   0.731  14.141 -0.4941 -0.2211 -0.0980
 4186TIP3    H136753   2.506   0.739  14.156 -1.2197 -2.5546 -2.6630
 4186TIP3    H236754   2.608   0.688  14.056  2.8635 -1.9482  0.9096
 4187TIP3   OH236755   2.734   0.448  16.559 -0.5752  0.0465 -0.3117
 4187TIP3    H136756   2.646   0.448  16.521 -0.9516  1.4075  0.4967
 4187TIP3    H236757   2.755   0.355  16.569 -1.4032 -0.3235 -1.6515
 4188TIP3   OH236758   0.850   3.919  14.283 -0.2872 -0.0651  0.0854
 4188TIP3    H136759   0.834   3.829  14.253 -2.2594  0.1959  0.2211
 4188TIP3    H236760   0.801   3.927  14.364 -0.2617  1.1755  0.0037
 4189TIP3   OH236761   3.731   4.491  16.431 -0.4055 -0.7428  0.4093
 4189TIP3    H136762   3.822   4.502  16.458 -0.7004  0.6644  0.8881
 4189TIP3    H236763   3.681   4.493  16.512 -0.8570 -1.8209  0.1778
 4190TIP3   OH236764   5.491   4.323  16.155  0.3337 -0.1549  0.3302
 4190TIP3    H136765   5.532   4.409  16.143  0.1575 -0.4147 -2.8053
 4190TIP3    H236766   5.401   4.335  16.125 -0.1212 -1.1160  1.2651
 4191TIP3   OH236767   5.157   1.241  13.736  0.0590 -0.2698  0.0614
 4191TIP3    H136768   5.070   1.249  13.697  1.1482  2.3130 -2.2031
 4191TIP3    H236769   5.208   1.194  13.670  0.9985  0.6268  0.1231
 4192TIP3   OH236770   0.241   5.779  14.574 -0.2343 -0.0319 -0.8517
 4192TIP3    H136771   0.265   5.869  14.555 -0.0750 -0.0108 -0.5526
 4192TIP3    H236772   0.302   5.726  14.523  0.8663  0.0156  0.3691
 4193TIP3   OH236773   2.091   5.528  15.959 -0.8196 -0.0762 -0.7803
 4193TIP3    H136774   2.106   5.453  16.017  1.8506 -0.1663 -1.4900
 4193TIP3    H236775   2.155   5.593  15.986 -2.4698  1.6595 -0.7991
 4194TIP3   OH236776   3.663   1.676  16.810 -0.3234  0.1938  0.4500
 4194TIP3    H136777   3.601   1.708  16.875  0.1778  0.4449  0.8116
 4194TIP3    H236778   3.662   1.581  16.819 -0.4672  0.2127  0.6253
 4195TIP3   OH236779   5.268   0.290  15.259 -0.3027 -0.5339  0.2628
 4195TIP3    H136780   5.342   0.334  15.300  0.4446 -0.7008 -0.8842
 4195TIP3    H236781   5.223   0.247  15.332  0.6953 -0.4024  0.9758
 4196TIP3   OH236782   1.642   1.031  16.956  0.1851 -0.9200 -0.2284
 4196TIP3    H136783   1.716   0.980  16.925  2.3325  0.7717  1.7978
 4196TIP3    H236784   1.657   1.119  16.921 -0.1073 -0.2257  1.3099
 4197TIP3   OH236785   4.553   6.535  14.584  0.1933  0.2923  0.2426
 4197TIP3    H136786   4.532   6.587  14.506 -0.6826 -1.0465 -0.4508
 4197TIP3    H236787   4.647   6.550  14.597  0.3658  0.5453 -1.0774
 4198TIP3   OH236788   6.315   1.969  15.082  0.2164 -0.1970 -0.7232
 4198TIP3    H136789   6.370   1.966  15.004  0.7995  1.3037 -0.4125
 4198TIP3    H236790   6.341   1.893  15.134  3.0392  1.1680  0.0538
 4199TIP3   OH236791   4.795   4.502  14.110 -0.1226 -0.1209 -0.3311
 4199TIP3    H136792   4.862   4.562  14.142  0.9964 -0.8794 -1.1772
 4199TIP3    H236793   4.713   4.551  14.117  0.3944  0.5576  1.4289
 4200TIP3   OH236794   1.101   4.870  16.555  0.2672 -0.0062 -0.0508
 4200TIP3    H136795   1.166   4.860  16.485 -0.8764 -0.7651 -1.0320
 4200TIP3    H236796   1.062   4.956  16.539  0.2977  0.0030 -0.0774
 4201TIP3   OH236797   6.515   4.116  16.030 -0.0768 -0.2105  0.0033
 4201TIP3    H136798   6.527   4.179  16.101  0.8993 -0.1689 -0.1805
 4201TIP3    H236799   6.465   4.163  15.964 -1.0984 -0.2886  0.7055
 4202TIP3   OH236800   4.373   5.896  15.481  0.0100 -0.3430  0.4704
 4202TIP3    H136801   4.310   5.898  15.553 -0.3507  0.5996  0.1466
 4202TIP3    H236802   4.320   5.877  15.404  0.0721  0.7193  0.1573
 4203TIP3   OH236803   4.989   0.848  15.453 -0.4044  0.7303  0.7103
 4203TIP3    H136804   5.036   0.788  15.511  0.6798  1.7949  0.9682
 4203TIP3    H236805   4.907   0.867  15.499 -0.0814  0.6226  1.3411
 4204TIP3   OH236806   2.005   4.759  15.344  0.1564 -0.2236  0.4124
 4204TIP3    H136807   1.983   4.851  15.333  0.4688 -0.2160 -0.1499
 4204TIP3    H236808   1.922   4.713  15.333  0.5499 -0.3497 -3.4578
 4205TIP3   OH236809   1.514   1.762  14.680 -0.0701  0.9833  0.1504
 4205TIP3    H136810   1.582   1.751  14.614 -1.0728 -2.3781 -0.5128
 4205TIP3    H236811   1.556   1.740  14.763 -0.3211 -1.5095 -0.3083
 4206TIP3   OH236812   5.482   1.827  17.030 -0.2739 -0.0888  0.7930
 4206TIP3    H136813   5.495   1.734  17.011  3.6517  0.5064 -0.3908
 4206TIP3    H236814   5.449   1.863  16.948 -2.1866 -0.4086  1.3712
 4207TIP3   OH236815   5.812   4.501  14.880 -0.5530 -0.2260  0.2366
 4207TIP3    H136816   5.792   4.419  14.925 -0.9733 -0.2364  0.0339
 4207TIP3    H236817   5.745   4.508  14.812 -0.2229  0.0407 -0.0606
 4208TIP3   OH236818   0.434   4.261  15.477 -0.5969 -0.3340 -0.8009
 4208TIP3    H136819   0.482   4.339  15.451 -0.6337  0.3339  0.9933
 4208TIP3    H236820   0.346   4.292  15.498 -0.9274 -1.0352 -1.1315
 4209TIP3   OH236821   0.539   2.811  15.956  0.0869  0.1953 -0.0792
 4209TIP3    H136822   0.558   2.742  15.893 -2.1484  1.4727 -2.3530
 4209TIP3    H236823   0.447   2.798  15.979  0.2899  1.0160  1.3243
 4210TIP3   OH236824   4.411   3.986  14.393 -0.2683  0.3439  0.2085
 4210TIP3    H136825   4.489   4.032  14.423  0.5107 -0.7721 -0.0431
 4210TIP3    H236826   4.444   3.904  14.357 -1.3462  0.7299 -1.8299
 4211TIP3   OH236827   4.854   4.996  15.195 -0.0130  0.1907 -0.2238
 4211TIP3    H136828   4.897   5.016  15.279  0.0956  0.8652 -0.4360
 4211TIP3    H236829   4.761   5.010  15.212  0.0187  0.4415 -0.2393
 4212TIP3   OH236830   2.379   6.323  14.689  0.0691 -0.0327  0.2779
 4212TIP3    H136831   2.341   6.367  14.613  0.0262  1.7640  1.2785
 4212TIP3    H236832   2.474   6.328  14.675  0.1696 -4.1324 -2.0051
 4213TIP3   OH236833   4.938   2.978  14.286 -0.1292  0.1613  0.3962
 4213TIP3    H136834   4.933   2.916  14.359 -1.2223  1.3215  1.3469
 4213TIP3    H236835   5.015   3.030  14.304 -2.4509  3.0837  3.0221
 4214TIP3   OH236836   2.425   3.029  15.759 -0.0586  0.3453  0.4436
 4214TIP3    H136837   2.477   3.104  15.729  0.3416  0.1055  0.5352
 4214TIP3    H236838   2.422   2.971  15.683 -0.6850  0.6147  0.2496
 4215TIP3   OH236839   3.679   0.752  14.676 -0.0005  0.4983  0.2340
 4215TIP3    H136840   3.603   0.775  14.730 -1.2781  1.0616 -1.7042
 4215TIP3    H236841   3.641   0.713  14.597  1.6500  1.8817 -1.3246
 4216TIP3   OH236842   0.082   5.445  14.472  0.3523  0.5570  0.0502
 4216TIP3    H136843   0.107   5.355  14.452 -0.4197  0.4869 -0.6640
 4216TIP3    H236844   0.134   5.468  14.549 -0.9861 -1.2396  1.6013
 4217TIP3   OH236845   6.739   0.448  15.438  0.2332  0.0829 -0.4152
 4217TIP3    H136846   6.808   0.482  15.495  0.0263 -1.0263  0.5399
 4217TIP3    H236847   6.774   0.460  15.350  1.1557  0.5796 -0.0048
 4218TIP3   OH236848   2.726   0.300  13.386  0.3811 -0.2667 -0.6659
 4218TIP3    H136849   2.729   0.211  13.353 -1.2991 -1.1732  1.3750
 4218TIP3    H236850   2.634   0.325  13.380  0.1101 -0.1871  2.2616
 4219TIP3   OH236851   1.785   6.325  15.681  0.6757 -0.0916  0.2558
 4219TIP3    H136852   1.836   6.368  15.750  0.4469 -0.5888  0.7342
 4219TIP3    H236853   1.843   6.328  15.604  0.7425  0.8993  0.3247
 4220TIP3   OH236854   4.085   5.345  15.874  0.1748 -0.2009  0.0082
 4220TIP3    H136855   4.089   5.309  15.785 -0.6628  1.9033 -0.9483
 4220TIP3    H236856   4.163   5.401  15.881  0.5265 -0.7705  0.8215
 4221TIP3   OH236857   3.158   3.962  16.579  0.1009 -0.8313  0.4955
 4221TIP3    H136858   3.221   3.905  16.534  0.6204 -0.6613  0.9992
 4221TIP3    H236859   3.167   3.940  16.671  0.8893  0.6048  0.7947
 4222TIP3   OH236860   5.767   3.809  16.637  0.0254 -0.3024 -0.9048
 4222TIP3    H136861   5.727   3.744  16.694  0.8754 -1.1036 -1.1855
 4222TIP3    H236862   5.732   3.790  16.550  0.5116 -0.6101 -1.0419
 4223TIP3   OH236863   2.516   4.907  15.903 -0.2156  0.2956 -0.3779
 4223TIP3    H136864   2.575   4.902  15.828 -1.2361  0.9538 -1.2520
 4223TIP3    H236865   2.574   4.905  15.979  0.7412 -2.6253 -1.0596
 4224TIP3   OH236866   0.908   0.861  16.560 -0.6114 -0.0677 -0.4014
 4224TIP3    H136867   0.940   0.934  16.613 -2.0679 -0.8134  1.6204
 4224TIP3    H236868   0.954   0.871  16.476  0.2716  2.3359  0.2708
 4225TIP3   OH236869   4.787   1.500  13.492  0.0280 -0.0550 -0.0858
 4225TIP3    H136870   4.882   1.510  13.484  0.0174  0.7125  0.6795
 4225TIP3    H236871   4.750   1.565  13.432 -0.0083  1.0170  1.0566
 4226TIP3   OH236872   5.219   1.357  16.767  0.0171 -0.0594  0.2433
 4226TIP3    H136873   5.280   1.429  16.749  0.1975 -0.4205 -0.6581
 4226TIP3    H236874   5.260   1.308  16.838 -0.8246  1.5493  1.9339
 4227TIP3   OH236875   3.167   1.023  16.881 -1.3365 -0.1360 -0.2660
 4227TIP3    H136876   3.149   0.929  16.882  0.5713 -0.5593 -0.4874
 4227TIP3    H236877   3.082   1.064  16.868 -2.4293 -1.7555  1.2820
 4228TIP3   OH236878   2.361   4.034  14.582  0.6270  0.2137 -0.6234
 4228TIP3    H136879   2.452   4.032  14.553  0.9660  1.4293  0.2736
 4228TIP3    H236880   2.366   4.043  14.677 -0.4473 -0.6668 -0.4553
 4229TIP3   OH236881   3.380   0.563  16.977  0.0991  0.2370 -0.7348
 4229TIP3    H136882   3.452   0.508  17.009  1.4424  0.2807 -3.4437
 4229TIP3    H236883   3.316   0.563  17.049  0.3767 -4.1158 -0.2460
 4230TIP3   OH236884   3.824   3.515  15.346 -0.3856 -0.0654  0.3042
 4230TIP3    H136885   3.739   3.471  15.337  0.1190 -1.6212  2.3989
 4230TIP3    H236886   3.888   3.450  15.319  0.2584  0.1336  1.2780
 4231TIP3   OH236887   2.464   6.108  14.958 -0.1164 -0.2178 -0.2167
 4231TIP3    H136888   2.380   6.153  14.960 -0.8740 -1.5645 -0.1439
 4231TIP3    H236889   2.441   6.015  14.964  1.3995 -0.5950  0.2016
 4232TIP3   OH236890   0.781   3.798  15.928  0.1634 -0.6757  0.4205
 4232TIP3    H136891   0.764   3.807  16.021 -0.4281  2.5067  0.1082
 4232TIP3    H236892   0.705   3.839  15.885  0.4597 -1.9759 -1.4830
 4233TIP3   OH236893   2.985   5.828  15.393  0.8530 -0.0685  0.1474
 4233TIP3    H136894   2.943   5.845  15.309 -0.0605 -0.9888  0.4023
 4233TIP3    H236895   2.917   5.845  15.458  1.4007  0.1423  0.6811
 4234TIP3   OH236896   6.439   3.814  16.223 -0.4545 -0.4414  0.3304
 4234TIP3    H136897   6.393   3.805  16.306 -1.1144 -0.0873  0.0076
 4234TIP3    H236898   6.470   3.726  16.203  0.8129 -0.3114  1.5737
 4235TIP3   OH236899   6.738   0.508  14.500 -0.0283 -0.1920  0.2345
 4235TIP3    H136900   6.722   0.602  14.505 -1.1802 -0.3990  0.8340
 4235TIP3    H236901   6.662   0.469  14.541 -0.1471 -1.4426 -1.0989
 4236TIP3   OH236902   0.314   4.552  14.752 -0.1609 -0.3785  0.6881
 4236TIP3    H136903   0.252   4.487  14.719 -1.2013  0.3197  1.2025
 4236TIP3    H236904   0.281   4.636  14.718  2.8815 -0.2833 -2.6103
 4237TIP3   OH236905   0.851   0.982  13.934  0.1767  0.2028 -0.1935
 4237TIP3    H136906   0.839   0.927  14.011 -1.4160  0.1820 -0.4260
 4237TIP3    H236907   0.830   1.071  13.964  1.0161  0.4355 -0.2567
 4238TIP3   OH236908   2.618   5.544  16.212  0.1428  0.6633 -0.0989
 4238TIP3    H136909   2.650   5.533  16.123  1.3193  1.2136  0.2389
 4238TIP3    H236910   2.662   5.623  16.244  0.4567 -0.0292  1.2681
 4239TIP3   OH236911   2.889   5.423  16.289  0.3169 -0.1997  0.3882
 4239TIP3    H136912   2.915   5.410  16.380  2.0266 -0.8005 -0.1377
 4239TIP3    H236913   2.957   5.479  16.252  1.5380 -2.5877 -1.3084
 4240TIP3   OH236914   5.571   2.645  15.443  0.1935 -0.4226  0.4302
 4240TIP3    H136915   5.658   2.631  15.480  0.1506 -0.2412  0.6036
 4240TIP3    H236916   5.537   2.722  15.489  0.0550 -0.3186  0.1618
 4241TIP3   OH236917   2.238   4.962  16.462 -0.1733  0.8806 -0.1130
 4241TIP3    H136918   2.324   4.949  16.502  1.1358  1.3674 -2.6022
 4241TIP3    H236919   2.206   4.874  16.443  0.6117  0.7355 -0.8011
 4242TIP3   OH236920   4.861   4.111  15.357  0.0268 -0.2358  0.2616
 4242TIP3    H136921   4.885   4.024  15.324  0.5166  0.1149 -0.3275
 4242TIP3    H236922   4.784   4.135  15.306 -0.1131 -0.3268  0.4296
 4243TIP3   OH236923   5.684   2.391  16.625 -0.3978  1.0867 -0.2805
 4243TIP3    H136924   5.777   2.370  16.616 -0.3062  1.0369  0.6638
 4243TIP3    H236925   5.676   2.428  16.713 -1.3822  0.4714 -0.0957
 4244TIP3   OH236926   0.394   3.123  16.891 -0.2875  0.0602 -0.1219
 4244TIP3    H136927   0.480   3.110  16.931 -0.8397  0.0993  1.1145
 4244TIP3    H236928   0.406   3.198  16.833  0.1108  1.2059  1.3677
 4245TIP3   OH236929   4.876   0.745  14.338 -0.5779 -0.8102 -0.5119
 4245TIP3    H136930   4.871   0.825  14.390  1.0296 -0.5478 -0.7288
 4245TIP3    H236931   4.786   0.732  14.307 -0.8053  1.1170 -0.7901
 4246TIP3   OH236932   2.534   3.270  15.638  0.2635 -0.0935 -0.3266
 4246TIP3    H136933   2.440   3.255  15.626  0.6104 -1.5790 -1.5184
 4246TIP3    H236934   2.542   3.365  15.646 -1.4916 -0.0074  1.4631
 4247TIP3   OH236935   4.793   6.744  14.253 -0.0391  0.2576  0.6386
 4247TIP3    H136936   4.877   6.751  14.206  0.5569  0.8381  1.7485
 4247TIP3    H236937   4.754   6.831  14.244 -2.2452 -0.8647 -2.8371
 4248TIP3   OH236938   0.011   4.995  15.872  0.1027 -0.0737 -0.6070
 4248TIP3    H136939   0.076   4.980  15.803  0.2476 -1.0413 -0.2770
 4248TIP3    H236940  -0.004   5.090  15.871  1.5220  0.1631 -0.6751
 4249TIP3   OH236941   6.625   5.174  14.910  0.3164 -0.4224 -0.3140
 4249TIP3    H136942   6.644   5.265  14.887 -1.7731 -0.2736 -1.8159
 4249TIP3    H236943   6.702   5.125  14.882  2.2630  1.0185  2.1758
 4250TIP3   OH236944   4.186   0.000  13.876  0.3159 -0.3676  0.0317
 4250TIP3    H136945   4.124  -0.048  13.822  1.2262 -0.6261 -0.8173
 4250TIP3    H236946   4.265   0.007  13.822  1.0184 -0.0250  1.0629
 4251TIP3   OH236947   5.978   1.478  16.257 -0.5367 -0.3787  0.3796
 4251TIP3    H136948   5.987   1.513  16.168 -0.4942 -1.6605 -0.1372
 4251TIP3    H236949   6.047   1.412  16.264 -0.5455 -0.2968  1.3761
 4252TIP3   OH236950   2.679   2.011  15.992 -0.1066 -0.1383  0.2480
 4252TIP3    H136951   2.625   1.980  15.920  0.8914 -1.4319  0.0318
 4252TIP3    H236952   2.742   2.070  15.951  0.8734 -1.3736 -0.0697
 4253TIP3   OH236953   0.642   5.355  14.728  0.1475  0.5101  0.5251
 4253TIP3    H136954   0.736   5.344  14.745  0.2931 -1.4252 -1.1114
 4253TIP3    H236955   0.638   5.428  14.665  0.4615  1.1077  1.1828
 4254TIP3   OH236956   1.698   0.211  14.911 -0.4387  0.0069 -0.5052
 4254TIP3    H136957   1.730   0.256  14.989  1.0380  1.5420 -1.8961
 4254TIP3    H236958   1.765   0.146  14.892 -0.6915 -0.2293 -0.5927
 4255TIP3   OH236959   4.325   1.765  13.932 -0.1079  0.2648  0.0094
 4255TIP3    H136960   4.256   1.831  13.939  0.0921  0.4969 -0.1484
 4255TIP3    H236961   4.292   1.702  13.869 -0.8203 -0.4507  1.0681
 4256TIP3   OH236962   0.564   4.613  15.920  0.4416  0.0362 -0.2652
 4256TIP3    H136963   0.656   4.597  15.898  1.0038 -0.1495  2.0340
 4256TIP3    H236964   0.532   4.530  15.954 -0.6979  0.0201 -1.2859
 4257TIP3   OH236965   1.576   1.785  16.171  0.0109 -0.1184  0.3724
 4257TIP3    H136966   1.554   1.802  16.262 -0.4164 -0.7297  0.3897
 4257TIP3    H236967   1.498   1.812  16.122  0.1074 -0.1200  0.2171
 4258TIP3   OH236968   6.101   3.825  14.509  0.4988  0.6265 -0.0887
 4258TIP3    H136969   6.027   3.781  14.468  0.6162  0.8614 -0.5610
 4258TIP3    H236970   6.178   3.790  14.464  0.6714  0.4038  0.3811
 4259TIP3   OH236971   3.046   6.661  16.528  0.3567 -0.2920  0.1849
 4259TIP3    H136972   3.058   6.756  16.518 -1.0171 -0.0245  0.8807
 4259TIP3    H236973   3.133   6.629  16.552  0.5897  0.9696  1.1735
 4260TIP3   OH236974   1.686   1.297  13.395 -0.2540 -0.6514 -0.0962
 4260TIP3    H136975   1.622   1.227  13.383 -0.3497 -0.8191  1.2605
 4260TIP3    H236976   1.713   1.290  13.486 -0.9537  1.6508  0.3516
 4261TIP3   OH236977   6.318   6.437  14.773 -0.2252 -0.3899 -0.1863
 4261TIP3    H136978   6.242   6.379  14.781  1.4679 -2.7151 -0.0436
 4261TIP3    H236979   6.356   6.440  14.860  1.1889 -1.2070 -0.7555
 4262TIP3   OH236980   5.306   1.720  16.670  0.3514 -0.1021 -0.0796
 4262TIP3    H136981   5.387   1.768  16.687  1.7149 -1.7323 -1.5901
 4262TIP3    H236982   5.334   1.630  16.655 -1.8518 -0.8933  0.1721
 4263TIP3   OH236983   1.139   3.751  14.336 -0.3413  0.6279  0.2844
 4263TIP3    H136984   1.124   3.845  14.330  0.2333  0.7679  0.8609
 4263TIP3    H236985   1.067   3.711  14.287 -1.6029  1.3094  1.5038
 4264TIP3   OH236986   4.007   4.458  16.789 -0.3274  0.5567  0.8340
 4264TIP3    H136987   4.036   4.549  16.802 -1.2082  1.0526 -0.4144
 4264TIP3    H236988   4.046   4.410  16.862  0.2332  1.9205  1.4831
 4265TIP3   OH236989   3.032   2.604  15.761 -0.0000 -0.4571  0.1603
 4265TIP3    H136990   3.103   2.547  15.791 -0.0086 -0.9311 -0.7054
 4265TIP3    H236991   2.969   2.602  15.833 -0.7619 -2.8778 -0.4820
 4266TIP3   OH236992   4.516   2.542  14.047 -0.0892 -0.3619 -0.1199
 4266TIP3    H136993   4.607   2.513  14.039 -0.2218 -0.5633 -1.0267
 4266TIP3    H236994   4.522   2.632  14.081  0.4479 -0.3197 -0.3212
 4267TIP3   OH236995   6.189   1.452  16.802 -0.5379  0.2940  0.1095
 4267TIP3    H136996   6.215   1.432  16.892  0.0723 -0.3351 -0.1941
 4267TIP3    H236997   6.110   1.506  16.811 -0.1238  0.7622  1.0255
 4268TIP3   OH236998   3.221   1.426  14.902  0.3604  0.3367 -0.4653
 4268TIP3    H136999   3.134   1.464  14.910  0.0697 -0.2301 -0.8166
 4268TIP3    H237000   3.211   1.358  14.835  0.1898 -2.2590  2.0079
 4269TIP3   OH237001   3.626   0.051  16.246 -0.8735 -0.0117  0.6797
 4269TIP3    H137002   3.661   0.139  16.260  1.2607 -0.0395 -3.1208
 4269TIP3    H237003   3.655   0.002  16.323 -0.2897  2.1135  1.9027
 4270TIP3   OH237004   5.046   3.093  16.741 -0.4204  0.0166 -0.2029
 4270TIP3    H137005   5.084   3.018  16.695  0.5707  0.6253 -0.4064
 4270TIP3    H237006   5.079   3.169  16.693  0.5913  0.6756  1.4528
 4271TIP3   OH237007   4.185   2.269  15.887  0.8911  0.0952  0.1845
 4271TIP3    H137008   4.248   2.219  15.835  2.2152  0.4991  1.3316
 4271TIP3    H237009   4.201   2.241  15.977 -2.0285 -1.3651  0.3892
 4272TIP3   OH237010   5.311   1.912  16.086 -0.3480  0.5934 -0.0353
 4272TIP3    H137011   5.346   1.879  16.003  1.1789 -1.0677  1.1653
 4272TIP3    H237012   5.359   1.993  16.102 -0.7564  0.9975 -0.8454
 4273TIP3   OH237013   2.839   1.814  15.162 -0.0608  0.6346 -0.4737
 4273TIP3    H137014   2.824   1.891  15.107 -0.0534  0.9102 -0.0921
 4273TIP3    H237015   2.838   1.848  15.251  2.1082  0.5850 -0.3708
 4274TIP3   OH237016   4.176   6.084  15.270 -0.5886  0.5137  0.6435
 4274TIP3    H137017   4.162   6.054  15.360 -1.0236  0.4002  0.5388
 4274TIP3    H237018   4.195   6.177  15.279 -1.2179  0.6277  0.8058
 4275TIP3   OH237019   6.605   0.351  16.512 -0.0437  0.0686  0.5510
 4275TIP3    H137020   6.529   0.319  16.561  0.5113 -0.3536  1.1533
 4275TIP3    H237021   6.584   0.333  16.421 -0.8431  0.3248  0.6719
 4276TIP3   OH237022   5.550   3.636  14.872  0.3928  0.1737 -0.2793
 4276TIP3    H137023   5.528   3.671  14.786  0.2130 -0.0518 -0.3254
 4276TIP3    H237024   5.587   3.710  14.920  0.7330  0.2382 -0.6372
 4277TIP3   OH237025   0.830   5.664  14.164  0.3738  0.0225 -0.3534
 4277TIP3    H137026   0.843   5.609  14.087  1.3463  1.7593 -1.5164
 4277TIP3    H237027   0.743   5.642  14.196  1.2307 -3.1101  0.0678
 4278TIP3   OH237028   1.163   1.433  14.840 -0.0889 -0.1250  0.3340
 4278TIP3    H137029   1.130   1.450  14.928 -2.1276  0.8217 -0.5393
 4278TIP3    H237030   1.092   1.386  14.796 -0.1516  1.5116 -1.4774
 4279TIP3   OH237031   2.878   1.786  15.662  0.2988  1.1044 -0.4465
 4279TIP3    H137032   2.874   1.696  15.695 -0.0932  2.2239  2.9192
 4279TIP3    H237033   2.789   1.804  15.631  0.4907  0.2394 -1.5548
 4280TIP3   OH237034   4.140   1.862  14.598  0.1612  0.3800  0.2180
 4280TIP3    H137035   4.150   1.957  14.585 -0.1506  0.5348  1.0423
 4280TIP3    H237036   4.176   1.846  14.685  2.9048 -0.7431 -1.0077
 4281TIP3   OH237037   3.238   6.500  13.247 -0.1589  0.2103 -0.4395
 4281TIP3    H137038   3.301   6.437  13.282 -1.6433 -2.3394 -2.1039
 4281TIP3    H237039   3.290   6.558  13.191  0.7503 -1.9222 -1.9055
 4282TIP3   OH237040   4.752   5.322  15.235  0.0697 -0.3739 -0.3846
 4282TIP3    H137041   4.845   5.316  15.254 -0.1244  0.5530  1.1092
 4282TIP3    H237042   4.713   5.245  15.277  0.1455 -0.7165 -0.9371
 4283TIP3   OH237043   4.070   6.542  16.805 -0.5502  0.0896  0.2168
 4283TIP3    H137044   4.093   6.604  16.874  0.0282 -0.5554  0.6002
 4283TIP3    H237045   3.989   6.578  16.768 -1.4633 -0.1180  1.9235
 4284TIP3   OH237046   0.052   5.621  17.009  0.1143  0.4799 -0.4647
 4284TIP3    H137047   0.049   5.683  17.082 -1.8050 -0.6720  0.5366
 4284TIP3    H237048  -0.027   5.641  16.958  0.2293 -0.2248 -0.9338
 4285TIP3   OH237049   0.769   5.740  14.802  0.1150 -0.5577 -0.1956
 4285TIP3    H137050   0.808   5.682  14.736  0.3519 -1.6008  0.8177
 4285TIP3    H237051   0.783   5.694  14.885 -0.4952  0.5493  0.5444
 4286TIP3   OH237052   2.627   6.545  15.643  0.1345  0.2460 -0.2827
 4286TIP3    H137053   2.633   6.464  15.693 -1.4739 -1.2497 -2.3274
 4286TIP3    H237054   2.567   6.525  15.571  0.6681  2.8848 -1.6102
 4287TIP3   OH237055   3.749   5.367  14.841 -0.1213  0.6712 -0.7577
 4287TIP3    H137056   3.820   5.374  14.777  0.9613 -0.8618  0.2213
 4287TIP3    H237057   3.704   5.285  14.817 -0.0168  0.3529  0.1185
 4288TIP3   OH237058   6.251   1.370  16.554 -0.0083 -0.5257  0.4404
 4288TIP3    H137059   6.341   1.348  16.580 -0.2898 -2.5958 -0.1106
 4288TIP3    H237060   6.214   1.413  16.631  1.7556  1.3962  0.2951
 4289TIP3   OH237061   0.801   1.304  16.153  0.2180 -0.6012 -0.2066
 4289TIP3    H137062   0.826   1.314  16.245  0.0610  0.9533 -0.3160
 4289TIP3    H237063   0.804   1.393  16.117 -3.7143 -0.4909 -0.7053
 4290TIP3   OH237064   5.860   0.198  15.468  0.0246 -0.1646 -0.5768
 4290TIP3    H137065   5.769   0.220  15.449  0.0597 -0.0860 -0.6547
 4290TIP3    H237066   5.856   0.112  15.510  0.0510 -1.0193 -2.2318
 4291TIP3   OH237067   5.130   0.528  16.025 -0.4973  0.3558  0.3671
 4291TIP3    H137068   5.075   0.606  16.021  0.8757  1.3412 -0.1285
 4291TIP3    H237069   5.194   0.547  16.094  0.2343 -0.0505 -0.1777
 4292TIP3   OH237070   0.199   2.404  15.623 -0.1647 -0.6521  0.0338
 4292TIP3    H137071   0.278   2.383  15.673  1.2468  1.3038 -1.2094
 4292TIP3    H237072   0.152   2.322  15.617  3.2793 -2.7573 -1.7035
 4293TIP3   OH237073   5.822   5.875  15.978 -0.2549  0.1738  0.2463
 4293TIP3    H137074   5.889   5.891  15.912  0.2556 -0.1711  0.6748
 4293TIP3    H237075   5.743   5.917  15.943  0.4655  1.6195  0.2835
 4294TIP3   OH237076   2.730   2.131  16.614 -0.1127  0.2892 -0.4414
 4294TIP3    H137077   2.694   2.218  16.597 -0.3983  0.5776  1.4190
 4294TIP3    H237078   2.807   2.125  16.558 -0.4580  1.4932 -1.0636
 4295TIP3   OH237079   6.172   4.127  16.463 -0.3154 -0.1584 -0.2117
 4295TIP3    H137080   6.099   4.076  16.498 -1.0971  1.7074  1.0882
 4295TIP3    H237081   6.134   4.213  16.445  1.5465  0.8509  0.4203
 4296TIP3   OH237082   5.460   3.210  16.749 -0.2846 -0.4163  0.4667
 4296TIP3    H137083   5.404   3.205  16.672  0.0520 -0.5022  0.2245
 4296TIP3    H237084   5.531   3.149  16.731  0.7689  0.8838  0.0407
 4297TIP3   OH237085   3.163   4.377  16.146  0.3740 -0.0373 -0.3729
 4297TIP3    H137086   3.124   4.354  16.062  1.3738 -0.2939 -0.7888
 4297TIP3    H237087   3.108   4.335  16.212 -1.6317  1.8051 -0.7442
 4298TIP3   OH237088   3.768   3.451  14.757 -0.2711  0.1709  0.4938
 4298TIP3    H137089   3.713   3.489  14.688 -0.0965  0.7261  0.6558
 4298TIP3    H237090   3.749   3.503  14.835  0.6626  0.5346  0.4924
 4299TIP3   OH237091   0.697   6.096  15.063 -0.0453  0.0849  0.4617
 4299TIP3    H137092   0.684   6.041  14.986  1.0461 -0.7005  0.8053
 4299TIP3    H237093   0.711   6.184  15.027  2.2305 -0.5495 -0.4162
 4300TIP3   OH237094   2.162   2.375  15.591  0.5551 -0.0815  0.3465
 4300TIP3    H137095   2.207   2.449  15.632  0.5946  0.6334 -0.9396
 4300TIP3    H237096   2.214   2.298  15.614  1.9581  0.6187 -0.3931
 4301TIP3   OH237097   4.474   1.928  16.759  0.4462 -0.1375  0.0630
 4301TIP3    H137098   4.418   1.850  16.761  0.9687 -0.5626 -1.0783
 4301TIP3    H237099   4.413   2.000  16.744 -0.0465 -0.3032  1.1522
 4302TIP3   OH237100   4.070   3.426  15.481  0.5373  0.5941 -0.0410
 4302TIP3    H137101   4.160   3.413  15.512  0.7445  0.1069 -0.8085
 4302TIP3    H237102   4.050   3.346  15.432  0.8233  1.9390 -2.5209
 4303TIP3   OH237103   1.019   4.842  15.774  0.2514 -0.8775  0.0453
 4303TIP3    H137104   0.970   4.767  15.739  0.1720 -0.3188 -1.0684
 4303TIP3    H237105   0.993   4.846  15.866 -1.1274 -1.1235 -0.3096
 4304TIP3   OH237106   5.161   1.985  15.214 -0.3649  0.0642  0.2931
 4304TIP3    H137107   5.102   1.910  15.213 -1.1491  0.6556  0.0470
 4304TIP3    H237108   5.241   1.954  15.173 -0.4158 -0.8328  0.8618
 4305TIP3   OH237109   5.588   1.440  15.138  0.2427  0.1217 -0.1933
 4305TIP3    H137110   5.558   1.418  15.050  0.2087  1.6474 -0.5956
 4305TIP3    H237111   5.507   1.454  15.188  0.2231  1.5373 -0.5616
 4306TIP3   OH237112   3.981   0.233  16.625 -0.2811 -0.6257 -0.4605
 4306TIP3    H137113   4.039   0.299  16.663  0.7553 -0.8994 -1.4965
 4306TIP3    H237114   4.040   0.173  16.579 -1.3111 -1.5446 -0.6263
 4307TIP3   OH237115   2.380   5.871  15.614  0.5277  0.8689 -0.0318
 4307TIP3    H137116   2.290   5.856  15.643  0.5960 -0.2327 -0.3753
 4307TIP3    H237117   2.381   5.963  15.586 -0.7802  0.5786 -1.1053
 4308TIP3   OH237118   0.200   6.601  17.071  0.0522  0.2075 -0.5716
 4308TIP3    H137119   0.294   6.589  17.088  0.3372  1.9277 -0.8081
 4308TIP3    H237120   0.173   6.518  17.033  1.3520 -0.5281  0.0197
 4309TIP3   OH237121   0.682   6.682  15.727  0.2059  0.1157 -0.3872
 4309TIP3    H137122   0.612   6.618  15.712 -1.2142  1.8627 -1.7019
 4309TIP3    H237123   0.679   6.739  15.650  2.5081  0.7978 -0.0312
 4310TIP3   OH237124   2.003   6.418  13.551  0.1617 -0.2448  0.7033
 4310TIP3    H137125   1.909   6.427  13.531  0.3379  1.5868  0.5704
 4310TIP3    H237126   2.040   6.377  13.473 -0.4068 -0.3006  0.4559
 4311TIP3   OH237127   4.200   2.840  15.845  0.0931 -0.4105  0.3289
 4311TIP3    H137128   4.177   2.829  15.937  0.0966 -1.8690  0.1676
 4311TIP3    H237129   4.120   2.816  15.797 -0.4627  1.9233 -0.0441
 4312TIP3   OH237130   4.096   2.928  17.007 -0.0724  0.2519 -0.0441
 4312TIP3    H137131   4.062   2.992  17.069 -0.6017 -0.9637  0.9720
 4312TIP3    H237132   4.076   2.843  17.047  0.3815 -0.5555 -1.4628
 4313TIP3   OH237133   1.894   1.845  16.547 -0.4101 -0.0656 -0.6403
 4313TIP3    H137134   1.955   1.917  16.534  0.4710 -0.7885 -0.6671
 4313TIP3    H237135   1.814   1.886  16.580  0.2422  0.8610 -0.1659
 4314TIP3   OH237136   3.352   0.935  15.973  0.0104 -0.6606 -0.0580
 4314TIP3    H137137   3.294   0.944  15.897  1.1267 -0.5005 -0.9213
 4314TIP3    H237138   3.334   1.012  16.026 -1.3661 -1.1819  0.2721
 4315TIP3   OH237139   1.892   5.947  14.019 -0.5062 -0.5300  0.4220
 4315TIP3    H137140   1.942   5.865  14.022  1.5024  0.5404 -1.0606
 4315TIP3    H237141   1.817   5.927  13.962  1.7963 -0.5555 -2.8600
 4316TIP3   OH237142   3.557   0.367  17.059  0.0166  0.3876 -0.4757
 4316TIP3    H137143   3.627   0.313  17.097 -0.1773  1.1940  1.1146
 4316TIP3    H237144   3.509   0.307  17.001  1.5282 -0.3773 -0.9785
 4317TIP3   OH237145   0.076   2.180  14.137 -0.1628  0.2452  0.0623
 4317TIP3    H137146  -0.010   2.195  14.097 -0.7395 -1.8455  0.4041
 4317TIP3    H237147   0.091   2.086  14.128  0.3962 -0.1005  3.2460
 4318TIP3   OH237148   1.943   4.283  16.335 -0.4988 -0.0228  0.2127
 4318TIP3    H137149   1.850   4.275  16.314 -0.6653 -0.8508  1.1700
 4318TIP3    H237150   1.955   4.225  16.410  0.6191  0.7012  0.6127
 4319TIP3   OH237151   5.729   3.010  14.141  0.1835  0.3750 -0.1192
 4319TIP3    H137152   5.691   3.072  14.203 -1.6916 -0.7176 -0.1069
 4319TIP3    H237153   5.705   3.045  14.055 -0.1889  0.0943 -0.1310
 4320TIP3   OH237154   2.011   2.060  14.387 -0.1046 -0.1553  0.0150
 4320TIP3    H137155   1.924   2.032  14.357 -0.6030  0.6078  0.7070
 4320TIP3    H237156   1.993   2.134  14.446  1.0399  0.2859 -0.1702
 4321TIP3   OH237157   1.771   6.012  16.359  0.0947  0.4004 -0.0002
 4321TIP3    H137158   1.699   5.972  16.408  0.4197 -0.7700 -0.4305
 4321TIP3    H237159   1.753   6.106  16.361 -0.6737  0.2421  1.1044
 4322TIP3   OH237160   2.410   5.282  16.266 -0.1083 -0.2917 -0.4906
 4322TIP3    H137161   2.357   5.354  16.230 -1.0292 -0.1192  1.1183
 4322TIP3    H237162   2.380   5.205  16.217  1.0662  0.4011 -2.4097
 4323TIP3   OH237163   4.640   5.893  16.205 -0.1841  0.0968 -0.4959
 4323TIP3    H137164   4.712   5.843  16.167  0.9345  0.9705  0.3863
 4323TIP3    H237165   4.643   5.872  16.299 -0.7678  0.5083 -0.3756
 4324TIP3   OH237166   1.320   4.128  14.610  0.5876  0.0354  0.7389
 4324TIP3    H137167   1.349   4.051  14.658  0.8046 -0.7425 -0.6014
 4324TIP3    H237168   1.279   4.094  14.531  1.3353  1.2923 -0.2355
 4325TIP3   OH237169   1.269   2.492  15.111  0.5971  0.1877  0.1630
 4325TIP3    H137170   1.319   2.537  15.043  1.1864 -1.3265 -0.4375
 4325TIP3    H237171   1.316   2.410  15.125 -1.5855 -1.2060 -0.2639
 4326TIP3   OH237172   4.235   5.719  14.589 -0.2816 -0.6249  0.1886
 4326TIP3    H137173   4.188   5.693  14.510  0.1112  0.9884 -0.6111
 4326TIP3    H237174   4.292   5.791  14.561  0.6996 -0.7563  1.7032
 4327TIP3   OH237175   5.706   1.492  16.752  0.2873 -0.1877  0.1882
 4327TIP3    H137176   5.721   1.400  16.773  2.5848  0.1178  0.1311
 4327TIP3    H237177   5.751   1.506  16.669  1.2290  1.2934  0.8957
 4328TIP3   OH237178   3.890   1.922  15.980 -0.2805 -0.5327  0.0293
 4328TIP3    H137179   3.923   1.869  15.907 -1.0516  0.6179 -1.2139
 4328TIP3    H237180   3.967   1.941  16.033  0.6103 -0.1274 -1.3404
 4329TIP3   OH237181   5.603   3.864  17.224  0.2484 -0.0616 -0.0663
 4329TIP3    H137182   5.529   3.913  17.188  0.3859 -0.4675 -0.9132
 4329TIP3    H237183   5.576   3.843  17.314 -1.2231 -1.3336 -0.7519
 4330TIP3   OH237184   2.223   5.046  15.586 -0.9004  0.3901  0.4226
 4330TIP3    H137185   2.271   5.003  15.516 -2.6193  2.5956 -2.3129
 4330TIP3    H237186   2.153   4.984  15.609  0.5059 -0.9515  1.3458
 4331TIP3   OH237187   2.537   2.566  14.818  0.5585 -0.6973  0.4943
 4331TIP3    H137188   2.457   2.518  14.797 -1.5047  1.7215  2.1056
 4331TIP3    H237189   2.544   2.632  14.749  1.7805 -1.5101 -0.1849
 4332TIP3   OH237190   5.101   1.354  15.043  0.2951 -0.0253 -0.7361
 4332TIP3    H137191   5.052   1.356  15.125 -0.0404 -0.6458 -0.9085
 4332TIP3    H237192   5.112   1.446  15.019 -0.2181  0.1449 -0.3521
 4333TIP3   OH237193   6.401   0.839  14.695  0.1979  0.2114  0.1385
 4333TIP3    H137194   6.469   0.793  14.744 -1.8756 -2.0212  1.1175
 4333TIP3    H237195   6.346   0.879  14.763 -0.5391  0.3446 -0.5226
 4334TIP3   OH237196   2.998   0.864  13.541 -0.2481  0.2826  0.6898
 4334TIP3    H137197   2.930   0.841  13.478  0.1161 -0.4755  0.5554
 4334TIP3    H237198   3.079   0.862  13.489 -0.0054  0.1228  1.0746
 4335TIP3   OH237199   0.950   0.341  16.773 -0.4264  0.0506 -0.2860
 4335TIP3    H137200   0.998   0.393  16.837  0.3835 -1.1616  0.1327
 4335TIP3    H237201   0.886   0.401  16.735 -1.3240  0.6938  2.0644
 4336TIP3   OH237202   1.970   0.990  14.578 -0.5758  0.1024  0.1481
 4336TIP3    H137203   1.927   0.962  14.497  0.2773 -2.4254  0.4926
 4336TIP3    H237204   2.018   1.069  14.553 -1.1424 -0.0543 -1.5669
 4337TIP3   OH237205   0.273   1.534  15.085  0.2915  0.2214 -0.2837
 4337TIP3    H137206   0.264   1.592  15.010 -2.5350 -1.0938 -1.0749
 4337TIP3    H237207   0.313   1.454  15.049 -0.5544 -0.2032 -0.3041
 4338TIP3   OH237208   5.220   6.701  16.616 -1.2700 -0.0600 -0.5576
 4338TIP3    H137209   5.131   6.685  16.647 -1.1220  1.7107  0.9959
 4338TIP3    H237210   5.273   6.635  16.661 -1.5809  0.0045 -0.0832
 4339TIP3   OH237211   6.680   4.918  16.975 -0.2318  0.9348 -0.0902
 4339TIP3    H137212   6.655   5.005  16.945  1.5485  1.7452  0.5907
 4339TIP3    H237213   6.756   4.933  17.031  0.2776 -1.0797 -0.1386
 4340TIP3   OH237214   5.449   5.928  16.862  0.1213  0.0161 -0.2214
 4340TIP3    H137215   5.364   5.900  16.895 -0.4238 -1.0972 -2.4110
 4340TIP3    H237216   5.429   5.980  16.785  1.4242  0.2407 -0.4346
 4341TIP3   OH237217   3.362   1.918  16.011 -0.4091  0.1101 -0.1269
 4341TIP3    H137218   3.347   2.005  16.047  1.9913  0.3897  0.3824
 4341TIP3    H237219   3.454   1.899  16.032 -0.7654 -2.3978 -0.5401
 4342TIP3   OH237220   4.612   4.385  15.956  0.1851  0.0828 -0.0202
 4342TIP3    H137221   4.544   4.438  15.998  0.4968 -0.1461  0.7838
 4342TIP3    H237222   4.677   4.371  16.024 -0.1654 -1.8332 -0.0236
 4343TIP3   OH237223   6.041   1.302  13.714 -0.2125  0.5258 -0.0153
 4343TIP3    H137224   6.035   1.259  13.629 -2.0003  2.3661 -0.9012
 4343TIP3    H237225   5.963   1.273  13.761  1.2101 -1.2180  1.4796
 4344TIP3   OH237226   6.529   5.114  15.744  0.1888  0.1223 -0.2090
 4344TIP3    H137227   6.551   5.122  15.837  0.3914 -1.6743 -0.0675
 4344TIP3    H237228   6.434   5.123  15.741 -0.4832 -4.1837  0.8796
 4345TIP3   OH237229   3.421   4.287  15.472 -0.2477 -0.7677 -0.4859
 4345TIP3    H137230   3.386   4.250  15.553  0.8547  0.1784  0.4651
 4345TIP3    H237231   3.506   4.323  15.498 -1.0497  1.9824 -1.4415
 4346TIP3   OH237232   2.714   6.424  14.420 -0.2999  0.9282 -0.2299
 4346TIP3    H137233   2.782   6.359  14.437 -0.7190  0.4196 -0.4605
 4346TIP3    H237234   2.745   6.473  14.345 -2.0268 -2.0395 -3.1461
 4347TIP3   OH237235   4.877   3.268  15.974  0.0649 -0.5814 -0.1979
 4347TIP3    H137236   4.869   3.223  16.057 -0.7561  0.9111  0.5679
 4347TIP3    H237237   4.939   3.339  15.991  0.3300 -0.6017 -1.0247
 4348TIP3   OH237238   1.273   3.676  16.249  0.4221  0.4292  0.6644
 4348TIP3    H137239   1.186   3.702  16.218  0.5559  1.1855  0.9067
 4348TIP3    H237240   1.325   3.665  16.169  0.3160  0.7404  0.5542
 4349TIP3   OH237241   1.983   5.364  15.230  0.1842  1.0726  0.3426
 4349TIP3    H137242   1.915   5.422  15.196 -0.4195 -0.6164 -1.6157
 4349TIP3    H237243   2.050   5.363  15.161 -0.7841 -2.0083 -0.7602
 4350TIP3   OH237244   1.595   3.246  16.213  0.2889 -0.1066  0.3467
 4350TIP3    H137245   1.609   3.154  16.238 -0.6730  0.1002  1.7360
 4350TIP3    H237246   1.675   3.290  16.241  1.2731 -0.6982 -1.4226
 4351TIP3   OH237247   6.569   1.468  15.139 -0.0366  0.1700 -0.1260
 4351TIP3    H137248   6.637   1.415  15.099 -1.5069  0.0741 -2.7624
 4351TIP3    H237249   6.515   1.405  15.187  0.0820 -0.2404 -0.5166
 4352TIP3   OH237250   3.416   5.443  16.788 -0.1854 -0.3995 -0.2508
 4352TIP3    H137251   3.403   5.524  16.838 -0.8596  0.7037 -2.1216
 4352TIP3    H237252   3.334   5.396  16.796 -0.1223 -0.4646  0.0483
 4353TIP3   OH237253   4.387   3.940  15.129  0.3582  0.1522 -0.5775
 4353TIP3    H137254   4.429   3.857  15.105 -0.8407 -0.8677  0.6789
 4353TIP3    H237255   4.332   3.918  15.204 -2.3297  1.3935 -2.0151
 4354TIP3   OH237256   6.198   3.398  14.075  0.0332 -0.2365  0.3709
 4354TIP3    H137257   6.284   3.419  14.110 -0.3769 -0.6687  1.7270
 4354TIP3    H237258   6.215   3.340  14.001  0.9094 -0.6458  0.8772
 4355TIP3   OH237259   0.977   6.579  16.483 -0.0706  0.4626 -0.6727
 4355TIP3    H137260   0.948   6.642  16.549  0.1726 -0.1334  0.0234
 4355TIP3    H237261   0.915   6.507  16.489  1.1428 -0.5402  0.3981
 4356TIP3   OH237262   2.804   2.013  13.629  0.3122 -0.1312  0.4515
 4356TIP3    H137263   2.735   2.070  13.596  1.0780 -0.5424 -2.1344
 4356TIP3    H237264   2.787   1.928  13.587  2.4612 -0.1884 -0.4336
 4357TIP3   OH237265   0.694   6.383  16.850  0.0558 -0.1898 -0.3427
 4357TIP3    H137266   0.736   6.440  16.915  0.8774 -1.0745 -0.0720
 4357TIP3    H237267   0.695   6.434  16.769  0.2079  0.4193  0.0351
 4358TIP3   OH237268   5.317   5.547  15.483  0.1348  0.4419  0.0603
 4358TIP3    H137269   5.332   5.478  15.547 -0.7344  1.0614  0.9550
 4358TIP3    H237270   5.398   5.598  15.484  0.2782  0.2127  0.3675
 4359TIP3   OH237271   1.304   0.317  16.163 -0.3387 -0.3093 -0.5790
 4359TIP3    H137272   1.281   0.237  16.209  1.3093 -0.7103 -0.3734
 4359TIP3    H237273   1.271   0.304  16.074 -1.7170 -0.4050 -0.0667
 4360TIP3   OH237274   5.706   3.246  14.596  0.3407 -0.1069 -0.5901
 4360TIP3    H137275   5.673   3.192  14.667 -0.1058  1.8832  0.7996
 4360TIP3    H237276   5.747   3.184  14.535  0.6503 -1.8960  1.3387
 4361TIP3   OH237277   0.623   0.928  16.133  0.0226  0.1775 -0.2119
 4361TIP3    H137278   0.530   0.948  16.136 -0.3058 -1.2700  0.2174
 4361TIP3    H237279   0.658   0.966  16.214 -0.5198 -0.6684  0.4388
 4362TIP3   OH237280   6.231   5.380  16.326  0.1127 -0.2611  0.2661
 4362TIP3    H137281   6.213   5.297  16.280  1.8771 -1.6239  1.8571
 4362TIP3    H237282   6.275   5.434  16.261 -0.9271 -0.6034 -0.7600
 4363TIP3   OH237283   2.273   6.006  17.057 -0.3952  0.3693  0.4668
 4363TIP3    H137284   2.257   5.940  17.125 -0.6622 -1.0884 -0.9556
 4363TIP3    H237285   2.186   6.039  17.035 -0.8227 -1.8478 -1.6845
 4364TIP3   OH237286   2.586   1.564  15.552  0.4345  0.1495 -0.7350
 4364TIP3    H137287   2.661   1.585  15.497  0.2980 -0.3919 -1.1352
 4364TIP3    H237288   2.618   1.574  15.641  0.7357  0.7659 -0.9023
 4365TIP3   OH237289   1.610   1.758  14.120  0.2950  0.1786 -0.2577
 4365TIP3    H137290   1.543   1.713  14.172  0.4909 -0.6935 -0.7416
 4365TIP3    H237291   1.663   1.688  14.082  0.2342  0.7779 -1.5298
 4366TIP3   OH237292   2.367   1.803  16.006  0.0354  0.1235 -0.1841
 4366TIP3    H137293   2.298   1.737  16.000  0.4157 -0.3061  0.1221
 4366TIP3    H237294   2.362   1.835  16.096  0.2597  0.0522 -0.1426
 4367TIP3   OH237295   0.412   6.155  17.011 -0.2225  0.1518 -0.1444
 4367TIP3    H137296   0.444   6.072  17.046 -0.6232  0.2759  0.5358
 4367TIP3    H237297   0.452   6.221  17.067  0.7954  0.4840 -1.2197
 4368TIP3   OH237298   2.338   2.924  14.550  0.7639  0.1490  0.1056
 4368TIP3    H137299   2.286   2.850  14.518 -0.5461  0.7660  0.7311
 4368TIP3    H237300   2.371   2.966  14.471  0.7740 -0.5649 -0.2827
 4369TIP3   OH237301   0.902   0.318  15.021  0.0014  0.0007 -0.5348
 4369TIP3    H137302   0.879   0.408  14.998 -0.5440 -0.4121 -1.6942
 4369TIP3    H237303   0.922   0.321  15.114 -1.1819  1.0989 -0.2920
 4370TIP3   OH237304   2.995   4.177  15.801 -0.0318  0.3049  0.7469
 4370TIP3    H137305   2.914   4.225  15.815 -0.2474 -0.1893  1.2414
 4370TIP3    H237306   3.064   4.243  15.806 -0.3883  0.7116  0.4323
 4371TIP3   OH237307   4.671   1.446  15.391 -0.2009 -0.4290 -0.3705
 4371TIP3    H137308   4.577   1.431  15.403 -0.1756 -0.5002 -0.2605
 4371TIP3    H237309   4.681   1.456  15.296 -0.5870  1.3804 -0.2698
 4372TIP3   OH237310   4.073   1.975  16.175 -0.3574  0.1935  0.0754
 4372TIP3    H137311   4.093   1.912  16.245  1.0286 -0.0127 -0.4762
 4372TIP3    H237312   4.143   2.040  16.181  0.8239 -0.7646 -2.1919
 4373TIP3   OH237313   6.575   3.733  16.659 -0.4043 -0.0227  0.3510
 4373TIP3    H137314   6.641   3.789  16.699  2.2494 -2.2022 -0.6148
 4373TIP3    H237315   6.523   3.699  16.732 -0.4230  1.6689  1.1505
 4374TIP3   OH237316   4.265   0.936  14.875  0.2439 -0.3716  0.4399
 4374TIP3    H137317   4.356   0.912  14.856  0.6645  0.6468  1.0906
 4374TIP3    H237318   4.230   0.861  14.925  0.5714 -0.9692 -0.2089
 4375TIP3   OH237319   1.263   0.139  13.983  0.1022  0.0004 -0.2099
 4375TIP3    H137320   1.187   0.188  14.015 -0.0555  0.2084 -0.8843
 4375TIP3    H237321   1.228   0.052  13.964 -0.4787  0.6469 -2.4589
 4376TIP3   OH237322   0.761   1.801  14.472  1.4214 -0.1508  0.8632
 4376TIP3    H137323   0.773   1.827  14.380  0.7618 -0.9359  0.5506
 4376TIP3    H237324   0.814   1.722  14.482  1.1718 -0.2940  1.0533
 4377TIP3   OH237325   4.807   4.413  16.442  0.4647 -0.1333 -0.0608
 4377TIP3    H137326   4.771   4.356  16.510  1.2354  0.2438  0.6829
 4377TIP3    H237327   4.894   4.377  16.424 -0.1420 -0.8847 -1.6489
 4378TIP3   OH237328   1.413   2.317  13.818 -0.2112 -0.0868 -0.3078
 4378TIP3    H137329   1.478   2.385  13.833  0.7674 -1.1256  0.3525
 4378TIP3    H237330   1.465   2.240  13.795 -1.1191 -1.2102  1.2187
 4379TIP3   OH237331   2.018   6.077  15.454  0.1891  0.0468 -0.1545
 4379TIP3    H137332   2.041   6.165  15.424  0.5834  0.4925  1.3340
 4379TIP3    H237333   2.059   6.070  15.540  0.3839 -1.7120 -0.3543
 4380TIP3   OH237334   1.445   3.097  16.756 -0.1730 -0.0771 -0.4585
 4380TIP3    H137335   1.520   3.073  16.812 -1.1624 -0.5166  0.7355
 4380TIP3    H237336   1.485   3.124  16.674  1.3277  0.0539  0.2635
 4381TIP3   OH237337   5.575   0.162  13.822  0.3581 -0.0769 -0.0187
 4381TIP3    H137338   5.544   0.147  13.733  1.8805  0.1461 -0.6289
 4381TIP3    H237339   5.508   0.217  13.862 -0.0023  0.4361 -1.2814
 4382TIP3   OH237340   0.416   3.630  14.477 -0.0134  0.1600 -0.0924
 4382TIP3    H137341   0.357   3.555  14.483  0.1720  0.0790  0.8740
 4382TIP3    H237342   0.472   3.622  14.554  1.4991  0.0434 -1.1565
 4383TIP3   OH237343   0.306   4.935  16.068  0.7760  0.4562  0.1225
 4383TIP3    H137344   0.252   4.863  16.100  1.4989  0.1561  0.6946
 4383TIP3    H237345   0.363   4.895  16.003 -0.1339  0.9076 -0.9842
 4384TIP3   OH237346   1.516   6.006  14.153 -0.3281  0.3022 -0.0086
 4384TIP3    H137347   1.490   6.097  14.168 -1.6528 -0.2592  1.4807
 4384TIP3    H237348   1.596   5.995  14.204 -1.1440  0.2045  1.3170
 4385TIP3   OH237349   6.716   2.330  14.540  0.0513 -0.3278 -0.1101
 4385TIP3    H137350   6.681   2.314  14.627  1.0538 -4.4265 -0.2556
 4385TIP3    H237351   6.647   2.301  14.480  0.6538 -0.8718 -0.5615
 4386TIP3   OH237352   0.107   2.017  17.058  0.0298 -0.2777 -0.0854
 4386TIP3    H137353   0.044   2.035  17.128  1.5453  0.2021  1.1960
 4386TIP3    H237354   0.108   2.098  17.007  0.6274  0.2396  0.7234
 4387TIP3   OH237355   5.826   6.080  14.444  0.0742 -0.4724  0.4579
 4387TIP3    H137356   5.893   6.075  14.376  0.5741  0.4677  0.8673
 4387TIP3    H237357   5.780   6.162  14.426  1.8083  1.1116  2.6587
 4388TIP3   OH237358   2.867   2.564  16.203  0.5887  0.0744  0.6515
 4388TIP3    H137359   2.817   2.486  16.228 -0.5713  0.3847 -0.6014
 4388TIP3    H237360   2.849   2.628  16.272  0.5832 -0.3621  1.0574
 4389TIP3   OH237361   0.547   2.592  14.125  0.1512 -0.1288  0.2893
 4389TIP3    H137362   0.635   2.619  14.151  0.3650 -0.2499 -0.2824
 4389TIP3    H237363   0.531   2.638  14.043  0.2037 -1.0928 -0.2808
 4390TIP3   OH237364   1.217   6.141  16.900 -0.0325 -0.3802 -0.0528
 4390TIP3    H137365   1.184   6.120  16.813 -1.4107  1.5763 -0.0546
 4390TIP3    H237366   1.144   6.124  16.959  0.9173 -1.7925  0.7865
 4391TIP3   OH237367   4.203   3.949  14.678 -0.5476 -0.0893 -0.2821
 4391TIP3    H137368   4.225   3.869  14.631  2.1462  0.8882 -0.8404
 4391TIP3    H237369   4.202   4.017  14.610 -2.3406  0.4907  0.2490
 4392TIP3   OH237370   5.694   0.106  15.735 -0.7832 -0.1348  0.3125
 4392TIP3    H137371   5.768   0.055  15.700 -0.4947 -0.0989  0.8537
 4392TIP3    H237372   5.719   0.197  15.721 -0.5674 -0.1153  0.7979
 4393TIP3   OH237373   5.611   6.577  16.214  0.4478  0.4092 -0.4801
 4393TIP3    H137374   5.532   6.625  16.238 -0.2875 -0.6867 -0.6548
 4393TIP3    H237375   5.580   6.500  16.166  1.4043 -1.4624  1.7005
 4394TIP3   OH237376   1.738   5.516  15.235  0.3218  0.8945  0.2255
 4394TIP3    H137377   1.680   5.518  15.159  0.2109  0.9303  0.3114
 4394TIP3    H237378   1.711   5.591  15.288  0.8231  1.2473 -0.0125
 4395TIP3   OH237379   6.187   3.206  15.036 -0.5618 -0.0298  0.0987
 4395TIP3    H137380   6.112   3.205  15.096 -0.8099 -1.0726 -0.1992
 4395TIP3    H237381   6.228   3.291  15.050 -0.5801 -0.2647  1.8028
 4396TIP3   OH237382   3.439   2.179  15.302 -0.3510  0.1754  0.0936
 4396TIP3    H137383   3.358   2.163  15.252 -0.1311 -0.7357  0.0013
 4396TIP3    H237384   3.411   2.178  15.394 -0.2584 -1.5515  0.1369
 4397TIP3   OH237385   0.407   6.268  13.856  0.6619 -0.1505  0.0311
 4397TIP3    H137386   0.312   6.272  13.844  0.0263  1.5694  4.0672
 4397TIP3    H237387   0.442   6.325  13.786 -1.6303  2.0683  0.5369
 4398TIP3   OH237388   6.523   4.577  14.924 -0.1537  0.2060 -0.1336
 4398TIP3    H137389   6.454   4.573  14.858 -0.4530  0.5095  0.1559
 4398TIP3    H237390   6.500   4.508  14.987 -0.5170  0.6958  0.2718
 4399TIP3   OH237391   1.465   3.938  16.007  0.0284  0.3295 -0.4563
 4399TIP3    H137392   1.533   3.988  15.961  0.8900  1.5026  1.9517
 4399TIP3    H237393   1.383   3.980  15.979  0.4373  0.4551 -1.5383
 4400TIP3   OH237394   5.318   3.309  15.596 -0.8770  0.5727 -0.1643
 4400TIP3    H137395   5.343   3.216  15.594  1.3155  1.1184  0.0012
 4400TIP3    H237396   5.351   3.344  15.514  0.8961  1.8019  1.0243
 4401TIP3   OH237397   6.391   6.667  16.118 -0.3666 -0.4219 -0.0220
 4401TIP3    H137398   6.317   6.631  16.167 -0.8111 -1.1993 -1.1968
 4401TIP3    H237399   6.353   6.739  16.067 -0.0671 -0.0774  0.2426
 4402TIP3   OH237400   3.948   0.279  16.075  0.2917  0.4799 -0.0989
 4402TIP3    H137401   3.872   0.239  16.032  0.2087 -0.2545  0.6963
 4402TIP3    H237402   4.009   0.296  16.005 -0.1274 -0.0402 -0.6010
 4403TIP3   OH237403   0.923   4.456  16.768 -0.0215 -0.2565  0.2520
 4403TIP3    H137404   0.981   4.492  16.701 -0.8682  0.4814 -0.0881
 4403TIP3    H237405   0.843   4.433  16.722 -1.5416  2.4184  1.3197
 4404TIP3   OH237406   0.787   4.309  14.449  0.4691  0.1056  0.0551
 4404TIP3    H137407   0.825   4.333  14.365 -0.7297 -1.8254 -1.1219
 4404TIP3    H237408   0.862   4.290  14.505  1.2730  0.7827 -0.7608
 4405TIP3   OH237409   4.185   3.677  15.893  0.4181  0.2008 -0.1842
 4405TIP3    H137410   4.255   3.737  15.919  0.0653 -0.4655  2.5658
 4405TIP3    H237411   4.228   3.591  15.889  0.0343 -0.0238  0.3478
 4406TIP3   OH237412   1.451   5.151  17.187 -0.1171 -0.0136 -0.0301
 4406TIP3    H137413   1.529   5.104  17.157 -0.7783 -1.9068  1.0277
 4406TIP3    H237414   1.395   5.156  17.110  0.7614  0.7853 -0.6399
 4407TIP3   OH237415   1.324   2.176  15.875 -0.7725 -0.3548  0.6780
 4407TIP3    H137416   1.251   2.151  15.932  0.8888 -0.4062  2.9484
 4407TIP3    H237417   1.393   2.112  15.894  0.0106 -0.1006 -1.1245
 4408TIP3   OH237418   3.363   0.695  13.940 -0.8783 -0.4938 -0.0533
 4408TIP3    H137419   3.296   0.724  13.878 -0.1892 -1.7694 -1.4487
 4408TIP3    H237420   3.424   0.643  13.888  0.6455 -0.2450  1.3796
 4409TIP3   OH237421   5.851   4.018  15.798 -0.3748 -0.5405 -0.3244
 4409TIP3    H137422   5.821   4.091  15.743  1.5487 -0.0739 -0.8292
 4409TIP3    H237423   5.799   3.943  15.769 -0.6483  0.0929 -1.5380
 4410TIP3   OH237424   5.348   1.087  15.321  0.1959 -0.8586  0.3814
 4410TIP3    H137425   5.336   1.173  15.361 -0.3765 -0.6608 -0.1969
 4410TIP3    H237426   5.326   1.099  15.229  3.7454 -0.7749 -0.5789
 4411TIP3   OH237427   0.996   4.458  15.205  0.0712 -0.0866  0.0090
 4411TIP3    H137428   0.967   4.513  15.133 -2.1173  1.1195  1.6973
 4411TIP3    H237429   0.984   4.368  15.173 -1.3869  0.4159 -0.9530
 4412TIP3   OH237430   6.501   1.208  14.075  0.1504 -0.0282  0.2809
 4412TIP3    H137431   6.533   1.145  14.011 -0.4105  0.5235 -0.5652
 4412TIP3    H237432   6.574   1.220  14.136  0.4307 -1.1114  0.1732
 4413TIP3   OH237433   6.490   6.263  16.691 -0.0266 -0.0003 -0.0622
 4413TIP3    H137434   6.477   6.197  16.623  0.9960  1.0792 -1.3514
 4413TIP3    H237435   6.511   6.343  16.644 -0.1169  0.9980  1.5066
 4414TIP3   OH237436   4.356   5.955  14.496  0.3797  0.3876  0.1534
 4414TIP3    H137437   4.390   6.000  14.573  1.4046  1.2277 -0.7595
 4414TIP3    H237438   4.262   5.972  14.497  0.5438  1.3339  0.6254
 4415TIP3   OH237439   4.192   1.308  15.523 -0.3303  0.5391  0.0559
 4415TIP3    H137440   4.153   1.389  15.556 -1.0108 -0.1090  0.8612
 4415TIP3    H237441   4.145   1.238  15.568 -0.4833 -0.3457 -1.4376
 4416TIP3   OH237442   1.069   0.070  13.426  0.2357 -0.2998  0.0748
 4416TIP3    H137443   1.062   0.007  13.498 -1.5363  1.7554  1.8623
 4416TIP3    H237444   0.980   0.077  13.391  0.5792  0.5526 -0.6754
 4417TIP3   OH237445   1.262   5.735  14.034 -0.0940  0.4851 -0.1564
 4417TIP3    H137446   1.244   5.814  14.086 -0.1505  0.2446  0.1948
 4417TIP3    H237447   1.344   5.702  14.069 -0.6343 -0.2344  0.4780
 4418TIP3   OH237448   3.167   1.423  13.792 -0.0394  0.0047 -0.3254
 4418TIP3    H137449   3.091   1.387  13.837 -0.3697  1.7915  0.6021
 4418TIP3    H237450   3.206   1.483  13.854  0.4582  1.3062 -1.8294
 4419TIP3   OH237451   2.028   0.027  15.393  0.5745  0.3615 -0.3846
 4419TIP3    H137452   2.047   0.106  15.343  1.4273  0.2214 -0.2924
 4419TIP3    H237453   1.992   0.059  15.476 -1.4468  0.5870 -1.2829
 4420TIP3   OH237454   2.838   2.143  16.888  0.5225  0.6882  0.3166
 4420TIP3    H137455   2.775   2.160  16.818  1.5199  2.2844 -0.2461
 4420TIP3    H237456   2.855   2.049  16.882  1.0610  0.8838 -2.0252
 4421TIP3   OH237457   6.285   4.356  15.236 -0.0016  0.3404  0.6150
 4421TIP3    H137458   6.300   4.444  15.271 -0.9495  0.3792  0.9538
 4421TIP3    H237459   6.191   4.341  15.249  0.2139 -0.8578  0.8796
 4422TIP3   OH237460   4.257   1.706  17.073 -0.4519 -0.0656 -0.4235
 4422TIP3    H137461   4.317   1.760  17.125 -0.4461 -1.9181  1.6788
 4422TIP3    H237462   4.185   1.765  17.051  1.6278  1.9933 -2.2792
 4423TIP3   OH237463   0.345   2.541  14.935  0.2624  0.7612 -0.0360
 4423TIP3    H137464   0.307   2.465  14.979  0.7632  2.4285  3.6355
 4423TIP3    H237465   0.400   2.503  14.866 -0.9913 -2.0662  0.3632
 4424TIP3   OH237466   6.009   2.430  14.989  0.0043  0.1153 -0.1080
 4424TIP3    H137467   5.927   2.381  14.987  0.8233 -1.2997 -0.0904
 4424TIP3    H237468   6.028   2.442  15.082 -0.1847  0.4556 -0.1121
 4425TIP3   OH237469   2.798   2.949  15.303  0.5351  0.3203 -0.1699
 4425TIP3    H137470   2.771   2.923  15.391  1.0069 -0.3309 -0.2110
 4425TIP3    H237471   2.747   3.028  15.285 -1.8355 -1.1905 -0.5109
 4426TIP3   OH237472   1.248   0.115  14.988  0.1211  0.0727  0.1608
 4426TIP3    H137473   1.256   0.195  14.937 -2.0390  1.0278  1.1661
 4426TIP3    H237474   1.337   0.096  15.019  0.5938  2.4662  0.4182
 4427TIP3   OH237475   1.443   0.568  14.360  0.0922  0.1819  0.8628
 4427TIP3    H137476   1.492   0.565  14.443  3.4233  1.3345 -0.8608
 4427TIP3    H237477   1.368   0.624  14.378  0.7939  0.5067  3.0410
 4428TIP3   OH237478   6.139   6.705  15.732 -0.5925 -0.4210  0.1724
 4428TIP3    H137479   6.201   6.661  15.674  0.0323  0.0104  0.5058
 4428TIP3    H237480   6.078   6.750  15.673 -0.2257 -0.3468 -0.1501
 4429TIP3   OH237481   1.197   4.720  14.726  0.0343  0.4228 -0.7380
 4429TIP3    H137482   1.167   4.767  14.804  1.9842  0.8350 -0.1933
 4429TIP3    H237483   1.292   4.723  14.731  0.3618 -4.2261 -0.2939
 4430TIP3   OH237484   0.804   2.891  16.465  0.0989  0.5454  0.3339
 4430TIP3    H137485   0.781   2.974  16.507 -0.3330  0.2114  0.7612
 4430TIP3    H237486   0.738   2.881  16.395 -0.2889  0.2199  0.7370
 4431TIP3   OH237487   4.979   4.183  16.803  0.1313  0.4853 -0.2152
 4431TIP3    H137488   5.050   4.121  16.820  1.6589  2.1072 -0.3986
 4431TIP3    H237489   4.971   4.184  16.707 -0.6125 -0.1530 -0.1755
 4432TIP3   OH237490   3.608   1.649  13.309  0.5718  0.0803  0.0212
 4432TIP3    H137491   3.700   1.626  13.299  0.4943  0.2050 -1.1617
 4432TIP3    H237492   3.561   1.585  13.254  0.0885  0.9224 -0.5711
 4433TIP3   OH237493   4.031   2.870  16.578 -1.4800 -0.0770  0.1787
 4433TIP3    H137494   3.975   2.871  16.656 -0.8621  0.8238  0.6354
 4433TIP3    H237495   4.019   2.957  16.539 -2.0919 -0.6523 -0.9770
 4434TIP3   OH237496   2.840   1.354  15.575 -0.3807 -0.3467  0.2423
 4434TIP3    H137497   2.784   1.412  15.525  1.1505  2.1248  1.2295
 4434TIP3    H237498   2.929   1.378  15.551  0.3676 -0.4565  2.5955
 4435TIP3   OH237499   1.212   4.572  14.977 -0.2824  0.2153  0.7133
 4435TIP3    H137500   1.134   4.626  14.988  1.0449  2.1766  0.9376
 4435TIP3    H237501   1.192   4.516  14.903 -1.4908  1.4472  0.0638
 4436TIP3   OH237502   1.667   6.644  16.760  0.0471 -0.2939 -0.4066
 4436TIP3    H137503   1.593   6.696  16.730 -0.9132 -0.8016  0.9779
 4436TIP3    H237504   1.708   6.698  16.828 -0.5227 -1.0196  0.5283
 4437TIP3   OH237505   2.260   6.211  14.155 -0.4990 -0.4123  0.4072
 4437TIP3    H137506   2.296   6.161  14.081 -0.8332 -1.3679  0.8796
 4437TIP3    H237507   2.170   6.231  14.129 -0.4617 -0.3256  0.3456
 4438TIP3   OH237508   2.258   1.033  13.212 -0.1143  0.0657  0.0822
 4438TIP3    H137509   2.312   1.112  13.206 -0.1007  0.3565  2.9648
 4438TIP3    H237510   2.306   0.975  13.271 -1.1887 -1.2243 -0.2565
 4439TIP3   OH237511   4.354   2.531  14.662  0.1990 -0.3619  0.2739
 4439TIP3    H137512   4.432   2.502  14.615  0.5043  0.3806  0.3152
 4439TIP3    H237513   4.329   2.613  14.620  0.4628  0.3034  1.3811
 4440TIP3   OH237514   0.140   3.502  15.511  0.4257 -0.3375 -0.4082
 4440TIP3    H137515   0.049   3.531  15.499  0.2856 -0.9034 -0.7808
 4440TIP3    H237516   0.140   3.412  15.477  0.6170 -1.1518  1.6123
 4441TIP3   OH237517   2.596   2.403  16.551 -0.2613 -0.2022  0.0337
 4441TIP3    H137518   2.558   2.482  16.590  0.2251  0.1048 -0.1117
 4441TIP3    H237519   2.682   2.431  16.520  0.5255 -1.1357  1.2745
 4442TIP3   OH237520   3.048   3.295  15.974  0.1964  0.5089 -0.1905
 4442TIP3    H137521   3.140   3.277  15.991  0.1117 -0.0460 -0.2750
 4442TIP3    H237522   3.008   3.300  16.061  0.6255  2.6881 -0.0612
 4443TIP3   OH237523   0.632   0.917  15.876  0.5039 -0.7203  0.0306
 4443TIP3    H137524   0.538   0.916  15.857  0.6474  0.0614 -0.7516
 4443TIP3    H237525   0.637   0.914  15.972 -0.3070 -1.0274  0.0677
 4444TIP3   OH237526   3.785   1.608  14.696  0.1784  0.0697  0.2716
 4444TIP3    H137527   3.853   1.588  14.760  0.2068 -0.9578 -0.0499
 4444TIP3    H237528   3.703   1.609  14.746  0.4041  1.1807  0.6382
 4445TIP3   OH237529   1.957   6.542  14.668 -0.0937  0.1811 -0.0906
 4445TIP3    H137530   1.963   6.526  14.762  0.8395 -0.1994 -0.2024
 4445TIP3    H237531   1.865   6.562  14.653 -0.1538  0.7895  0.9890
 4446TIP3   OH237532   2.837   1.562  16.124 -0.1298 -0.1568 -0.6022
 4446TIP3    H137533   2.743   1.552  16.140 -0.2675  0.7147 -0.7974
 4446TIP3    H237534   2.859   1.488  16.067 -0.1859 -1.7334  1.3290
 4447TIP3   OH237535   5.552   3.887  15.483  0.3420 -0.3257  0.0054
 4447TIP3    H137536   5.585   3.949  15.418  0.0294  1.2500  1.2848
 4447TIP3    H237537   5.630   3.848  15.521  0.5620 -0.2806 -0.3910
 4448TIP3   OH237538   3.371   4.566  14.931 -0.0088  0.0222 -0.0877
 4448TIP3    H137539   3.387   4.587  15.023 -0.6401 -1.0008  0.2619
 4448TIP3    H237540   3.370   4.651  14.887 -1.5750  0.6714  1.1446
 4449TIP3   OH237541   6.628   2.923  15.707  0.1694  0.0733  0.2991
 4449TIP3    H137542   6.716   2.923  15.745 -0.4674  2.7536  2.0946
 4449TIP3    H237543   6.576   2.869  15.766  0.1775  0.3364  0.5542
 4450TIP3   OH237544   6.022   5.490  16.005 -0.1110 -0.4288 -0.0507
 4450TIP3    H137545   6.105   5.511  16.047  0.0143  0.9683 -0.9298
 4450TIP3    H237546   6.033   5.399  15.975  1.7382  0.2214 -1.5624
 4451TIP3   OH237547   4.144   3.174  16.377  0.1311  0.6577 -0.2384
 4451TIP3    H137548   4.172   3.265  16.386  1.2409  0.1691  1.6906
 4451TIP3    H237549   4.053   3.174  16.407  0.1914  1.0855 -0.0539
 4452TIP3   OH237550   1.778   6.421  13.817 -0.3165  0.0019  0.0998
 4452TIP3    H137551   1.697   6.370  13.819 -0.9449  0.9685  0.0483
 4452TIP3    H237552   1.755   6.505  13.856  0.1594  0.9894 -1.6096
 4453TIP3   OH237553   6.056   5.116  17.139  0.1090  0.2201 -0.6217
 4453TIP3    H137554   6.050   5.152  17.228 -1.8920  1.8636 -1.3134
 4453TIP3    H237555   6.133   5.158  17.101  0.1042  0.7031 -0.1155
 4454TIP3   OH237556   1.622   3.536  14.151 -0.4464 -0.1102  0.3956
 4454TIP3    H137557   1.540   3.488  14.164 -0.9474  0.4412 -0.5870
 4454TIP3    H237558   1.594   3.626  14.131  0.2666 -0.3298 -1.9760
 4455TIP3   OH237559   3.531   4.004  16.534 -0.1846 -0.0191  0.2588
 4455TIP3    H137560   3.478   4.082  16.552  0.4340  0.3941  0.3027
 4455TIP3    H237561   3.559   3.973  16.620 -0.6403 -0.4469  0.2597
 4456TIP3   OH237562   4.022   3.558  14.853  0.0633  0.0521  0.3710
 4456TIP3    H137563   3.946   3.528  14.803  0.2066 -0.1147  0.2515
 4456TIP3    H237564   4.014   3.654  14.853 -1.1306 -0.0207  1.9184
 4457TIP3   OH237565   1.345   2.531  16.469 -0.0986 -0.0316 -0.6333
 4457TIP3    H137566   1.345   2.511  16.563 -0.2426  1.8516 -0.2039
 4457TIP3    H237567   1.401   2.463  16.431  0.0231 -0.7943  0.8113
 4458TIP3   OH237568   6.009   6.163  17.053 -0.0838 -0.0817 -0.1581
 4458TIP3    H137569   6.063   6.212  16.991 -0.8543  0.1187 -0.6787
 4458TIP3    H237570   5.986   6.227  17.120  1.6476 -0.5586  0.9509
 4459TIP3   OH237571   6.342   2.851  16.786 -0.2605  0.0088 -0.0690
 4459TIP3    H137572   6.412   2.898  16.832 -0.8810 -0.7711  1.7351
 4459TIP3    H237573   6.323   2.776  16.841 -0.9149 -1.1068 -1.7304
 4460TIP3   OH237574   3.505   2.416  13.657 -0.7484 -0.0771 -0.3692
 4460TIP3    H137575   3.551   2.333  13.670 -1.0689 -0.3802 -1.0950
 4460TIP3    H237576   3.446   2.399  13.583 -1.6974  0.4393  0.2514
 4461TIP3   OH237577   6.112   4.621  15.954 -0.2605  0.6055  0.5901
 4461TIP3    H137578   6.174   4.556  15.989  0.1858  0.6626 -0.0765
 4461TIP3    H237579   6.063   4.573  15.887  0.8322  1.2116 -0.7049
 4462TIP3   OH237580   3.256   3.224  13.481  0.2105 -0.0695  0.1637
 4462TIP3    H137581   3.336   3.274  13.500  1.0188 -1.2990  0.1215
 4462TIP3    H237582   3.238   3.242  13.389  1.2945 -0.8923 -0.2365
 4463TIP3   OH237583   2.407   4.915  16.670  0.0052  0.0952 -0.3496
 4463TIP3    H137584   2.322   4.901  16.713  0.2895  1.0946  0.5753
 4463TIP3    H237585   2.462   4.845  16.705  0.5201  1.4768  1.7786
 4464TIP3   OH237586   0.068   4.423  16.668 -0.2440  0.3669  0.1653
 4464TIP3    H137587   0.022   4.478  16.605 -0.8296 -0.8132 -0.4691
 4464TIP3    H237588  -0.001   4.374  16.713  0.3123 -0.5328  0.0654
 4465TIP3   OH237589   3.377   6.703  14.799  0.0455  0.1498 -0.4760
 4465TIP3    H137590   3.363   6.661  14.714  0.1066  0.6121 -0.7201
 4465TIP3    H237591   3.471   6.693  14.816 -0.4919 -3.2040  1.2939
 4466TIP3   OH237592   5.601   1.233  15.867  0.2266  0.0574 -0.1785
 4466TIP3    H137593   5.554   1.214  15.948  0.2432  1.0142  0.0625
 4466TIP3    H237594   5.688   1.261  15.896  0.5106 -0.4122 -0.5661
 4467TIP3   OH237595   0.691   2.849  16.189 -0.1464  0.0796 -0.1969
 4467TIP3    H137596   0.654   2.831  16.102 -1.5756 -2.3007  0.7889
 4467TIP3    H237597   0.764   2.788  16.197  1.2641  1.6700 -0.4139
 4468TIP3   OH237598   0.443   1.893  16.477 -0.1056 -0.3182 -0.1106
 4468TIP3    H137599   0.437   1.798  16.489  1.0973 -0.5648 -1.2462
 4468TIP3    H237600   0.446   1.905  16.382  1.1833  0.7396  0.0366
 4469TIP3   OH237601   0.431   5.599  16.048 -0.2241 -0.0807  0.1369
 4469TIP3    H137602   0.450   5.540  16.121 -0.0142 -0.2481 -0.0483
 4469TIP3    H237603   0.429   5.542  15.971 -0.4660  0.0913  0.0148
 4470TIP3   OH237604   6.474   4.283  14.573  0.4398 -0.2402 -0.2579
 4470TIP3    H137605   6.472   4.340  14.496  2.5748 -1.0275 -0.9776
 4470TIP3    H237606   6.382   4.270  14.596 -0.1597  1.8665 -1.2557
 4471TIP3   OH237607   5.424   1.153  16.074  0.1742  0.6542  0.1623
 4471TIP3    H137608   5.481   1.114  16.140 -0.5654  0.8755  0.9486
 4471TIP3    H237609   5.335   1.139  16.107 -0.1473  2.4007  0.1616
 4472TIP3   OH237610   5.972   3.145  15.183 -0.1206  0.2858  0.2177
 4472TIP3    H137611   5.996   3.052  15.183  0.2516  0.3613 -0.9687
 4472TIP3    H237612   5.878   3.146  15.197 -0.0482 -0.2387  0.7780
 4473TIP3   OH237613   5.533   0.143  14.255  0.1242  0.3966  0.8295
 4473TIP3    H137614   5.503   0.233  14.270  2.1565  0.9059  2.1116
 4473TIP3    H237615   5.452   0.092  14.252 -1.0906  2.2306  0.0875
 4474TIP3   OH237616   6.718   6.579  13.875  0.0267  0.0857  0.0876
 4474TIP3    H137617   6.715   6.513  13.805 -0.0942  0.2154 -0.0293
 4474TIP3    H237618   6.805   6.619  13.866  0.4608 -0.6766  0.7279
 4475TIP3   OH237619   6.524   2.104  13.299  0.3635  0.4473  0.2754
 4475TIP3    H137620   6.522   2.032  13.236  1.1795  2.0723 -1.7009
 4475TIP3    H237621   6.441   2.096  13.347 -0.0169 -1.1885 -0.5762
 4476TIP3   OH237622   0.312   5.425  15.276 -0.6309  0.2491 -0.3069
 4476TIP3    H137623   0.348   5.505  15.238  0.4615 -0.0217  0.1135
 4476TIP3    H237624   0.242   5.399  15.216  1.5963 -0.6682 -2.7244
 4477TIP3   OH237625   5.706   3.972  15.247 -0.4708  0.2240 -0.2024
 4477TIP3    H137626   5.764   4.039  15.210 -1.1141 -0.4423 -2.6070
 4477TIP3    H237627   5.762   3.894  15.254 -0.4890  0.1941 -0.3703
 4478TIP3   OH237628   4.493   1.347  16.937  0.1337 -0.3659 -0.5765
 4478TIP3    H137629   4.463   1.322  16.850  0.5922 -0.4910 -0.6971
 4478TIP3    H237630   4.547   1.425  16.923  0.1556 -0.3475 -0.3965
 4479TIP3   OH237631   3.691   1.565  15.634  0.3562  0.2596  0.1179
 4479TIP3    H137632   3.786   1.576  15.630  0.4236 -0.5437 -0.7788
 4479TIP3    H237633   3.675   1.478  15.597 -0.6567  0.0065  1.0967
 4480TIP3   OH237634   2.936   1.745  13.693 -0.5406 -0.0384 -0.0185
 4480TIP3    H137635   3.017   1.790  13.715 -1.6597  1.5156  1.0733
 4480TIP3    H237636   2.913   1.696  13.772 -2.2851  2.0954  0.9150
 4481TIP3   OH237637   2.716   1.212  14.442  0.2220 -0.1931 -0.7130
 4481TIP3    H137638   2.659   1.152  14.489  0.5638  0.2580  0.3056
 4481TIP3    H237639   2.796   1.217  14.495  1.3553 -1.0263 -2.2456
 4482TIP3   OH237640   2.439   2.558  15.483 -0.2978 -0.2169 -0.0571
 4482TIP3    H137641   2.468   2.641  15.445  1.9433 -1.0314 -0.3273
 4482TIP3    H237642   2.361   2.535  15.433  0.0217  0.9093 -1.1472
 4483TIP3   OH237643   1.524   0.334  13.784  0.0309 -0.4228  0.1663
 4483TIP3    H137644   1.617   0.353  13.772  0.3692 -2.8176 -1.8685
 4483TIP3    H237645   1.491   0.323  13.695 -2.0808 -0.1776  0.8822
 4484TIP3   OH237646   3.145   5.560  15.619  0.2338  0.3410 -0.4035
 4484TIP3    H137647   3.196   5.593  15.545  0.6951  1.2571  0.3020
 4484TIP3    H237648   3.209   5.555  15.691 -0.5642  1.0664  0.3719
 4485TIP3   OH237649   1.292   5.128  14.750 -0.9467  0.4772 -0.3231
 4485TIP3    H137650   1.223   5.168  14.697 -0.5743  1.1912 -0.2858
 4485TIP3    H237651   1.370   5.182  14.732 -0.1526 -0.8792 -1.0986
 4486TIP3   OH237652   5.639   0.444  14.358  0.3323 -0.7568  0.2809
 4486TIP3    H137653   5.604   0.530  14.384  1.0263 -0.6767  0.9973
 4486TIP3    H237654   5.698   0.463  14.285 -0.4726 -0.7890 -0.3860
 4487TIP3   OH237655   2.314   3.185  16.321  0.4208 -0.9232 -0.1497
 4487TIP3    H137656   2.296   3.271  16.282  2.3169 -0.8709 -1.0577
 4487TIP3    H237657   2.242   3.170  16.382 -0.3532  0.9669 -0.5304
 4488TIP3   OH237658   1.043   0.833  16.053  0.0032 -0.1106  0.0849
 4488TIP3    H137659   1.017   0.843  16.145  2.2653 -0.0474  0.7808
 4488TIP3    H237660   1.112   0.766  16.055  0.7526  0.5543 -1.4175
 4489TIP3   OH237661   1.570   6.599  13.758  0.6633  0.1505 -1.1589
 4489TIP3    H137662   1.606   6.680  13.722 -0.0036  1.3803  0.7986
 4489TIP3    H237663   1.603   6.531  13.700  4.5997  1.3357 -0.6329
 4490TIP3   OH237664   4.456   0.748  15.655  0.0881 -0.0283 -0.4920
 4490TIP3    H137665   4.448   0.828  15.603  2.0361 -0.1569 -1.0555
 4490TIP3    H237666   4.449   0.677  15.591  0.2288 -0.2621 -0.2498
 4491TIP3   OH237667   3.872   0.797  16.714 -0.0200 -0.0803  0.4946
 4491TIP3    H137668   3.876   0.891  16.702 -0.6844 -0.0974  0.0541
 4491TIP3    H237669   3.955   0.764  16.678 -0.5478  0.1814 -1.0527
 4492TIP3   OH237670   4.221   0.005  14.851  0.3772  0.1126 -0.4652
 4492TIP3    H137671   4.207  -0.032  14.764  0.4610 -0.1803 -0.3550
 4492TIP3    H237672   4.314  -0.009  14.868 -0.0119 -1.5484  0.4525
 4493TIP3   OH237673   0.211   0.115  17.118  0.1744 -0.0590  0.3123
 4493TIP3    H137674   0.161   0.125  17.199  1.0379 -0.9527  0.9861
 4493TIP3    H237675   0.215   0.020  17.104  2.1146 -0.0611  0.5974
 4494TIP3   OH237676   6.484   0.539  15.971  0.6700  0.3503 -0.1892
 4494TIP3    H137677   6.549   0.576  16.031  0.6559  2.2880 -1.2886
 4494TIP3    H237678   6.410   0.599  15.976 -1.2659 -1.9586  1.2577
 4495TIP3   OH237679   2.416   1.239  14.945 -0.2011 -0.4729  0.2878
 4495TIP3    H137680   2.366   1.168  14.986 -1.0995 -0.6177 -0.9850
 4495TIP3    H237681   2.500   1.238  14.990  0.1452 -2.9358 -0.2450
 4496TIP3   OH237682   3.683   3.533  16.725 -0.0875  0.3895 -0.4184
 4496TIP3    H137683   3.659   3.625  16.713  2.9697  1.2006 -0.9760
 4496TIP3    H237684   3.774   3.536  16.754 -0.5805 -2.4135  1.8893
 4497TIP3   OH237685   6.280   5.314  14.879 -0.0587 -0.0813 -0.3191
 4497TIP3    H137686   6.360   5.336  14.926 -0.8032  0.4146  0.7764
 4497TIP3    H237687   6.280   5.218  14.876 -0.0383 -0.1373  0.8400
 4498TIP3   OH237688   0.010   2.559  13.699  0.5567 -0.0923  1.0107
 4498TIP3    H137689  -0.055   2.571  13.630  0.1587  1.4234  1.6217
 4498TIP3    H237690   0.085   2.611  13.670  1.3206 -1.3825  0.5831
 4499TIP3   OH237691   4.343   0.648  14.875 -0.4420 -0.1635  0.3165
 4499TIP3    H137692   4.276   0.624  14.811  0.6769  0.3425 -1.1099
 4499TIP3    H237693   4.303   0.630  14.960 -1.7292 -1.5056 -0.5308
 4500TIP3   OH237694   5.631   0.395  16.339  0.0428  0.0742  0.2354
 4500TIP3    H137695   5.640   0.312  16.294 -0.8591  0.6190 -1.0177
 4500TIP3    H237696   5.657   0.461  16.274 -1.3267  0.8889  0.4655
 4501TIP3   OH237697   2.766   3.221  15.779 -0.0132  0.3544 -0.0440
 4501TIP3    H137698   2.682   3.239  15.735 -0.2458  0.8884  0.5929
 4501TIP3    H237699   2.765   3.278  15.856  0.6851 -0.0655  0.2860
 4502TIP3   OH237700   5.382   2.312  16.288 -0.0713 -0.8049 -0.8531
 4502TIP3    H137701   5.383   2.312  16.384  2.2438 -0.6252 -0.8213
 4502TIP3    H237702   5.306   2.257  16.265 -0.3056 -1.3728  1.0655
 4503TIP3   OH237703   1.345   0.305  14.414  0.0469  0.4364 -0.1833
 4503TIP3    H137704   1.389   0.384  14.383  1.1866 -0.3409 -0.6177
 4503TIP3    H237705   1.405   0.234  14.392 -0.6710 -0.4961  0.7518
 4504TIP3   OH237706   2.159   6.553  14.054 -1.4408 -0.4412  0.4410
 4504TIP3    H137707   2.224   6.496  14.014 -2.3314 -0.2772 -1.3396
 4504TIP3    H237708   2.081   6.498  14.062 -1.2767 -0.4825  2.0575
 4505TIP3   OH237709   3.072   4.225  14.730 -0.0495 -0.2718 -0.6338
 4505TIP3    H137710   3.082   4.320  14.719  0.0683 -0.0072  1.4428
 4505TIP3    H237711   2.996   4.215  14.786 -0.0428 -1.4120 -0.8122
 4506TIP3   OH237712   5.625   2.144  15.591 -0.8762 -0.8188 -0.6878
 4506TIP3    H137713   5.585   2.209  15.650  0.5352 -0.6963  0.2014
 4506TIP3    H237714   5.694   2.193  15.545 -0.7406 -1.3578 -1.0680
 4507TIP3   OH237715   4.449   0.015  16.093 -0.3566 -0.5850 -0.1757
 4507TIP3    H137716   4.539   0.008  16.061 -0.7917 -1.3167 -1.2946
 4507TIP3    H237717   4.428  -0.073  16.124 -0.8456 -0.5409 -0.3739
 4508TIP3   OH237718   5.266   3.986  14.574  0.0459  0.4825  0.0173
 4508TIP3    H137719   5.174   3.999  14.596  0.1394  0.0862  0.6469
 4508TIP3    H237720   5.278   4.036  14.493 -0.9616 -0.2896 -0.6295
 4509TIP3   OH237721   2.599   2.055  14.401 -0.2122 -0.3542 -0.3411
 4509TIP3    H137722   2.569   2.018  14.318  1.6564 -1.3073 -0.6363
 4509TIP3    H237723   2.519   2.079  14.447 -1.3417 -1.3261 -1.7263
 4510TIP3   OH237724   2.002   3.952  15.558  0.0165 -0.4957 -0.0911
 4510TIP3    H137725   1.956   3.872  15.583 -1.4471  0.1672 -0.4966
 4510TIP3    H237726   1.969   4.018  15.620  0.4926 -0.0141 -0.3414
 4511TIP3   OH237727   0.750   3.633  16.991  0.5737 -0.3464 -0.6876
 4511TIP3    H137728   0.739   3.594  17.078  1.4014 -0.6175 -0.6955
 4511TIP3    H237729   0.661   3.659  16.965  0.2851 -0.4691  0.1376
 4512TIP3   OH237730   1.648   5.935  16.655 -0.2099 -0.0244  0.5596
 4512TIP3    H137731   1.590   5.967  16.587 -1.0181 -0.6413  0.9460
 4512TIP3    H237732   1.590   5.894  16.719  0.6584 -0.7861  0.8817
 4513TIP3   OH237733   0.340   6.564  16.759  0.5117 -0.5911 -0.1122
 4513TIP3    H137734   0.303   6.489  16.806  1.5022 -1.1530 -0.1957
 4513TIP3    H237735   0.352   6.631  16.826  1.1997 -1.1180  0.3058
 4514TIP3   OH237736   1.735   6.634  15.507 -0.4908 -0.4003  0.6670
 4514TIP3    H137737   1.797   6.697  15.544  1.0961 -0.3303 -1.8476
 4514TIP3    H237738   1.650   6.664  15.537  0.5400  0.3731  3.0631
 4515TIP3   OH237739   4.715   0.620  15.704  0.2497  0.2202  0.1214
 4515TIP3    H137740   4.724   0.709  15.670  1.9576 -0.2322 -0.6880
 4515TIP3    H237741   4.662   0.575  15.639 -2.9185  1.2257  1.7755
 4516TIP3   OH237742   5.339   2.861  15.209 -0.7623  0.1193 -0.3316
 4516TIP3    H137743   5.296   2.777  15.226 -1.8435  0.1978 -2.4256
 4516TIP3    H237744   5.282   2.925  15.252 -0.9559 -0.0491 -0.3357
 4517TIP3   OH237745   1.908   2.961  14.721  0.1621  0.0520  0.0458
 4517TIP3    H137746   1.906   3.015  14.642  2.4861 -1.6676 -1.3082
 4517TIP3    H237747   1.997   2.969  14.754  0.5159 -2.6845 -0.0571
 4518TIP3   OH237748   1.030   5.704  14.998  0.1038  0.1991  0.0857
 4518TIP3    H137749   0.987   5.779  14.956 -0.8094 -0.2244  0.2511
 4518TIP3    H237750   1.090   5.744  15.062 -0.5097  0.7853  0.3091
 4519TIP3   OH237751   4.227   0.049  14.418  0.5044 -0.0054  0.1530
 4519TIP3    H137752   4.302   0.082  14.368 -0.4287  0.7735 -0.7818
 4519TIP3    H237753   4.167   0.123  14.421 -0.4556 -0.7835  0.4278
 4520TIP3   OH237754   2.332   4.708  15.792  0.0672 -0.0749  0.8216
 4520TIP3    H137755   2.386   4.772  15.839 -0.5096 -1.0568  2.9838
 4520TIP3    H237756   2.243   4.726  15.821 -0.5089  0.1090 -0.9871
 4521TIP3   OH237757   2.583   3.495  16.363 -0.1345 -0.0031 -0.2718
 4521TIP3    H137758   2.562   3.485  16.456 -0.7232  2.0019 -0.1347
 4521TIP3    H237759   2.666   3.542  16.362 -0.3256  0.3350 -0.7483
 4522TIP3   OH237760   1.926   4.707  13.560  0.0995  0.2544 -0.6310
 4522TIP3    H137761   1.981   4.634  13.591 -0.6254 -1.0912 -2.3555
 4522TIP3    H237762   1.842   4.693  13.604 -0.1563 -0.1984 -1.2474
 4523TIP3   OH237763   2.061   1.268  13.871 -0.1546  0.6015 -0.1578
 4523TIP3    H137764   2.124   1.256  13.799 -0.6582 -0.1091 -0.4911
 4523TIP3    H237765   2.114   1.302  13.943  0.6011  0.1011 -0.4616
 4524TIP3   OH237766   3.030   0.175  13.586  0.1087  0.1128  0.0466
 4524TIP3    H137767   3.043   0.141  13.497 -2.2328 -0.9308  0.0351
 4524TIP3    H237768   3.020   0.269  13.573  0.6861  0.0972 -0.6566
 4525TIP3   OH237769   0.494   5.859  16.129  0.4999  0.1079  0.0590
 4525TIP3    H137770   0.502   5.767  16.104  0.2663  0.1252 -0.0845
 4525TIP3    H237771   0.541   5.907  16.061  0.0830  0.1368 -0.2153
 4526TIP3   OH237772   6.343   3.796  16.488  0.2891  0.4071 -0.1794
 4526TIP3    H137773   6.400   3.752  16.551  0.1677  0.5980  0.0658
 4526TIP3    H237774   6.288   3.854  16.541 -0.5508 -0.2238 -0.3450
 4527TIP3   OH237775   2.253   4.147  15.919 -0.5145  0.4704 -0.0655
 4527TIP3    H137776   2.221   4.126  16.007  1.6826  0.5566  0.8301
 4527TIP3    H237777   2.349   4.147  15.928 -0.2504  1.7546 -2.1756
 4528TIP3   OH237778   5.645   1.096  15.363 -0.3280 -0.1494  0.6423
 4528TIP3    H137779   5.573   1.092  15.426 -0.6796  3.4254  0.7157
 4528TIP3    H237780   5.602   1.104  15.278  0.1282 -3.0059  0.0734
 4529TIP3   OH237781   2.290   6.055  13.930  0.3236  0.4143  0.4703
 4529TIP3    H137782   2.284   5.971  13.974  1.4882 -0.0111 -0.1566
 4529TIP3    H237783   2.357   6.043  13.862 -1.0672  1.1926 -1.1073
 4530TIP3   OH237784   6.735   0.524  14.916 -0.7535  0.3897 -0.0850
 4530TIP3    H137785   6.802   0.528  14.847  0.0959 -0.7624  0.6233
 4530TIP3    H237786   6.681   0.449  14.892  1.0703 -1.6325  1.7477
 4531TIP3   OH237787   0.876   0.201  13.740 -0.4335 -0.1539  0.4998
 4531TIP3    H137788   0.958   0.250  13.748 -0.0494 -0.1898 -2.3145
 4531TIP3    H237789   0.901   0.109  13.754 -0.3816 -0.0046  1.4946
 4532TIP3   OH237790   4.883   2.560  15.678  0.2002 -0.2801 -0.2180
 4532TIP3    H137791   4.793   2.544  15.707 -0.4499  0.2217 -1.8181
 4532TIP3    H237792   4.886   2.525  15.589  1.0399  1.3456 -0.8780
 4533TIP3   OH237793   4.551   5.766  14.777 -0.2706  0.2042 -0.1548
 4533TIP3    H137794   4.606   5.694  14.745  1.3522  1.7905 -1.1425
 4533TIP3    H237795   4.552   5.756  14.872 -0.5565 -1.3743 -0.2780
 4534TIP3   OH237796   4.096   6.305  15.052 -0.2771  0.2897 -0.1345
 4534TIP3    H137797   4.104   6.231  15.111 -1.4470  0.0335 -0.2692
 4534TIP3    H237798   4.070   6.378  15.107 -1.3361  0.0584 -0.3149
 4535TIP3   OH237799   3.630   3.340  15.155 -0.2361  0.4705  0.5003
 4535TIP3    H137800   3.583   3.328  15.073 -0.0462  0.2515  0.4215
 4535TIP3    H237801   3.612   3.260  15.205 -0.6818  0.7793  0.8382
 4536TIP3   OH237802   1.288   1.946  16.504  0.3635 -1.0118 -0.2811
 4536TIP3    H137803   1.332   1.963  16.588 -0.1671 -2.5038  0.3414
 4536TIP3    H237804   1.251   2.030  16.478  1.6478 -0.2358  0.3197
 4537TIP3   OH237805   3.565   6.544  14.970 -0.4003  0.1214 -0.7273
 4537TIP3    H137806   3.606   6.479  15.027 -0.7090 -1.2074 -1.9566
 4537TIP3    H237807   3.620   6.622  14.978 -0.8275  0.2520  1.8845
 4538TIP3   OH237808   2.002   1.166  16.449  0.2446  0.4677  0.6823
 4538TIP3    H137809   1.959   1.171  16.535 -3.2557  0.9510 -0.9097
 4538TIP3    H237810   1.975   1.247  16.404  0.9026 -0.3597 -1.3173
 4539TIP3   OH237811   4.741   1.334  16.305  0.4545  0.1230  0.1223
 4539TIP3    H137812   4.794   1.414  16.305 -0.1735  0.5675 -0.7001
 4539TIP3    H237813   4.760   1.291  16.388  0.3991  1.4120  0.8207
 4540TIP3   OH237814   4.009   1.261  15.909 -0.1553  0.5391  0.6282
 4540TIP3    H137815   4.061   1.280  15.988 -0.9269  1.1078  1.0086
 4540TIP3    H237816   3.951   1.336  15.899 -0.4663  0.2071 -0.1604
 4541TIP3   OH237817   1.056   6.131  16.225  0.1194 -0.2205  0.3844
 4541TIP3    H137818   1.023   6.050  16.185 -1.5689  1.4470 -1.8244
 4541TIP3    H237819   1.035   6.199  16.162  1.8479  1.9343  1.9953
 4542TIP3   OH237820   2.208   5.663  16.996  0.0070  0.1998 -0.2653
 4542TIP3    H137821   2.181   5.731  17.058 -0.6552 -0.6197  0.3785
 4542TIP3    H237822   2.132   5.604  16.992  0.4169 -0.2859 -1.1206
 4543TIP3   OH237823   6.290   4.370  15.541  0.0007  0.2562 -0.3177
 4543TIP3    H137824   6.282   4.457  15.580 -1.0646  0.0071  0.0451
 4543TIP3    H237825   6.381   4.365  15.512 -0.8234  3.0436 -4.0514
 4544TIP3   OH237826   1.030   5.829  15.360 -1.0565  1.0286  0.3826
 4544TIP3    H137827   1.031   5.734  15.363  0.8117  1.0077  0.2668
 4544TIP3    H237828   0.939   5.852  15.343 -1.1827 -0.8026 -1.7722
 4545TIP3   OH237829   1.550   4.314  16.080  0.2035 -0.1813 -0.0377
 4545TIP3    H137830   1.537   4.292  15.987  0.9410  1.3684 -0.5494
 4545TIP3    H237831   1.462   4.334  16.112 -0.2229 -1.9494 -0.0499
 4546TIP3   OH237832   1.077   2.933  15.259  0.4902 -0.4029  0.1739
 4546TIP3    H137833   1.029   2.879  15.196  1.6931 -0.8356 -0.4138
 4546TIP3    H237834   1.161   2.889  15.268  0.9088  0.5234  0.8984
 4547TIP3   OH237835   6.227   2.182  16.570 -0.3638 -0.8667 -0.2137
 4547TIP3    H137836   6.206   2.250  16.506  0.2230 -0.0275  0.4655
 4547TIP3    H237837   6.203   2.100  16.527 -1.7914 -0.1894 -0.7692
 4548TIP3   OH237838   2.392   2.350  16.364  0.0596 -0.2620 -0.2779
 4548TIP3    H137839   2.395   2.259  16.336 -1.5317 -0.1976 -0.7575
 4548TIP3    H237840   2.420   2.349  16.455 -1.2727 -1.4445  0.1548
 4549TIP3   OH237841   5.075   5.463  16.362  0.3423  0.3065 -0.0492
 4549TIP3    H137842   5.149   5.522  16.354 -0.4911  1.7066  1.7885
 4549TIP3    H237843   5.034   5.463  16.276  1.6816  0.5577 -0.7108
 4550TIP3   OH237844   0.099   2.438  15.351  0.0742  0.6090 -0.1256
 4550TIP3    H137845   0.022   2.388  15.379 -0.0160  0.3101 -0.8897
 4550TIP3    H237846   0.159   2.433  15.426 -1.1943  2.0476  1.0468
 4551TIP3   OH237847   6.134   0.599  16.693  0.1967  0.6031 -0.4729
 4551TIP3    H137848   6.099   0.511  16.678  1.1732  0.0481  0.3862
 4551TIP3    H237849   6.229   0.589  16.684  0.3283  1.5501 -0.2405
 4552TIP3   OH237850   3.873   1.964  14.745 -0.1859  0.0930  0.4068
 4552TIP3    H137851   3.959   1.925  14.762 -0.0532  0.1309 -0.1374
 4552TIP3    H237852   3.892   2.055  14.724 -0.1534 -0.3060 -1.4916
 4553TIP3   OH237853   6.584   4.334  16.781 -0.0628 -0.3933 -0.0149
 4553TIP3    H137854   6.531   4.287  16.716 -2.1913  0.9585  0.6295
 4553TIP3    H237855   6.535   4.414  16.799  1.4503  0.2145  1.8241
 4554TIP3   OH237856   0.314   4.403  16.760  0.0842 -0.0523 -0.2645
 4554TIP3    H137857   0.223   4.418  16.734  0.0103 -0.0383 -0.0030
 4554TIP3    H237858   0.360   4.383  16.678  0.2188  1.7439 -0.6706
 4555TIP3   OH237859   5.445   5.144  15.849  0.0927  0.4973  0.1285
 4555TIP3    H137860   5.522   5.150  15.907 -0.0168 -0.6976  0.4212
 4555TIP3    H237861   5.445   5.054  15.819 -1.8566  0.1330  1.0669
 4556TIP3   OH237862   2.032   1.004  13.782  0.0682  0.0388 -0.2336
 4556TIP3    H137863   2.032   1.089  13.826  1.2205 -0.0234 -0.0986
 4556TIP3    H237864   2.046   1.025  13.689 -2.6931  0.1965 -0.7031
 4557TIP3   OH237865   6.732   6.353  15.892 -0.0210 -0.2946 -0.0207
 4557TIP3    H137866   6.698   6.435  15.927 -0.2878  0.4375 -1.8684
 4557TIP3    H237867   6.741   6.369  15.798 -0.0879 -2.3834 -0.4355
 4558TIP3   OH237868   4.716   2.022  16.620 -0.1024  0.0083 -0.2556
 4558TIP3    H137869   4.633   2.005  16.665 -1.4381 -1.1283 -2.8653
 4558TIP3    H237870   4.727   2.117  16.623 -0.0482 -0.0196  2.4194
 4559TIP3   OH237871   2.119   5.853  17.226 -0.0633  0.3910 -0.3590
 4559TIP3    H137872   2.125   5.833  17.319 -1.0896 -0.9707 -0.5416
 4559TIP3    H237873   2.030   5.828  17.202 -0.1893  1.8000 -1.4781
 4560TIP3   OH237874   6.430   0.244  16.083 -0.3672 -0.3587 -0.3214
 4560TIP3    H137875   6.425   0.333  16.047 -0.9765  0.0156  0.6509
 4560TIP3    H237876   6.372   0.192  16.028 -1.7280  0.3293  0.4197
 4561TIP3   OH237877   0.193   1.740  14.937  0.0052 -0.0527  0.0599
 4561TIP3    H137878   0.128   1.725  14.869 -0.6953 -1.2269  0.9553
 4561TIP3    H237879   0.271   1.771  14.890 -1.1825  1.4151 -1.0163
 4562TIP3   OH237880   5.477   4.876  15.801  0.2494  0.0784 -0.2331
 4562TIP3    H137881   5.406   4.828  15.759 -1.0846  1.5198  0.2748
 4562TIP3    H237882   5.479   4.843  15.891 -0.2681  0.5343 -0.0503
 4563TIP3   OH237883   0.219   1.577  15.908  0.3015 -0.6110 -0.4436
 4563TIP3    H137884   0.145   1.622  15.867 -0.2334  0.1318  1.2444
 4563TIP3    H237885   0.186   1.490  15.929  0.9527 -1.4352 -2.5895
 4564TIP3   OH237886   0.943   5.760  15.645  0.1061 -0.0600 -0.4690
 4564TIP3    H137887   0.956   5.707  15.566  2.2056  0.4070 -0.5043
 4564TIP3    H237888   0.990   5.712  15.714 -2.8468 -1.1902  0.9114
 4565TIP3   OH237889   2.505   4.274  14.875 -0.4229  0.2493  0.1408
 4565TIP3    H137890   2.550   4.252  14.794  2.6400  2.1588  1.1735
 4565TIP3    H237891   2.455   4.353  14.855 -3.3044 -1.6317 -0.8822
 4566TIP3   OH237892   2.398   2.757  15.291  0.5669  0.3417  0.1075
 4566TIP3    H137893   2.440   2.759  15.205  1.0152  1.2391  0.3294
 4566TIP3    H237894   2.304   2.749  15.272  0.6878  0.2298 -0.4532
 4567TIP3   OH237895   1.780   0.043  16.262 -0.0581  0.1083  0.0935
 4567TIP3    H137896   1.796  -0.052  16.260  0.6383  0.2359 -1.6032
 4567TIP3    H237897   1.685   0.051  16.256 -0.0798 -0.4690 -0.4148
 4568TIP3   OH237898   4.765   3.758  16.326 -0.8598  0.0847 -0.1554
 4568TIP3    H137899   4.709   3.835  16.334  1.1010  1.5941 -0.3839
 4568TIP3    H237900   4.759   3.734  16.233 -1.5037 -0.0894 -0.0748
 4569TIP3   OH237901   2.694   2.793  15.532  0.2071  0.2648 -0.2714
 4569TIP3    H137902   2.726   2.708  15.503 -0.2986  0.1709 -0.5655
 4569TIP3    H237903   2.742   2.810  15.613 -0.2959 -0.6756  0.2372
 4570TIP3   OH237904   2.400   1.920  13.708 -0.2614 -0.2999 -0.7611
 4570TIP3    H137905   2.437   2.005  13.684  0.5121  0.5948  2.9708
 4570TIP3    H237906   2.306   1.937  13.719 -0.1464  0.0113 -0.2562
 4571TIP3   OH237907   1.590   0.930  15.119 -0.0758  0.1818  0.0680
 4571TIP3    H137908   1.608   0.910  15.211  1.3648  1.7894  0.1733
 4571TIP3    H237909   1.502   0.894  15.104  0.3198 -1.5930  1.5750
 4572TIP3   OH237910   5.565   3.195  14.265  0.3251 -0.3890  0.0485
 4572TIP3    H137911   5.524   3.169  14.347 -1.4923 -2.3204 -1.3465
 4572TIP3    H237912   5.493   3.226  14.210  1.3708  0.1208 -1.0945
 4573TIP3   OH237913   1.206   0.958  16.984  0.6369 -0.1290 -0.2823
 4573TIP3    H137914   1.289   0.918  17.010  0.5443  0.2722  0.6495
 4573TIP3    H237915   1.224   1.052  16.980  0.5059 -0.1242 -1.1768
 4574TIP3   OH237916   6.468   6.114  14.700  0.2457  0.4098  0.0923
 4574TIP3    H137917   6.537   6.143  14.642  0.3967  0.0409  0.0823
 4574TIP3    H237918   6.411   6.061  14.645  1.1537 -1.1322  0.5618
 4575TIP3   OH237919   1.583   6.152  14.423  0.4242 -0.6234 -0.2496
 4575TIP3    H137920   1.567   6.208  14.499 -1.5071  0.3023 -1.2564
 4575TIP3    H237921   1.667   6.180  14.389  0.1812  0.6452  0.1496
 4576TIP3   OH237922   4.724   1.484  13.161  0.6854  0.1223 -0.2721
 4576TIP3    H137923   4.758   1.554  13.217  2.9375 -1.3217  0.3372
 4576TIP3    H237924   4.672   1.429  13.220 -1.2689  1.3037 -0.7966
 4577TIP3   OH237925   3.670   2.111  15.146  0.3964 -0.1421 -0.0382
 4577TIP3    H137926   3.672   2.163  15.066  0.7446  0.0259  0.0772
 4577TIP3    H237927   3.641   2.171  15.214  1.2416  0.0339  0.1815
 4578TIP3   OH237928   5.924   4.071  14.338 -0.2180  0.6324  0.1972
 4578TIP3    H137929   5.914   4.060  14.432 -0.4395  1.4564  0.2833
 4578TIP3    H237930   5.873   4.000  14.300  1.5079 -0.9472  0.6796
 4579TIP3   OH237931   1.660   6.351  16.718 -0.1494 -0.5436 -0.4343
 4579TIP3    H137932   1.675   6.433  16.766 -0.3509  0.5446 -2.1539
 4579TIP3    H237933   1.570   6.327  16.740  0.6251 -1.6420  1.9333
 4580TIP3   OH237934   0.948   2.621  14.565 -0.8887 -0.8862 -0.9274
 4580TIP3    H137935   0.959   2.551  14.630 -0.0886 -0.0087 -0.0868
 4580TIP3    H237936   0.888   2.584  14.500 -1.7647 -1.7668  0.3401
 4581TIP3   OH237937   6.213   2.914  14.892 -0.3408  0.0763  0.2737
 4581TIP3    H137938   6.148   2.944  14.955 -0.5213 -1.6540  0.9672
 4581TIP3    H237939   6.163   2.886  14.815 -0.2820  0.3634  0.1318
 4582TIP3   OH237940   5.532   0.069  15.950  0.6422  0.1984 -0.1447
 4582TIP3    H137941   5.587   0.105  15.881 -1.3828  0.7911 -1.5472
 4582TIP3    H237942   5.518  -0.022  15.925 -2.1649  1.0183 -2.0919
 4583TIP3   OH237943   6.605   6.423  15.209 -0.0782 -0.2333 -0.2120
 4583TIP3    H137944   6.548   6.374  15.267  2.0258 -3.4334 -0.5585
 4583TIP3    H237945   6.689   6.427  15.256  0.1863  2.0444 -0.7670
 4584TIP3   OH237946   0.726   4.810  16.880 -0.1036 -0.4572 -0.2627
 4584TIP3    H137947   0.786   4.759  16.936 -0.5901  1.0587  1.7616
 4584TIP3    H237948   0.642   4.765  16.888 -0.2317 -0.1030  0.4798
 4585TIP3   OH237949   5.089   6.667  16.264  0.3191 -0.2010  0.0765
 4585TIP3    H137950   5.065   6.677  16.172 -0.4663  1.8244  0.4464
 4585TIP3    H237951   5.025   6.720  16.312 -0.0470 -2.1416  1.9323
 4586TIP3   OH237952   3.746   2.477  15.155  0.3584  0.6138 -0.5707
 4586TIP3    H137953   3.787   2.480  15.068 -0.4361  0.1576 -0.9694
 4586TIP3    H237954   3.806   2.424  15.208  0.5024  0.3212 -1.0222
 4587TIP3   OH237955   5.907   5.076  16.138 -0.1720 -0.1446  0.1770
 4587TIP3    H137956   5.964   5.000  16.130 -1.7021 -1.3565  0.2524
 4587TIP3    H237957   5.944   5.141  16.078 -0.1405 -1.7959 -1.6627
 4588TIP3   OH237958   3.069   2.180  16.753  0.3596 -0.5340 -0.1150
 4588TIP3    H137959   3.039   2.246  16.691  0.8103  1.5624  1.7842
 4588TIP3    H237960   3.005   2.183  16.824  0.6427 -1.8346  0.2221
 4589TIP3   OH237961   5.955   0.601  15.685 -0.4643 -0.5428  0.1297
 4589TIP3    H137962   5.988   0.682  15.646  0.6129  0.0242  2.1139
 4589TIP3    H237963   5.875   0.582  15.635 -0.1759  1.1487 -1.0656
 4590TIP3   OH237964   1.261   4.671  16.660 -0.2604 -0.0330 -0.3196
 4590TIP3    H137965   1.250   4.667  16.755  0.9241  0.2302 -0.1638
 4590TIP3    H237966   1.200   4.740  16.632 -1.0462 -0.5151  0.1640
 4591TIP3   OH237967   0.205   6.412  14.009  0.1002  0.0595 -0.0118
 4591TIP3    H137968   0.278   6.459  13.968  2.5786 -2.3094  1.3583
 4591TIP3    H237969   0.184   6.342  13.947 -0.4088  0.1874  0.0121
 4592TIP3   OH237970   3.298   3.953  14.047 -0.1156 -0.0627 -0.1576
 4592TIP3    H137971   3.317   3.921  14.135 -1.1817 -0.7130 -0.1503
 4592TIP3    H237972   3.358   4.027  14.035  1.1128 -0.9017  0.5291
 4593TIP3   OH237973   1.843   5.834  16.883 -0.3120 -0.6089  0.4182
 4593TIP3    H137974   1.861   5.880  16.801 -3.7245  1.3234  0.5423
 4593TIP3    H237975   1.804   5.751  16.856  0.5572 -0.9233  0.1180
 4594TIP3   OH237976   3.967   5.694  14.681 -0.3515 -0.0456  0.5169
 4594TIP3    H137977   3.974   5.699  14.776 -0.4799  0.8499  0.4947
 4594TIP3    H237978   4.055   5.668  14.651 -0.6963 -1.7585  0.9488
 4595TIP3   OH237979   5.713   5.139  13.704  0.4004  0.4224 -0.2985
 4595TIP3    H137980   5.736   5.047  13.715 -2.4190 -0.2292  1.3589
 4595TIP3    H237981   5.703   5.172  13.793 -1.3833  1.4994 -0.8386
 4596TIP3   OH237982   6.455   4.791  16.405 -0.3538 -0.8643 -0.1262
 4596TIP3    H137983   6.410   4.757  16.327  0.0852 -0.3688 -0.6134
 4596TIP3    H237984   6.386   4.832  16.457 -0.2255  2.1282 -2.0557
 4597TIP3   OH237985   1.285   6.493  17.274 -0.0698  0.3349 -0.0299
 4597TIP3    H137986   1.328   6.414  17.242 -0.1392  0.1751  0.2721
 4597TIP3    H237987   1.346   6.529  17.339  0.1211  0.7181 -0.4148
 4598TIP3   OH237988   2.770   6.285  13.508  0.0061  0.0888 -0.2042
 4598TIP3    H137989   2.714   6.227  13.456  0.2621 -0.6801  0.3587
 4598TIP3    H237990   2.778   6.240  13.592  0.7764  0.6101  0.0039
 4599TIP3   OH237991   4.926   2.608  13.935  0.1945  1.0096  0.7846
 4599TIP3    H137992   4.936   2.524  13.889 -2.5175  1.5368 -0.9826
 4599TIP3    H237993   4.993   2.664  13.896  0.0432  0.5039 -0.2338
 4600TIP3   OH237994   3.667   3.371  15.924 -0.8405  0.5926 -0.3750
 4600TIP3    H137995   3.716   3.319  15.988  1.7644  0.0584 -2.6457
 4600TIP3    H237996   3.706   3.458  15.928  0.4354  0.1523 -2.2407
 4601TIP3   OH237997   2.980   3.346  16.560 -0.2364  0.5850 -0.4665
 4601TIP3    H137998   2.899   3.300  16.579 -1.0975  1.6845 -1.3055
 4601TIP3    H237999   2.972   3.372  16.468  0.7597  1.3089 -0.3670
 4602TIP3   OH238000   0.385   4.796  15.814  0.1602 -0.1681  0.1575
 4602TIP3    H138001   0.436   4.730  15.861  1.7876  1.5723  1.0013
 4602TIP3    H238002   0.357   4.752  15.734  1.2449 -1.8433  0.6345
 4603TIP3   OH238003   1.158   5.407  16.785 -0.0560 -0.0019 -0.2409
 4603TIP3    H138004   1.229   5.351  16.752  0.8715  0.9095  0.1675
 4603TIP3    H238005   1.174   5.492  16.744  0.7432  0.9822  1.9751
 4604TIP3   OH238006   1.989   5.166  16.928  0.1602  0.6004 -0.4322
 4604TIP3    H138007   1.974   5.185  16.836  0.5355 -1.1182 -0.8902
 4604TIP3    H238008   1.927   5.222  16.975  2.5429  4.4462 -1.4173
 4605TIP3   OH238009   5.018   6.237  14.472 -0.2537  0.2022  0.8304
 4605TIP3    H138010   5.114   6.243  14.472 -0.1729 -0.8590  1.2911
 4605TIP3    H238011   4.990   6.308  14.414  0.8205  0.3288  0.4306
 4606TIP3   OH238012   3.307   0.965  14.708 -0.3416 -0.2536 -0.3622
 4606TIP3    H138013   3.310   0.970  14.613  0.1989 -0.0961 -0.3407
 4606TIP3    H238014   3.363   0.891  14.731  1.2157  0.9432 -0.0775
 4607TIP3   OH238015   2.913   0.667  16.514  0.5010  0.1851  0.2872
 4607TIP3    H138016   2.845   0.723  16.476 -0.3830 -0.0796  1.4081
 4607TIP3    H238017   2.879   0.578  16.505  1.2241 -0.0515 -0.1574
 4608TIP3   OH238018   2.654   4.989  15.240 -0.0243 -0.0304  0.0654
 4608TIP3    H138019   2.703   4.931  15.297  1.7070  0.3483 -0.9684
 4608TIP3    H238020   2.616   4.930  15.174  1.7139 -0.0498 -0.9730
 4609TIP3   OH238021   0.828   3.588  15.534 -0.1173 -0.1790 -0.5372
 4609TIP3    H138022   0.840   3.585  15.439  1.8276 -0.8260 -0.3106
 4609TIP3    H238023   0.896   3.531  15.569 -0.1272  0.8645  1.3123
 4610TIP3   OH238024   6.670   5.345  14.251  0.4534 -0.3266  0.2114
 4610TIP3    H138025   6.679   5.340  14.155  0.8944  0.2904  0.2163
 4610TIP3    H238026   6.759   5.348  14.283  0.2984 -0.0331  0.6180
 4611TIP3   OH238027   1.785   5.041  16.148  0.0924 -0.5066 -0.4783
 4611TIP3    H138028   1.880   5.031  16.141  0.2193 -0.8299  1.2774
 4611TIP3    H238029   1.759   4.976  16.213 -1.0082  1.1029  0.7634
 4612TIP3   OH238030   5.758   5.271  16.297 -0.0307  0.0840  0.5863
 4612TIP3    H138031   5.793   5.182  16.286 -0.9023 -0.2802  0.6942
 4612TIP3    H238032   5.820   5.314  16.356  1.8325  0.3999 -1.4573
 4613TIP3   OH238033   6.118   5.678  14.562 -0.0399 -0.0061 -1.1695
 4613TIP3    H138034   6.050   5.734  14.601  0.5489  0.0231 -0.1603
 4613TIP3    H238035   6.171   5.649  14.636  0.5243 -0.7537 -1.8471
 4614TIP3   OH238036   0.499   0.085  17.046  0.3072  0.2250 -0.3995
 4614TIP3    H138037   0.523   0.141  17.120 -1.3998  2.4324 -1.3904
 4614TIP3    H238038   0.410   0.113  17.023  0.6133 -0.7151 -2.9848
 4615TIP3   OH238039   3.317   1.797  16.310  0.1749  0.1992 -0.3811
 4615TIP3    H138040   3.275   1.790  16.224  0.2284  0.1388 -0.4025
 4615TIP3    H238041   3.387   1.861  16.297  0.6825 -0.3848 -0.5837
 4616TIP3   OH238042   4.734   1.589  14.488  0.1304  0.6156  0.0708
 4616TIP3    H138043   4.666   1.635  14.537 -0.7088  1.4314 -1.7649
 4616TIP3    H238044   4.738   1.503  14.528 -1.4656  0.8029  0.7171
 4617TIP3   OH238045   1.522   2.730  16.399 -0.2572  0.2739  0.3550
 4617TIP3    H138046   1.460   2.659  16.415  0.0002  0.0631  0.4372
 4617TIP3    H238047   1.608   2.691  16.420 -0.1969  0.8755  1.2846
 4618TIP3   OH238048   5.895   1.105  16.730 -0.0487  0.0146  0.5149
 4618TIP3    H138049   5.889   1.016  16.695 -0.3619  0.7958 -1.5853
 4618TIP3    H238050   5.985   1.132  16.712 -0.6744  1.0228 -1.3635
 4619TIP3   OH238051   4.451   3.105  15.330  0.4913 -0.1378  0.0504
 4619TIP3    H138052   4.465   3.105  15.235  1.9431 -1.5517  0.2316
 4619TIP3    H238053   4.407   3.022  15.348 -0.8897  0.6435  0.5173
 4620TIP3   OH238054   1.268   2.354  15.495 -0.4736  0.2447 -0.1679
 4620TIP3    H138055   1.216   2.356  15.415  2.6584  2.0771 -2.4012
 4620TIP3    H238056   1.281   2.261  15.513 -1.1404 -0.2106 -1.8887
 4621TIP3   OH238057   3.968   0.619  16.901  0.4754 -0.1075 -0.2773
 4621TIP3    H138058   4.007   0.675  16.967 -1.1225  1.1684 -0.3671
 4621TIP3    H238059   3.922   0.679  16.842  0.4785 -1.3478 -1.6084
 4622TIP3   OH238060   3.366   1.100  13.488 -0.5777 -0.1232 -0.2465
 4622TIP3    H138061   3.400   1.012  13.504  1.6352  1.0808  2.4439
 4622TIP3    H238062   3.410   1.129  13.409 -0.7537 -1.1123 -0.7285
 4623TIP3   OH238063   1.976   1.944  14.035  0.4017 -0.0209  0.0723
 4623TIP3    H138064   1.928   1.955  14.117 -0.1879  2.0799 -0.4862
 4623TIP3    H238065   1.912   1.966  13.967  1.6214  0.9866 -0.7894
 4624TIP3   OH238066   4.919   1.153  13.855  0.6359 -0.0797 -0.5454
 4624TIP3    H138067   5.000   1.202  13.872 -0.0106  0.9999 -0.5149
 4624TIP3    H238068   4.862   1.215  13.810 -0.1504 -0.8606 -0.6535
 4625TIP3   OH238069   0.216   6.368  16.893 -0.3058 -0.3189 -0.1516
 4625TIP3    H138070   0.170   6.326  16.821 -1.3491  0.1687  0.2104
 4625TIP3    H238071   0.276   6.301  16.925  1.5176  0.0090 -2.5994
 4626TIP3   OH238072   4.024   5.110  15.310 -0.2210  0.9415 -0.0715
 4626TIP3    H138073   4.014   5.019  15.338  0.4412  1.1690  0.9873
 4626TIP3    H238074   4.063   5.105  15.223  1.8302  0.1864  0.8176
 4627TIP3   OH238075   5.231   4.243  14.901 -0.0369 -0.3353  0.6589
 4627TIP3    H138076   5.269   4.236  14.989 -0.2102 -1.0993  0.6781
 4627TIP3    H238077   5.193   4.331  14.898  1.6236  0.4263  0.6829
 4628TIP3   OH238078   1.254   0.153  15.548 -0.4643  0.0192 -0.0280
 4628TIP3    H138079   1.196   0.147  15.472 -1.4383  0.6886  0.6427
 4628TIP3    H238080   1.251   0.245  15.574  0.9967  0.0948 -0.0356
 4629TIP3   OH238081   5.099   5.033  16.336 -0.8040  0.3757 -0.4937
 4629TIP3    H138082   5.165   5.098  16.311 -0.1181 -0.1893 -0.1416
 4629TIP3    H238083   5.093   5.040  16.431 -1.6907  0.8350 -0.5653
 4630TIP3   OH238084   3.344   6.641  15.674  0.5760  0.4610  0.0194
 4630TIP3    H138085   3.254   6.671  15.670  0.1690 -0.5680  0.9949
 4630TIP3    H238086   3.396   6.721  15.682 -0.3145  1.0058  0.4640
 4631TIP3   OH238087   4.790   4.672  14.399 -0.4806  0.1463  0.4501
 4631TIP3    H138088   4.841   4.670  14.318  1.1203  0.6348  1.4118
 4631TIP3    H238089   4.728   4.744  14.387 -0.3025  0.1692 -0.3606
 4632TIP3   OH238090   1.206   5.621  16.082 -0.7390  0.4952 -0.2314
 4632TIP3    H138091   1.248   5.542  16.115 -0.3721  1.3230  1.3896
 4632TIP3    H238092   1.123   5.591  16.045 -0.4883 -0.6738  0.1217
 4633TIP3   OH238093   0.030   5.496  16.037 -0.3271 -0.2787 -0.1403
 4633TIP3    H138094   0.082   5.577  16.036  1.2843 -1.2745 -0.9372
 4633TIP3    H238095   0.008   5.481  15.945 -0.4599 -0.8410 -0.0189
 4634TIP3   OH238096   2.671   2.581  13.737 -0.2285  0.4512 -0.3685
 4634TIP3    H138097   2.688   2.548  13.649 -1.2201 -1.0511 -0.0302
 4634TIP3    H238098   2.641   2.671  13.724 -0.2954  0.2670 -1.5557
 4635TIP3   OH238099   1.886   4.247  14.581 -0.6064  0.2505 -0.2318
 4635TIP3    H138100   1.908   4.323  14.526  0.1694 -0.0613 -0.3657
 4635TIP3    H238101   1.817   4.202  14.532  0.2671 -0.1763 -1.1238
 4636TIP3   OH238102   4.489   5.345  15.465 -0.1413 -0.9304 -0.6026
 4636TIP3    H138103   4.482   5.362  15.559 -0.5557  1.8690 -1.0341
 4636TIP3    H238104   4.408   5.301  15.442  0.0934 -1.9153  0.3861
 4637TIP3   OH238105   5.939   0.969  13.351 -0.6066 -0.0745 -0.0182
 4637TIP3    H138106   5.984   1.051  13.329  0.9086 -0.9215 -0.2163
 4637TIP3    H238107   5.872   0.959  13.283 -0.4673  0.7276 -0.2870
 4638TIP3   OH238108   3.573   6.062  13.558 -0.2528  0.5320  0.3674
 4638TIP3    H138109   3.520   6.137  13.582 -0.7730 -0.1503  1.4010
 4638TIP3    H238110   3.511   5.992  13.542  0.2917 -0.2868  1.6225
 4639TIP3   OH238111   1.540   2.874  14.179  0.2973  0.0852  0.0128
 4639TIP3    H138112   1.533   2.792  14.229  0.3239  0.3050  0.3825
 4639TIP3    H238113   1.470   2.868  14.114  0.5559 -0.4091 -0.2265
 4640TIP3   OH238114   0.584   2.591  16.352 -0.4799  0.1303  0.3963
 4640TIP3    H138115   0.498   2.622  16.324 -0.1574 -0.1755 -0.9654
 4640TIP3    H238116   0.627   2.560  16.272 -0.0617 -2.0794  1.3963
 4641TIP3   OH238117   4.707   0.214  16.557  0.2284 -0.3375  0.0005
 4641TIP3    H138118   4.637   0.173  16.607  0.3236  0.5684  0.8957
 4641TIP3    H238119   4.666   0.242  16.475 -0.8907  1.6947  1.1953
 4642TIP3   OH238120   3.750   0.371  16.585  0.1261 -0.1689  0.1391
 4642TIP3    H138121   3.826   0.322  16.618 -0.2257 -0.4575  0.5365
 4642TIP3    H238122   3.762   0.460  16.620  0.5703 -0.0640 -0.2688
 4643TIP3   OH238123   6.308   5.779  15.324 -0.1021  0.2274 -0.0949
 4643TIP3    H138124   6.275   5.689  15.323 -1.8415  0.8068 -1.7424
 4643TIP3    H238125   6.399   5.772  15.296 -0.8676 -0.8795 -2.5859
 4644TIP3   OH238126   6.723   3.833  16.078  0.4611  0.3367  0.2057
 4644TIP3    H138127   6.732   3.787  15.995  0.9957 -1.1735  1.0578
 4644TIP3    H238128   6.646   3.794  16.120 -0.5856  1.9905 -0.1101
 4645TIP3   OH238129   4.846   5.236  16.498 -0.0473 -0.1470 -0.2618
 4645TIP3    H138130   4.806   5.322  16.513 -1.1975 -0.0774 -3.0675
 4645TIP3    H238131   4.863   5.234  16.404  2.5558 -1.9583  0.1390
 4646TIP3   OH238132   6.176   4.838  16.883  0.5774 -0.3463  0.2722
 4646TIP3    H138133   6.142   4.870  16.966 -1.4931 -2.2289  0.2661
 4646TIP3    H238134   6.203   4.748  16.901 -0.6403 -1.0628 -1.2008
 4647TIP3   OH238135   2.594   3.150  14.396  0.1261  0.1114 -0.1866
 4647TIP3    H138136   2.553   3.233  14.418  1.3587  0.7537 -0.2247
 4647TIP3    H238137   2.676   3.150  14.445  0.4403 -0.7953 -0.6884
 4648TIP3   OH238138   1.188   4.991  14.455 -0.4007 -0.4049 -0.3864
 4648TIP3    H138139   1.097   5.019  14.451 -0.6365 -1.2318 -0.9990
 4648TIP3    H238140   1.226   5.045  14.525 -1.1590  0.4791 -0.6240
 4649TIP3   OH238141   2.562   6.258  16.000  0.1775 -0.2875 -0.8609
 4649TIP3    H138142   2.511   6.264  16.080  0.3583 -0.8619 -0.6996
 4649TIP3    H238143   2.533   6.177  15.958  0.3774 -0.2010 -1.1757
 4650TIP3   OH238144   6.668   6.262  14.474 -0.5629  0.2642 -0.3494
 4650TIP3    H138145   6.627   6.345  14.449 -0.1734  0.3153 -0.8301
 4650TIP3    H238146   6.724   6.285  14.549 -0.6771  0.3768 -0.2982
 4651TIP3   OH238147   1.503   2.996  13.594  0.3585 -0.2303 -1.4363
 4651TIP3    H138148   1.427   2.995  13.652  0.1668 -0.3768 -1.6897
 4651TIP3    H238149   1.495   2.916  13.542  0.9798 -0.5327 -1.0818
 4652TIP3   OH238150   0.179   1.319  15.560 -0.2766  0.1048  0.5904
 4652TIP3    H138151   0.117   1.339  15.630 -0.0025 -0.2688  0.9438
 4652TIP3    H238152   0.182   1.399  15.507  0.5797  0.8957  1.7964
 4653TIP3   OH238153   0.661   5.126  14.424 -0.2714  0.0583  0.2967
 4653TIP3    H138154   0.572   5.099  14.446 -0.7728  0.7358 -0.8180
 4653TIP3    H238155   0.660   5.222  14.431  0.4150  0.0671  0.4212
 4654TIP3   OH238156   0.032   5.392  16.871 -0.0359 -0.0496 -0.5397
 4654TIP3    H138157   0.036   5.459  16.939 -0.4916 -0.7717  0.2291
 4654TIP3    H238158   0.070   5.433  16.794  1.4849  0.4566  0.4352
 4655TIP3   OH238159   3.194   2.142  16.088  0.0942  0.5750  0.0645
 4655TIP3    H138160   3.250   2.151  16.165  0.2388  0.7870 -0.0639
 4655TIP3    H238161   3.143   2.222  16.087 -0.2945  0.3347  0.2457
 4656TIP3   OH238162   4.497   4.563  14.994 -0.2138  0.3209 -0.1863
 4656TIP3    H138163   4.429   4.595  14.934 -0.8386 -0.7282 -0.0716
 4656TIP3    H238164   4.449   4.513  15.060  0.6219  0.0843  0.2581
 4657TIP3   OH238165   1.943   0.781  16.217 -0.1256  0.0388  0.6070
 4657TIP3    H138166   1.949   0.817  16.129 -1.2192  0.7856  0.8187
 4657TIP3    H238167   1.979   0.849  16.273 -0.3075 -0.0341  0.8167
 4658TIP3   OH238168   0.109   1.236  13.644  0.5498 -0.3682  0.2464
 4658TIP3    H138169   0.016   1.255  13.630  0.7261  0.1431 -0.2391
 4658TIP3    H238170   0.125   1.156  13.594  0.0209 -1.3563  1.5736
 4659TIP3   OH238171   1.540   5.738  14.091 -0.8701  0.4807  0.2518
 4659TIP3    H138172   1.542   5.826  14.130 -0.4611  0.3486  0.5400
 4659TIP3    H238173   1.589   5.747  14.009 -0.2862  0.3883  0.5823
 4660TIP3   OH238174   6.341   3.724  16.806 -0.2224  0.6489 -0.0189
 4660TIP3    H138175   6.307   3.637  16.824 -0.3027  0.8376  0.7749
 4660TIP3    H238176   6.277   3.763  16.747 -0.3313  0.2715 -0.1530
 4661TIP3   OH238177   5.912   4.452  15.745 -0.1017  0.0117  0.4588
 4661TIP3    H138178   5.962   4.406  15.677 -0.7491 -0.7237  0.4724
 4661TIP3    H238179   5.857   4.513  15.697  1.0687  1.1175  0.4620
 4662TIP3   OH238180   2.577   4.808  16.455 -0.1750 -0.0708 -0.1174
 4662TIP3    H138181   2.562   4.816  16.549  1.9536  0.6404  0.2206
 4662TIP3    H238182   2.522   4.735  16.427 -0.7213 -0.3836  1.6872
 4663TIP3   OH238183   3.083   2.104  14.356  0.1657 -0.2817 -0.3297
 4663TIP3    H138184   3.015   2.049  14.319 -0.1722 -0.0214 -0.1122
 4663TIP3    H238185   3.053   2.121  14.446  1.2380 -1.3672  0.2663
 4664TIP3   OH238186   4.764   3.976  16.636 -0.0557  0.0481 -0.0680
 4664TIP3    H138187   4.796   3.966  16.546  1.9702  0.3412  0.5490
 4664TIP3    H238188   4.757   4.071  16.648  1.0190  0.0764  0.4707
 4665TIP3   OH238189   5.480   1.019  16.396 -0.1356 -0.4078  0.3504
 4665TIP3    H138190   5.388   1.029  16.420  0.0371 -0.3796  1.0123
 4665TIP3    H238191   5.505   1.103  16.358 -0.6453 -0.7347 -0.7478
 4666TIP3   OH238192   0.409   3.798  14.267 -0.0627  0.5419  0.2448
 4666TIP3    H138193   0.393   3.731  14.333 -0.7208  0.4894  0.0350
 4666TIP3    H238194   0.415   3.751  14.184 -2.2141  0.8721 -0.1485
 4667TIP3   OH238195   2.701   4.564  14.509  0.5702 -0.1428  0.1716
 4667TIP3    H138196   2.647   4.498  14.553 -0.0242 -0.6869 -1.3186
 4667TIP3    H238197   2.750   4.606  14.580 -0.4844 -0.8559  1.3622
 4668TIP3   OH238198   0.262   3.527  17.033 -0.0193 -0.5241 -0.0512
 4668TIP3    H138199   0.333   3.469  17.061  1.7850  0.3381 -2.4498
 4668TIP3    H238200   0.233   3.491  16.949 -2.2289 -0.6433  0.7065
 4669TIP3   OH238201   5.127   0.300  15.616 -0.3968  0.5408  0.4222
 4669TIP3    H138202   5.062   0.351  15.665 -0.7468  0.2350  0.2786
 4669TIP3    H238203   5.147   0.226  15.673 -0.8578  0.1466  0.0786
 4670TIP3   OH238204   4.293   4.077  14.912 -0.4430 -0.3130  0.2652
 4670TIP3    H138205   4.325   4.013  14.976  2.0250  0.8935  0.3500
 4670TIP3    H238206   4.238   4.026  14.852 -0.9225 -1.9137  1.9583
 4671TIP3   OH238207   0.806   0.722  15.787  0.0031 -0.4298 -0.0748
 4671TIP3    H138208   0.855   0.674  15.854  0.9520 -0.3432 -0.6822
 4671TIP3    H238209   0.754   0.786  15.836  0.2467 -0.7499  0.6108
 4672TIP3   OH238210   3.644   5.455  16.439 -0.9075  0.0858  0.6020
 4672TIP3    H138211   3.610   5.397  16.507 -3.0529  1.4856  0.7994
 4672TIP3    H238212   3.668   5.535  16.485 -0.8613  0.4766 -0.0835
 4673TIP3   OH238213   0.953   1.888  15.161  0.2486 -0.0113  0.1047
 4673TIP3    H138214   0.988   1.895  15.072  0.5875  0.1440  0.2500
 4673TIP3    H238215   0.859   1.902  15.151  0.2609 -0.1770 -0.2543
 4674TIP3   OH238216   5.249   4.726  15.719 -0.0728 -0.3110  0.4659
 4674TIP3    H138217   5.229   4.655  15.659 -1.2122  2.3136 -2.5210
 4674TIP3    H238218   5.197   4.707  15.797 -1.8164 -1.8012 -0.9846
 4675TIP3   OH238219   2.040   3.660  16.702 -0.1102 -0.2663 -0.0255
 4675TIP3    H138220   1.990   3.666  16.621  0.8234  2.3125 -0.4827
 4675TIP3    H238221   2.010   3.734  16.755  1.0263 -0.4744  0.9664
 4676TIP3   OH238222   5.934   6.535  14.589 -0.6381  0.1853  0.2320
 4676TIP3    H138223   5.950   6.441  14.591 -0.1438  0.2674  0.3318
 4676TIP3    H238224   5.971   6.567  14.672  0.3171  0.6365 -0.3511
 4677TIP3   OH238225   4.375   1.974  14.896  0.5144  0.3252  0.0669
 4677TIP3    H138226   4.330   1.890  14.905 -1.3676  1.3892  1.2479
 4677TIP3    H238227   4.464   1.950  14.867 -0.0164 -2.0262  0.1315
 4678TIP3   OH238228   2.936   6.424  15.490  0.3960  0.3132  0.0358
 4678TIP3    H138229   2.892   6.509  15.489 -0.0994  0.0595  0.1178
 4678TIP3    H238230   2.953   6.405  15.398  0.7801  0.6397  0.0378
 4679TIP3   OH238231   5.363   4.534  17.100  0.4015  0.0503  0.3399
 4679TIP3    H138232   5.429   4.512  17.034 -0.5656  1.2611 -1.0962
 4679TIP3    H238233   5.374   4.628  17.115 -2.8958  1.0443 -2.2924
 4680TIP3   OH238234   5.805   0.911  16.278 -0.2375 -0.1110  0.4118
 4680TIP3    H138235   5.847   0.996  16.289 -0.6627  0.2607 -0.6953
 4680TIP3    H238236   5.728   0.929  16.224 -0.9019 -1.0431  1.0050
 4681TIP3   OH238237   6.563   0.944  13.423  0.2136  0.0551  0.4008
 4681TIP3    H138238   6.527   0.982  13.503  0.2565  0.0269  0.4327
 4681TIP3    H238239   6.531   0.854  13.423  0.8516 -0.1691  0.7754
 4682TIP3   OH238240   5.371   4.824  17.101 -0.0923  0.4248 -0.1522
 4682TIP3    H138241   5.409   4.879  17.033  1.0438  1.2884  1.1214
 4682TIP3    H238242   5.374   4.878  17.180  0.2928 -1.1537  0.9685
 4683TIP3   OH238243   0.185   5.242  14.294 -0.4356 -0.3448  0.4267
 4683TIP3    H138244   0.247   5.304  14.255 -0.6974 -0.2712  0.1284
 4683TIP3    H238245   0.235   5.161  14.302  0.0450  0.0040  1.2005
 4684TIP3   OH238246   5.927   0.623  14.424  0.4136 -0.0026 -0.1388
 4684TIP3    H138247   5.949   0.614  14.331 -0.2798  0.3294 -0.3431
 4684TIP3    H238248   5.907   0.534  14.452 -0.8508  0.0773 -0.7034
 4685TIP3   OH238249   0.930   2.829  16.791  0.1868 -0.2842 -0.6547
 4685TIP3    H138250   0.875   2.809  16.715 -0.3539  2.5856 -1.1392
 4685TIP3    H238251   0.910   2.920  16.811  2.6110 -0.0465  1.0486
 4686TIP3   OH238252   1.086   5.815  14.716  0.2641  0.0499 -0.2578
 4686TIP3    H138253   1.148   5.800  14.788 -0.7133  0.4049  0.6855
 4686TIP3    H238254   1.051   5.729  14.696  0.8012 -0.1036 -0.5689
 4687TIP3   OH238255   2.199   3.427  14.559 -0.3848 -0.0580 -0.0246
 4687TIP3    H138256   2.140   3.417  14.484 -3.4852 -0.3817  2.2588
 4687TIP3    H238257   2.197   3.520  14.579 -2.5877 -0.4159  1.7748
 4688TIP3   OH238258   3.833   1.638  12.975  0.2360  0.1131 -0.2238
 4688TIP3    H138259   3.910   1.695  12.974  1.4541 -1.3473  1.9909
 4688TIP3    H238260   3.866   1.552  12.949 -0.9032 -0.2851 -0.4019
 4689TIP3   OH238261   4.278   4.795  16.578  0.2022 -0.2810  0.5338
 4689TIP3    H138262   4.367   4.820  16.603 -0.0622  0.3654  0.8410
 4689TIP3    H238263   4.255   4.856  16.508  1.0380 -2.2400 -1.5526
 4690TIP3   OH238264   1.176   0.283  16.572 -0.1795 -0.1309 -0.3204
 4690TIP3    H138265   1.092   0.283  16.526  0.3894 -1.1860 -1.4085
 4690TIP3    H238266   1.159   0.232  16.652 -0.3853 -1.0372 -0.9260
 4691TIP3   OH238267   3.290   5.413  15.268 -0.2560 -0.7906 -0.2949
 4691TIP3    H138268   3.210   5.440  15.223  0.1861  1.6256  0.2634
 4691TIP3    H238269   3.360   5.432  15.205  0.0907 -0.4609  0.1862
 4692TIP3   OH238270   3.276   3.720  16.793  0.0429  0.2083 -0.1070
 4692TIP3    H138271   3.286   3.695  16.701 -1.0789  0.5815 -0.3476
 4692TIP3    H238272   3.261   3.638  16.839  1.4423 -0.0753 -0.1139
 4693TIP3   OH238273   0.705   0.509  15.171 -0.2136  0.2901 -0.0466
 4693TIP3    H138274   0.622   0.514  15.123  0.2681  0.2041 -0.9149
 4693TIP3    H238275   0.704   0.421  15.210  0.4451 -0.6361 -1.9600
 4694TIP3   OH238276   0.547   3.459  15.422 -0.3146 -0.3745  0.0898
 4694TIP3    H138277   0.568   3.416  15.505 -0.7361 -2.3760 -0.7860
 4694TIP3    H238278   0.486   3.528  15.447 -1.1457 -1.5038  1.3762
 4695TIP3   OH238279   2.268   0.159  15.079  0.0730  0.5810 -0.4430
 4695TIP3    H138280   2.251   0.065  15.089 -0.4240  0.7990  1.0255
 4695TIP3    H238281   2.363   0.166  15.075  0.1449  0.0915  0.3336
 4696TIP3   OH238282   3.177   3.281  16.726 -0.2976 -0.5020  0.2762
 4696TIP3    H138283   3.165   3.187  16.742 -2.2734 -0.2593  0.5217
 4696TIP3    H238284   3.104   3.305  16.670 -1.1103  1.2819  1.9756
 4697TIP3   OH238285   1.452   2.786  14.560  0.5720 -0.3520  0.7538
 4697TIP3    H138286   1.454   2.760  14.468  4.3623  0.7064  0.3758
 4697TIP3    H238287   1.456   2.704  14.609  0.7310 -0.8615 -0.0995
 4698TIP3   OH238288   6.212   5.670  14.305  0.5543  0.1921  0.1288
 4698TIP3    H138289   6.253   5.753  14.278 -0.6114  0.5362 -0.6724
 4698TIP3    H238290   6.168   5.691  14.387  1.4098 -0.0140  0.6573
 4699TIP3   OH238291   1.642   2.204  14.723 -0.0909 -0.4928  0.1667
 4699TIP3    H138292   1.583   2.160  14.662 -0.4159 -0.6955  0.6177
 4699TIP3    H238293   1.653   2.141  14.795 -0.1525 -0.0423  0.5771
 4700TIP3   OH238294   6.731   4.502  14.248  0.3268  0.3028  0.5476
 4700TIP3    H138295   6.776   4.585  14.231 -1.4503  1.0200 -0.9479
 4700TIP3    H238296   6.677   4.520  14.325  0.9204  0.1118  1.0159
 4701TIP3   OH238297   4.944   4.147  16.174  0.2917  0.0659 -0.1094
 4701TIP3    H138298   4.863   4.142  16.123 -0.9453  1.6489  1.5921
 4701TIP3    H238299   5.013   4.124  16.111 -1.5392 -3.2478 -1.1705
 4702TIP3   OH238300   2.942   1.936  14.851  0.0628 -0.0288 -0.1892
 4702TIP3    H138301   2.946   1.955  14.757  1.9535 -1.3374 -0.4202
 4702TIP3    H238302   3.024   1.890  14.870 -0.0076  0.7257  2.2410
 4703TIP3   OH238303   5.056   5.872  15.900  0.0535 -0.0317 -0.6112
 4703TIP3    H138304   5.041   5.863  15.994  0.1320 -0.1449 -0.6088
 4703TIP3    H238305   5.124   5.808  15.880  1.8041  1.6556 -0.3113
 4704TIP3   OH238306   4.496   5.199  13.851 -0.3384 -0.0057  1.1834
 4704TIP3    H138307   4.461   5.288  13.859  1.3783  0.6232  2.0711
 4704TIP3    H238308   4.583   5.203  13.891  0.4253 -1.7077 -0.1742
 4705TIP3   OH238309   5.163   2.699  15.403  0.3925  0.3520 -0.8521
 4705TIP3    H138310   5.156   2.605  15.387  1.9465 -0.2454  1.5185
 4705TIP3    H238311   5.080   2.735  15.372  0.0665 -1.6612 -2.5119
 4706TIP3   OH238312   2.822   5.799  16.690 -0.3934  0.1135  0.2201
 4706TIP3    H138313   2.895   5.833  16.741 -0.7151  0.5829  0.3674
 4706TIP3    H238314   2.863   5.765  16.610 -0.1170  1.3329 -0.1791
 4707TIP3   OH238315   6.375   5.472  14.468  0.0951 -0.0744  0.6153
 4707TIP3    H138316   6.303   5.410  14.459 -0.7151  0.9277 -0.0135
 4707TIP3    H238317   6.341   5.554  14.434  1.5397  0.4313  0.3033
 4708TIP3   OH238318   0.390   3.730  16.363  0.4392 -0.1768 -0.1183
 4708TIP3    H138319   0.296   3.739  16.349  0.7311  0.2547 -2.0843
 4708TIP3    H238320   0.403   3.757  16.454 -1.3571 -0.5868  0.3071
 4709TIP3   OH238321   4.383   0.409  16.911  0.2094 -0.2383  0.7547
 4709TIP3    H138322   4.436   0.422  16.832  1.3362  2.7559  1.8725
 4709TIP3    H238323   4.301   0.453  16.892 -0.6467 -1.9325  0.3033
 4710TIP3   OH238324   4.257   4.705  15.271 -0.3997 -0.4152  0.2321
 4710TIP3    H138325   4.247   4.615  15.300 -0.3315 -0.6618 -0.4928
 4710TIP3    H238326   4.199   4.713  15.196 -0.2381  0.0840  0.1529
 4711TIP3   OH238327   5.763   0.566  13.619  0.1842 -0.0514 -0.5312
 4711TIP3    H138328   5.757   0.607  13.532 -1.2107 -0.6342 -0.7386
 4711TIP3    H238329   5.696   0.611  13.670 -0.9191 -1.5628 -0.5707
 4712TIP3   OH238330   5.860   3.183  14.370  0.2467 -0.1168 -0.3603
 4712TIP3    H138331   5.913   3.261  14.385 -0.0733  0.1591 -0.6543
 4712TIP3    H238332   5.902   3.140  14.295 -0.7975  0.8878 -1.5679
 4713TIP3   OH238333   6.089   2.125  14.883  0.5828  0.5568 -0.2381
 4713TIP3    H138334   6.042   2.107  14.802 -1.2221  0.1510  0.8376
 4713TIP3    H238335   6.022   2.119  14.951  1.6898  2.5404  1.1277
 4714TIP3   OH238336   1.927   2.172  16.038  0.6454  0.3055  0.5156
 4714TIP3    H138337   1.921   2.254  15.988  0.7614  0.8690  1.4124
 4714TIP3    H238338   1.967   2.110  15.976 -1.3048  0.3311 -0.8583
 4715TIP3   OH238339   6.446   1.581  13.661  0.0266 -0.3400 -0.5428
 4715TIP3    H138340   6.515   1.634  13.623 -1.2549  1.0874 -0.9904
 4715TIP3    H238341   6.365   1.627  13.639 -0.9687 -0.9887  1.4547
 4716TIP3   OH238342   6.282   4.467  16.460 -0.3802 -0.6461  0.3918
 4716TIP3    H138343   6.275   4.559  16.484 -2.7942 -0.6721  0.0566
 4716TIP3    H238344   6.191   4.439  16.446  0.2585 -3.1335  0.6917
 4717TIP3   OH238345   1.150   3.415  16.804  0.7166  0.4198  0.8931
 4717TIP3    H138346   1.152   3.350  16.874  1.6935 -1.9414 -1.1840
 4717TIP3    H238347   1.066   3.460  16.816  0.9751  0.3526  3.6901
 4718TIP3   OH238348   3.298   0.126  15.970 -0.3828  0.3053 -0.1351
 4718TIP3    H138349   3.382   0.165  15.943 -0.0289 -0.4498 -0.1630
 4718TIP3    H238350   3.321   0.036  15.995 -1.3353 -0.1953 -1.0105
 4719TIP3   OH238351   0.206   3.426  14.706 -0.8616  0.5392  0.0647
 4719TIP3    H138352   0.277   3.384  14.657 -2.1769 -0.2764 -1.2161
 4719TIP3    H238353   0.126   3.395  14.664 -1.9608  2.6225  0.4686
 4720TIP3   OH238354   6.033   6.234  15.380 -0.1412 -0.4082  0.2064
 4720TIP3    H138355   6.040   6.147  15.341 -0.6225  0.0015 -0.8498
 4720TIP3    H238356   6.085   6.229  15.460  0.9376 -1.2929 -0.5127
 4721TIP3   OH238357   0.785   2.162  14.411  0.3007 -0.2399  0.2198
 4721TIP3    H138358   0.768   2.084  14.357  1.5896  0.4992 -1.3161
 4721TIP3    H238359   0.705   2.214  14.403  0.1354 -0.5590 -0.2657
 4722TIP3   OH238360   0.792   1.937  14.728  0.4677 -0.0998 -0.0559
 4722TIP3    H138361   0.747   1.901  14.651  0.8264 -0.0063 -0.3124
 4722TIP3    H238362   0.858   1.872  14.749  1.9057  0.8967 -1.2328
 4723TIP3   OH238363   5.758   1.708  15.871 -0.1146 -0.0246 -0.3248
 4723TIP3    H138364   5.747   1.803  15.873  1.3983  0.1588  0.5679
 4723TIP3    H238365   5.677   1.673  15.910 -1.2584  0.8020 -1.8290
 4724TIP3   OH238366   1.494   1.586  16.772 -0.6624 -0.2343 -0.2121
 4724TIP3    H138367   1.444   1.569  16.691 -4.0942  0.6096  1.5247
 4724TIP3    H238368   1.430   1.572  16.842  0.8777  3.2292  2.1362
 4725TIP3   OH238369   5.499   1.064  15.672  0.1070 -0.2973  0.1786
 4725TIP3    H138370   5.437   1.116  15.620  1.8066  0.0067 -1.6498
 4725TIP3    H238371   5.524   1.120  15.745  2.3064  1.8175 -2.0208
 4726TIP3   OH238372   0.748   1.329  13.804 -0.2835  0.0145  0.0612
 4726TIP3    H138373   0.691   1.255  13.822 -1.9073  0.7729 -1.6044
 4726TIP3    H238374   0.691   1.406  13.811  0.4497  0.7984 -1.8254
 4727TIP3   OH238375   2.329   2.747  15.774 -0.3187 -0.5912  0.4507
 4727TIP3    H138376   2.399   2.728  15.837 -0.2651  0.4700  0.7358
 4727TIP3    H238377   2.288   2.826  15.808 -0.8541 -0.5010 -0.3899
 4728TIP3   OH238378   1.623   6.227  14.873  0.3891 -0.1027  0.0553
 4728TIP3    H138379   1.714   6.253  14.886 -0.3040  2.3288  0.5247
 4728TIP3    H238380   1.582   6.236  14.959 -0.4436 -0.5433 -0.2783
 4729TIP3   OH238381   2.216   5.007  16.872 -0.3732  0.3185  0.2318
 4729TIP3    H138382   2.141   5.064  16.884 -0.3353 -0.0081  2.4760
 4729TIP3    H238383   2.292   5.064  16.889 -0.2769 -0.0655  1.1286
 4730TIP3   OH238384   3.676   6.369  16.894  0.1762 -0.3442 -0.7679
 4730TIP3    H138385   3.627   6.439  16.851 -1.8206  1.8202  4.2393
 4730TIP3    H238386   3.609   6.313  16.932  1.7046 -1.4899  0.3745
 4731TIP3   OH238387   4.934   6.178  15.904  0.2969  0.8481 -0.2769
 4731TIP3    H138388   4.908   6.115  15.837 -0.3398  0.7592  0.0473
 4731TIP3    H238389   4.982   6.127  15.969 -0.1657  0.7031 -0.0451
 4732TIP3   OH238390   5.874   2.215  15.828 -0.2326  0.6347 -0.0084
 4732TIP3    H138391   5.962   2.195  15.796 -0.9737 -0.8970 -1.1735
 4732TIP3    H238392   5.869   2.311  15.826  0.9047  0.6903 -1.3460
 4733TIP3   OH238393   1.930   5.662  14.651 -0.0925 -0.1275 -0.3812
 4733TIP3    H138394   2.003   5.675  14.590 -0.0075  0.1806 -0.2143
 4733TIP3    H238395   1.860   5.624  14.597  0.4635 -1.2074 -0.3716
 4734TIP3   OH238396   3.682   2.301  14.916  0.2308 -0.4426 -0.5519
 4734TIP3    H138397   3.659   2.290  14.824  0.0438  2.1222 -0.8915
 4734TIP3    H238398   3.616   2.360  14.951  2.1297  1.3250  0.3181
 4735TIP3   OH238399   3.809   2.850  16.330 -0.7787 -0.4243 -0.3788
 4735TIP3    H138400   3.872   2.779  16.323 -0.5014 -0.3190  0.9097
 4735TIP3    H238401   3.784   2.869  16.239  2.3762  0.7381 -1.1244
 4736TIP3   OH238402   1.487   6.692  16.291  0.1418  0.1160  0.8939
 4736TIP3    H138403   1.436   6.630  16.343  0.2793 -0.0727  0.8015
 4736TIP3    H238404   1.424   6.762  16.270 -0.1001 -0.1450  0.7299
 4737TIP3   OH238405   1.948   5.028  15.907  0.7864 -0.0916  0.2838
 4737TIP3    H138406   1.962   5.101  15.847  0.9176  1.7630  2.4287
 4737TIP3    H238407   1.866   5.049  15.951 -0.5710 -2.6295 -0.8367
 4738TIP3   OH238408   0.517   0.684  13.522 -0.3979  0.8147 -0.0420
 4738TIP3    H138409   0.503   0.742  13.597 -1.5489  0.5947 -0.0634
 4738TIP3    H238410   0.508   0.741  13.446  1.4102  1.1691 -0.0405
 4739TIP3   OH238411   1.674   2.352  15.187 -0.1433  0.2946 -0.1611
 4739TIP3    H138412   1.647   2.395  15.106  0.4965  0.1038 -0.4807
 4739TIP3    H238413   1.770   2.357  15.186 -0.1143 -0.0423  0.4040
 4740TIP3   OH238414   3.250   4.076  16.006 -0.2216  0.3775  0.0124
 4740TIP3    H138415   3.216   4.100  16.093  0.7481  0.0518  0.4936
 4740TIP3    H238416   3.177   4.030  15.965 -0.2185 -0.7740  1.2273
 4741TIP3   OH238417   0.241   6.622  15.257 -0.3285 -0.8743 -0.5581
 4741TIP3    H138418   0.190   6.667  15.189  1.0009 -0.3966 -1.2899
 4741TIP3    H238419   0.282   6.693  15.306 -0.7089 -1.2393  0.3026
 4742TIP3   OH238420   1.684   1.501  16.443 -0.3312 -0.2241  0.0183
 4742TIP3    H138421   1.696   1.585  16.488 -0.3934 -0.6853  0.9029
 4742TIP3    H238422   1.768   1.457  16.453 -1.1289 -1.3930  1.9204
 4743TIP3   OH238423   4.166   0.298  16.319 -0.2391  0.3552 -0.0486
 4743TIP3    H138424   4.160   0.337  16.232  1.5712  0.2433 -0.2660
 4743TIP3    H238425   4.132   0.364  16.378 -0.1914  0.9911 -0.7226
 4744TIP3   OH238426   4.369   5.413  15.073 -0.2458 -0.0024  0.1243
 4744TIP3    H138427   4.383   5.464  15.153 -0.3423 -0.2528  0.3001
 4744TIP3    H238428   4.440   5.349  15.073 -1.2549 -1.1627  0.9305
 4745TIP3   OH238429   3.868   4.523  15.681 -0.1648  0.3062  0.0689
 4745TIP3    H138430   3.888   4.509  15.774  0.4234 -2.1670 -0.3624
 4745TIP3    H238431   3.924   4.596  15.655  3.2410 -1.8726  0.6244
 4746TIP3   OH238432   6.672   0.389  15.887 -0.5900 -1.1114  0.4348
 4746TIP3    H138433   6.734   0.455  15.857 -0.1848 -0.9019  1.6847
 4746TIP3    H238434   6.595   0.440  15.913  0.0068 -1.0339  2.1245
 4747TIP3   OH238435   3.253   0.169  15.420  0.1906  0.1591 -0.2285
 4747TIP3    H138436   3.259   0.235  15.351 -1.5399  0.9112  0.2829
 4747TIP3    H238437   3.182   0.112  15.391 -0.9729  0.8433  1.1803
 4748TIP3   OH238438   0.650   0.249  15.244  0.0646  0.4043 -0.1052
 4748TIP3    H138439   0.637   0.254  15.149 -2.0680 -0.1653  0.1070
 4748TIP3    H238440   0.710   0.176  15.256 -1.1606 -0.7800 -0.9478
 4749TIP3   OH238441   4.665   4.522  16.723 -0.4566  0.1850  0.2348
 4749TIP3    H138442   4.635   4.568  16.644  1.2394  0.3082 -0.4034
 4749TIP3    H238443   4.742   4.572  16.751  0.4143 -1.2631  0.5262
 4750TIP3   OH238444   4.778   3.642  14.835 -0.5109  0.0550 -0.4452
 4750TIP3    H138445   4.780   3.588  14.756 -2.3724 -0.6760 -0.0392
 4750TIP3    H238446   4.782   3.579  14.907  0.1270  0.6483  0.0439
 4751TIP3   OH238447   5.541   1.860  16.724 -0.3366  0.0252  0.2853
 4751TIP3    H138448   5.534   1.955  16.739  0.0399 -0.1815  1.9493
 4751TIP3    H238449   5.625   1.849  16.680 -0.4845  0.4822 -0.1193
 4752TIP3   OH238450   3.464   2.953  17.212 -0.5087  0.2223  0.3487
 4752TIP3    H138451   3.482   3.038  17.253 -0.6642  0.0397  0.8107
 4752TIP3    H238452   3.391   2.970  17.152 -1.7333  0.0771  1.7286
 4753TIP3   OH238453   6.629   0.175  16.763  0.4075  0.3639 -0.4698
 4753TIP3    H138454   6.658   0.208  16.677 -1.2761  0.2955 -1.0975
 4753TIP3    H238455   6.561   0.236  16.791  0.1756 -0.2280  0.3131
 4754TIP3   OH238456   4.240   6.608  15.808  0.6936  0.1208 -0.2178
 4754TIP3    H138457   4.150   6.619  15.780  1.4453  0.3233 -2.7809
 4754TIP3    H238458   4.234   6.571  15.896 -1.8617  1.9356  0.4702
 4755TIP3   OH238459   1.023   3.962  14.058  0.0659 -0.8640  0.1553
 4755TIP3    H138460   0.964   3.944  14.131 -0.4067 -1.1810 -0.2914
 4755TIP3    H238461   0.969   4.010  13.995 -0.2038 -2.5398 -0.9557
 4756TIP3   OH238462   5.137   3.123  14.406  0.6640 -0.3600 -0.0183
 4756TIP3    H138463   5.146   3.173  14.325 -0.4457 -0.2480 -0.0873
 4756TIP3    H238464   5.226   3.100  14.430  1.3658  2.6207  0.6211
 4757TIP3   OH238465   5.860   1.230  13.481  0.5625 -0.5151  0.1336
 4757TIP3    H138466   5.766   1.218  13.490  0.1883  2.3424  1.1441
 4757TIP3    H238467   5.876   1.229  13.387 -0.8621  1.0091 -0.1732
 4758TIP3   OH238468   5.528   6.567  15.875  0.2201  0.0507  0.1388
 4758TIP3    H138469   5.516   6.505  15.947 -0.4034  1.0802  0.9668
 4758TIP3    H238470   5.474   6.534  15.804  2.3501 -2.0655 -0.6399
 4759TIP3   OH238471   1.767   2.680  16.573 -0.5442 -0.2608 -0.2220
 4759TIP3    H138472   1.843   2.626  16.595 -1.1661 -0.9253  0.3204
 4759TIP3    H238473   1.801   2.744  16.510  0.5997 -0.1658  0.4670
 4760TIP3   OH238474   2.225   1.472  14.661 -0.2432 -0.0289 -0.4998
 4760TIP3    H138475   2.212   1.565  14.645  0.5059  0.0477 -0.6829
 4760TIP3    H238476   2.148   1.446  14.712  0.5014  1.1491  1.3384
 4761TIP3   OH238477   5.420   4.725  14.846 -0.0887 -0.0930 -0.1033
 4761TIP3    H138478   5.327   4.727  14.823 -0.9657  0.9299  2.9455
 4761TIP3    H238479   5.428   4.648  14.903  0.6990  0.3511  0.3972
 4762TIP3   OH238480   1.901   1.336  15.702  0.3418 -0.1480  0.2036
 4762TIP3    H138481   1.868   1.249  15.679  1.4276 -0.2671 -1.0462
 4762TIP3    H238482   1.830   1.396  15.679 -0.8158 -0.7425  2.0108
 4763TIP3   OH238483   3.864   6.573  14.145 -0.9484  0.6244 -0.0588
 4763TIP3    H138484   3.898   6.660  14.124  0.2171  0.4357  0.9511
 4763TIP3    H238485   3.894   6.518  14.072 -2.1450  1.1485 -0.9752
 4764TIP3   OH238486   1.914   2.827  15.028 -0.3911 -0.0995 -0.7969
 4764TIP3    H138487   1.911   2.752  14.969  0.7753 -0.8822  0.0977
 4764TIP3    H238488   1.853   2.804  15.098  0.9502 -0.8821  0.1776
 4765TIP3   OH238489   5.179   3.794  15.295 -0.1861  0.3486  0.3226
 4765TIP3    H138490   5.246   3.830  15.352  0.5495 -0.3355 -0.0967
 4765TIP3    H238491   5.214   3.803  15.207 -0.3000 -0.6895  0.1485
 4766TIP3   OH238492   3.569   4.706  15.380 -0.2204  0.6886 -0.1825
 4766TIP3    H138493   3.523   4.680  15.460 -1.6958  1.7274 -0.6511
 4766TIP3    H238494   3.635   4.769  15.410 -0.3502  0.6112  0.2837
 4767TIP3   OH238495   4.728   5.444  14.990  0.6196  0.4567 -0.4437
 4767TIP3    H138496   4.716   5.415  15.080  0.7692  1.2864 -0.1580
 4767TIP3    H238497   4.779   5.373  14.949 -1.2657 -0.9674 -0.4823
 4768TIP3   OH238498   0.921   5.091  15.564 -0.3815  0.2370 -0.3245
 4768TIP3    H138499   0.859   5.028  15.601 -0.3988  1.0981  1.1666
 4768TIP3    H238500   1.000   5.081  15.617 -0.2159  1.1315 -0.3951
 4769TIP3   OH238501   5.561   4.695  15.176 -0.3867  0.2080 -0.0501
 4769TIP3    H138502   5.542   4.677  15.268  0.4470 -0.1514  0.0596
 4769TIP3    H238503   5.494   4.645  15.128 -0.1564 -0.4811  0.3364
 4770TIP3   OH238504   3.801   3.164  14.710 -0.0188 -0.0958 -0.1652
 4770TIP3    H138505   3.776   3.255  14.725 -0.8262  0.0767 -2.2471
 4770TIP3    H238506   3.769   3.117  14.788 -2.9765  0.8335 -0.6966
 4771TIP3   OH238507   0.890   2.578  15.642 -0.1680 -0.1938  0.5954
 4771TIP3    H138508   0.976   2.537  15.632 -0.1429 -0.4402  1.6361
 4771TIP3    H238509   0.907   2.655  15.696 -0.5305  0.0312  0.3915
 4772TIP3   OH238510   2.089   0.985  16.634  0.1100 -0.3885 -0.0149
 4772TIP3    H138511   2.089   0.902  16.586  3.3002 -0.2504 -0.5227
 4772TIP3    H238512   2.067   1.050  16.567 -0.7707 -0.6640 -0.0037
 4773TIP3   OH238513   3.895   2.549  16.804  0.2369 -0.0294 -0.0064
 4773TIP3    H138514   3.881   2.641  16.782 -2.4159 -0.4147 -0.3009
 4773TIP3    H238515   3.808   2.516  16.825  0.8213 -2.8845 -1.5602
 4774TIP3   OH238516   0.131   2.171  16.814  0.0530 -0.0186  0.2809
 4774TIP3    H138517   0.192   2.234  16.852 -0.2839  0.1750  0.5092
 4774TIP3    H238518   0.186   2.113  16.761  0.6648 -0.8944  1.8281
 4775TIP3   OH238519   3.596   2.818  16.494 -0.0515 -0.4691 -0.3214
 4775TIP3    H138520   3.674   2.817  16.438 -1.3985 -3.0379 -2.4123
 4775TIP3    H238521   3.614   2.751  16.561 -0.2555 -0.7168 -0.5122
 4776TIP3   OH238522   1.148   1.965  13.874 -0.0908 -0.5205  0.5634
 4776TIP3    H138523   1.200   1.906  13.928  0.8258 -1.1811 -0.9749
 4776TIP3    H238524   1.204   2.040  13.859  0.9246 -1.6612 -1.9144
 4777TIP3   OH238525   2.870   2.234  13.941 -0.4642 -0.2005  0.3025
 4777TIP3    H138526   2.799   2.242  14.005  0.5845 -0.4706  1.5410
 4777TIP3    H238527   2.886   2.140  13.935 -0.0019 -0.1195  0.2590
 4778TIP3   OH238528   2.783   6.572  16.055  0.3582 -0.2584  0.5310
 4778TIP3    H138529   2.798   6.586  15.961  0.1769 -0.4556  0.4712
 4778TIP3    H238530   2.690   6.593  16.067  0.2629 -0.6857  0.5768
 4779TIP3   OH238531   5.682   0.159  15.114 -0.1867  0.1089 -0.2659
 4779TIP3    H138532   5.633   0.103  15.174 -0.8543 -0.8674 -1.6783
 4779TIP3    H238533   5.637   0.244  15.117 -0.1933  0.0796  0.6088
 4780TIP3   OH238534   4.232   1.180  16.521 -0.0307  0.0718  0.4582
 4780TIP3    H138535   4.206   1.225  16.601  0.1666 -0.5358  0.8652
 4780TIP3    H238536   4.292   1.112  16.549  0.2854  0.0465 -0.2420
 4781TIP3   OH238537   0.904   4.841  14.191 -0.0206  0.8141  0.3202
 4781TIP3    H138538   0.959   4.788  14.133  0.3545  1.2183  0.3031
 4781TIP3    H238539   0.906   4.795  14.275 -2.7798 -1.3251 -0.6254
 4782TIP3   OH238540   1.111   0.084  14.405  0.0346  0.0778  0.1368
 4782TIP3    H138541   1.068   0.061  14.324 -0.5944  0.9005  0.2173
 4782TIP3    H238542   1.190   0.131  14.378 -0.2910  0.5534 -0.0123
 4783TIP3   OH238543   6.459   2.451  15.196  0.4495  0.3204 -0.2665
 4783TIP3    H138544   6.441   2.358  15.177  0.0586  0.0416  1.3093
 4783TIP3    H238545   6.488   2.451  15.287  0.3449  1.7711 -0.2226
 4784TIP3   OH238546   1.919   5.805  16.592 -0.0659  0.1683  0.0965
 4784TIP3    H138547   1.934   5.744  16.520 -1.0753 -0.6438  0.5436
 4784TIP3    H238548   1.832   5.841  16.576 -0.2076  0.1520  0.7873
 4785TIP3   OH238549   0.182   1.519  15.363  0.6637 -0.3997  0.2353
 4785TIP3    H138550   0.221   1.532  15.277 -0.2195 -4.8001 -1.0684
 4785TIP3    H238551   0.094   1.555  15.356  0.8861  0.0283 -0.4218
 4786TIP3   OH238552   4.204   3.171  15.581  0.0347 -0.6182 -0.2777
 4786TIP3    H138553   4.141   3.106  15.614  0.5070 -0.7354  0.4285
 4786TIP3    H238554   4.277   3.118  15.547  0.2179 -0.4736 -0.1149
 4787TIP3   OH238555   2.713   6.716  16.957  0.1866  0.2602  0.4163
 4787TIP3    H138556   2.776   6.675  17.017  0.2080  1.1513  1.0228
 4787TIP3    H238557   2.641   6.654  16.952  0.3203  0.0363  1.1351
 4788TIP3   OH238558   1.868   1.439  14.390  0.2535  0.5999 -0.0496
 4788TIP3    H138559   1.907   1.522  14.364 -0.0168  0.5749 -0.5514
 4788TIP3    H238560   1.832   1.455  14.477  0.6493  0.8588  0.0701
 4789TIP3   OH238561   1.240   6.465  16.149 -0.3793  0.4110  0.1321
 4789TIP3    H138562   1.234   6.395  16.085 -0.5376  0.8704 -0.3676
 4789TIP3    H238563   1.150   6.494  16.162 -0.3215  0.4856  0.3749
 4790TIP3   OH238564   3.675   0.039  15.010  0.0851  0.0089  0.2645
 4790TIP3    H138565   3.739   0.066  15.075  1.9154 -1.4394 -0.8374
 4790TIP3    H238566   3.642   0.121  14.973  0.1278  0.8067  1.8972
 4791TIP3   OH238567   2.092   5.226  15.725 -0.3497 -0.4040 -0.6012
 4791TIP3    H138568   2.147   5.264  15.793 -1.7205  0.7464 -0.0929
 4791TIP3    H238569   2.154   5.186  15.664  1.0241  0.5576  0.1072
 4792TIP3   OH238570   2.912   5.293  14.848 -0.5721 -0.3609  0.1534
 4792TIP3    H138571   2.906   5.299  14.753 -0.9603 -0.8227  0.1487
 4792TIP3    H238572   2.879   5.206  14.870 -2.2102  0.3882  0.8606
 4793TIP3   OH238573   1.867   1.670  14.698  0.2655 -0.3734  0.0695
 4793TIP3    H138574   1.827   1.716  14.625  0.4681 -1.1820 -0.5688
 4793TIP3    H238575   1.827   1.583  14.696  0.6674 -0.5727  0.5866
 4794TIP3   OH238576   6.631   4.585  16.483 -0.3582  0.2184  0.6605
 4794TIP3    H138577   6.576   4.657  16.452  0.5185 -0.0252 -1.7439
 4794TIP3    H238578   6.713   4.595  16.434 -0.8961 -3.4991 -1.4136
 4795TIP3   OH238579   5.891   3.403  14.916 -0.5908  0.1463 -0.0479
 4795TIP3    H138580   5.942   3.457  14.855  0.2992  0.9247  1.3323
 4795TIP3    H238581   5.954   3.339  14.949 -0.4825  1.0802  1.6411
 4796TIP3   OH238582   0.244   0.975  13.941  0.0397  0.0923  0.2536
 4796TIP3    H138583   0.230   1.053  13.886 -2.6317 -0.6376 -0.2608
 4796TIP3    H238584   0.315   0.927  13.897  1.2030  1.8125  0.1569
 4797TIP3   OH238585   2.299   1.895  15.045  0.5131 -0.0368  0.4199
 4797TIP3    H138586   2.224   1.854  15.003  1.1651 -0.8131 -0.0283
 4797TIP3    H238587   2.261   1.957  15.108 -0.4990 -0.9539  0.7452
 4798TIP3   OH238588   1.992   2.580  15.275  0.0310  0.1238 -0.2258
 4798TIP3    H138589   2.087   2.580  15.286 -0.0701  0.4249  0.7632
 4798TIP3    H238590   1.965   2.667  15.304 -0.5670 -0.0243 -0.3296
 4799TIP3   OH238591   0.476   1.834  13.996 -0.0378 -0.3074  0.0422
 4799TIP3    H138592   0.429   1.752  13.978 -0.2986  0.0912 -1.1586
 4799TIP3    H238593   0.568   1.811  13.987 -0.1595  0.0837 -2.9870
 4800TIP3   OH238594   6.095   6.296  16.351 -0.2785  0.2830  0.0031
 4800TIP3    H138595   6.009   6.338  16.344 -0.3521  0.1391  0.0256
 4800TIP3    H238596   6.101   6.270  16.443  0.1368  1.0212  0.1863
 4801TIP3   OH238597   2.560   6.325  15.385 -0.0114  0.4122  0.3390
 4801TIP3    H138598   2.490   6.260  15.396  2.3379 -2.4590 -0.1346
 4801TIP3    H238599   2.605   6.297  15.305  2.8340  0.8565  1.6503
 4802TIP3   OH238600   5.491   5.673  16.600  0.4027  0.0036 -0.1953
 4802TIP3    H138601   5.408   5.690  16.554  0.4628  1.0807  0.0531
 4802TIP3    H238602   5.551   5.739  16.565  0.7214  0.2086  0.7045
 4803TIP3   OH238603   2.061   0.570  14.123 -0.0935  0.5835 -0.1593
 4803TIP3    H138604   2.078   0.649  14.072  0.9921  0.6440  0.2636
 4803TIP3    H238605   2.069   0.598  14.214 -0.0016  0.0563 -0.0003
 4804TIP3   OH238606   2.750   4.312  15.863  0.3666 -0.0328  0.1417
 4804TIP3    H138607   2.726   4.404  15.849  0.4621  0.1080  0.8671
 4804TIP3    H238608   2.715   4.266  15.787 -0.1529  0.5243  0.0385
 4805TIP3   OH238609   1.247   1.779  14.454 -0.2122 -0.1539  0.0911
 4805TIP3    H138610   1.253   1.785  14.550  1.5717  1.6278 -0.0750
 4805TIP3    H238611   1.154   1.790  14.436 -0.7320 -1.5279  1.6508
 4806TIP3   OH238612   2.642   4.899  16.184 -0.3136 -0.0907  0.4413
 4806TIP3    H138613   2.618   4.863  16.270  0.0133  1.2071  1.0997
 4806TIP3    H238614   2.727   4.860  16.165 -0.5487 -0.6616  0.5332
 4807TIP3   OH238615   1.109   0.329  13.796 -0.0484  0.2859 -0.4654
 4807TIP3    H138616   1.112   0.391  13.869  1.8165 -1.9788  1.5671
 4807TIP3    H238617   1.159   0.372  13.726  1.8154  0.8443  1.1205
 4808TIP3   OH238618   1.266   4.576  16.945  0.4054 -0.3683  0.2300
 4808TIP3    H138619   1.276   4.481  16.948 -1.8917 -0.6803 -0.2083
 4808TIP3    H238620   1.274   4.603  17.036 -1.6929 -1.3959  0.8037
 4809TIP3   OH238621   0.181   0.838  13.547 -0.0320 -0.2218 -0.2213
 4809TIP3    H138622   0.269   0.828  13.584 -0.5736 -0.9210  0.9146
 4809TIP3    H238623   0.178   0.929  13.517  1.4778 -0.5071 -1.3833
 4810TIP3   OH238624   3.885   1.545  13.720 -0.1893  0.4903 -0.2497
 4810TIP3    H138625   3.952   1.611  13.705 -0.3128  0.4197 -1.1787
 4810TIP3    H238626   3.807   1.580  13.677 -0.5116  0.1697  0.0670
 4811TIP3   OH238627   1.188   1.490  16.045  0.5296 -0.3503 -0.2191
 4811TIP3    H138628   1.214   1.398  16.041 -0.6677 -0.6869 -0.8704
 4811TIP3    H238629   1.130   1.502  15.970  0.9183  1.0318 -0.3289
 4812TIP3   OH238630   3.274   2.355  16.883  0.5285 -0.5433 -0.2105
 4812TIP3    H138631   3.218   2.397  16.947  0.2102 -0.6514 -0.4147
 4812TIP3    H238632   3.224   2.278  16.854  0.0821  0.2077 -1.5533
 4813TIP3   OH238633   6.645   4.716  15.838 -0.3610 -0.5026 -0.4349
 4813TIP3    H138634   6.682   4.796  15.874  2.0422 -1.3321 -0.8056
 4813TIP3    H238635   6.656   4.651  15.908  2.5096 -1.6476 -1.7879
 4814TIP3   OH238636   4.000   5.875  16.760 -0.4251  0.6052  0.7097
 4814TIP3    H138637   3.930   5.814  16.738  0.0096  0.1166  0.6651
 4814TIP3    H238638   3.957   5.961  16.762 -1.2161  0.2127  1.5807
 4815TIP3   OH238639   2.629   1.841  13.416 -0.0576  0.4270 -0.2300
 4815TIP3    H138640   2.575   1.831  13.494  0.5576  0.5402  0.2146
 4815TIP3    H238641   2.649   1.751  13.389  1.0752  0.3907  0.6905
 4816TIP3   OH238642   5.535   4.665  16.151 -0.7743  0.3966 -0.2059
 4816TIP3    H138643   5.611   4.687  16.098  0.9369  1.6611  2.5808
 4816TIP3    H238644   5.501   4.749  16.181 -1.6066 -0.2572  0.7709
 4817TIP3   OH238645   5.426   5.781  14.927 -0.7750  0.1282  0.0227
 4817TIP3    H138646   5.370   5.775  14.850  0.2114 -1.3142 -0.6269
 4817TIP3    H238647   5.418   5.695  14.969  0.3768  0.1487  0.3146
 4818TIP3   OH238648   4.721   1.795  15.751  0.1817  0.2344 -0.1334
 4818TIP3    H138649   4.720   1.745  15.669  0.6527 -1.8837  1.0867
 4818TIP3    H238650   4.642   1.766  15.798 -0.1027  1.4527  0.1828
 4819TIP3   OH238651   4.030   1.872  17.072 -0.2578  0.3515 -0.1380
 4819TIP3    H138652   4.019   1.952  17.021 -0.6382  0.2772 -0.1803
 4819TIP3    H238653   3.943   1.856  17.109 -0.6845 -1.1101 -1.6961
 4820TIP3   OH238654   1.697   0.601  14.146 -0.2994  0.9166  0.1245
 4820TIP3    H138655   1.752   0.557  14.211  0.0925 -0.3696 -1.0137
 4820TIP3    H238656   1.658   0.675  14.193 -0.8980 -0.5652  2.1210
 4821TIP3   OH238657   2.079   6.739  16.789  0.3204  0.6139 -0.0457
 4821TIP3    H138658   2.135   6.769  16.717 -0.1386  2.3610  0.2617
 4821TIP3    H238659   2.042   6.657  16.759  3.2710 -0.8135 -0.1366
 4822TIP3   OH238660   2.630   5.087  17.063  0.3779  0.2277  0.5369
 4822TIP3    H138661   2.696   5.155  17.051  0.5776  0.2262  1.5268
 4822TIP3    H238662   2.549   5.126  17.030  1.2771 -0.6910 -3.1606
 4823TIP3   OH238663   5.678   2.102  15.023 -0.2069  0.4490  0.0946
 4823TIP3    H138664   5.604   2.047  14.997 -1.2651  1.3544  1.0565
 4823TIP3    H238665   5.745   2.040  15.052 -0.4220 -0.4080 -1.1368
 4824TIP3   OH238666   3.633   3.208  17.228  0.2770  0.1960  0.1561
 4824TIP3    H138667   3.551   3.241  17.264  1.2299  0.6134  2.0678
 4824TIP3    H238668   3.649   3.262  17.151 -1.1643  0.1750 -0.1909
 4825TIP3   OH238669   4.825   1.213  14.455 -0.0711 -0.0837  0.1997
 4825TIP3    H138670   4.898   1.210  14.392  0.4104  0.0564  0.7404
 4825TIP3    H238671   4.747   1.223  14.401  0.3304 -0.0543 -0.3826
 4826TIP3   OH238672   1.316   2.889  16.457  0.3769  0.3891  0.4940
 4826TIP3    H138673   1.368   2.810  16.442  0.1569  0.3769 -0.2413
 4826TIP3    H238674   1.225   2.860  16.444  0.3418  0.9170 -0.4836
 4827TIP3   OH238675   3.204   5.315  15.855  0.0998 -0.3458 -0.2974
 4827TIP3    H138676   3.162   5.383  15.908 -0.3493  1.5338 -2.8871
 4827TIP3    H238677   3.297   5.339  15.856 -0.1888  1.0537 -2.0800
 4828TIP3   OH238678   2.644   6.749  16.454  0.1686 -0.0196  0.3587
 4828TIP3    H138679   2.599   6.665  16.463  1.2533 -0.6872 -0.2335
 4828TIP3    H238680   2.634   6.772  16.362  1.0767 -0.2020  0.2128
 4829TIP3   OH238681   2.157   0.663  15.835  0.5348  0.2772 -0.3546
 4829TIP3    H138682   2.190   0.611  15.761  1.8981  0.3274  0.1828
 4829TIP3    H238683   2.205   0.629  15.911  0.2400  1.2195  0.2607
 4830TIP3   OH238684   2.579   2.223  13.969 -0.1740  0.5195  0.2189
 4830TIP3    H138685   2.521   2.296  13.994  0.5862  1.2472 -0.0834
 4830TIP3    H238686   2.563   2.212  13.875 -0.8526 -0.2381  0.4072
 4831TIP3   OH238687   0.840   4.505  15.857  0.1383  0.4151 -0.0422
 4831TIP3    H138688   0.824   4.522  15.949  0.5931  1.4243 -0.1403
 4831TIP3    H238689   0.911   4.441  15.857 -0.6062 -0.4305  0.3112
 4832TIP3   OH238690   5.208   6.531  14.917  0.1813  0.0775 -0.6446
 4832TIP3    H138691   5.268   6.604  14.901 -1.1856  1.0387 -1.5589
 4832TIP3    H238692   5.140   6.568  14.974  0.9112 -1.2643  1.2061
 4833TIP3   OH238693   1.631   2.668  17.046  0.2771  0.2872 -0.3093
 4833TIP3    H138694   1.546   2.703  17.072  0.3717  0.3989 -0.1537
 4833TIP3    H238695   1.683   2.744  17.022  1.0870  0.4438  1.7632
 4834TIP3   OH238696   0.265   0.179  16.356 -0.1743  0.0397  0.3171
 4834TIP3    H138697   0.300   0.090  16.354 -0.0658  0.0862 -0.1960
 4834TIP3    H238698   0.181   0.171  16.401  1.0566  0.1354  2.7808
 4835TIP3   OH238699   5.792   2.318  15.445  0.7265 -0.0375  0.1168
 4835TIP3    H138700   5.811   2.235  15.401  1.5099  0.1566  0.0761
 4835TIP3    H238701   5.796   2.383  15.375  0.9874  0.1454  0.3011
 4836TIP3   OH238702   0.416   3.272  14.617  0.4111 -0.2907  0.3049
 4836TIP3    H138703   0.509   3.290  14.603  0.4706 -1.6503 -1.2723
 4836TIP3    H238704   0.407   3.269  14.712  1.1562  3.7387  0.6964
 4837TIP3   OH238705   4.905   5.264  16.990  0.2059  0.1602  0.1866
 4837TIP3    H138706   4.985   5.273  17.042  0.3097 -1.2306  0.3027
 4837TIP3    H238707   4.841   5.318  17.035  0.6462  0.0059  1.0228
 4838TIP3   OH238708   6.378   0.180  16.359 -0.3155  0.4310  0.0346
 4838TIP3    H138709   6.390   0.183  16.264 -0.1223 -1.2838 -0.0210
 4838TIP3    H238710   6.339   0.095  16.375  2.9601 -0.8860  1.8406
 4839TIP3   OH238711   1.435   6.543  17.030 -0.7599 -0.0735  0.1806
 4839TIP3    H138712   1.350   6.555  17.072 -0.8500  0.3087 -0.0942
 4839TIP3    H238713   1.436   6.609  16.960 -0.6563 -0.7524 -0.4673
 4840TIP3   OH238714   2.775   6.212  15.516  0.0741  0.9815 -0.5370
 4840TIP3    H138715   2.694   6.232  15.470  1.5309  0.5801 -3.4886
 4840TIP3    H238716   2.828   6.291  15.507  0.6521  0.6470 -0.1384
 4841TIP3   OH238717   2.900   0.419  13.912 -0.3480  0.0411 -0.2615
 4841TIP3    H138718   2.827   0.481  13.916 -0.7602 -0.2865 -2.1152
 4841TIP3    H238719   2.974   0.470  13.878 -0.2052 -0.0839 -0.1432
 4842TIP3   OH238720   6.368   5.831  15.823  0.8609  0.3750  0.2480
 4842TIP3    H138721   6.425   5.776  15.770 -0.3481 -1.0087  0.3122
 4842TIP3    H238722   6.288   5.840  15.771 -0.3804 -1.0552  1.7769
 4843TIP3   OH238723   4.264   2.503  17.180 -0.0353 -0.2642  0.3283
 4843TIP3    H138724   4.198   2.559  17.221 -0.0959 -0.8976  1.1154
 4843TIP3    H238725   4.331   2.563  17.148 -0.5552  0.3211  0.3247
 4844TIP3   OH238726   3.676   4.180  15.307  0.4795  0.3163  0.2015
 4844TIP3    H138727   3.745   4.186  15.241  0.0989  1.4154 -0.1206
 4844TIP3    H238728   3.694   4.253  15.367 -0.3172  0.5373  0.1872
 4845TIP3   OH238729   4.589   3.859  17.037 -0.3566  0.9776  0.0958
 4845TIP3    H138730   4.664   3.799  17.030 -1.6094 -0.8667  1.5815
 4845TIP3    H238731   4.617   3.937  16.988  2.6513  0.5175  0.8309
 4846TIP3   OH238732   1.245   4.436  15.311  0.0251 -0.1808 -0.4399
 4846TIP3    H138733   1.157   4.445  15.273  0.0163  1.8621 -0.0679
 4846TIP3    H238734   1.262   4.522  15.351  2.7651 -0.0465 -1.7224
 4847TIP3   OH238735   0.036   3.674  16.927 -0.5055 -0.5342 -0.2886
 4847TIP3    H138736   0.095   3.613  16.971 -0.1458 -0.5743 -0.8231
 4847TIP3    H238737   0.088   3.711  16.856 -0.5138  0.8573  0.3938
 4848TIP3   OH238738   4.849   6.725  16.496  0.0720 -0.6093 -0.3521
 4848TIP3    H138739   4.815   6.811  16.519  0.0207 -0.6712 -0.1934
 4848TIP3    H238740   4.791   6.694  16.426  0.4562 -0.2625 -0.8296
 4849TIP3   OH238741   4.769   3.665  16.935 -0.6566  0.4546 -0.2274
 4849TIP3    H138742   4.834   3.686  16.868 -1.3458  1.1642 -0.6922
 4849TIP3    H238743   4.725   3.586  16.902 -1.1899  0.9658 -0.7735
 4850TIP3   OH238744   0.371   4.235  16.969 -0.3661 -0.0915  0.2829
 4850TIP3    H138745   0.321   4.289  16.908  1.2007 -1.2457 -2.1994
 4850TIP3    H238746   0.437   4.294  17.005 -0.5432  0.3387 -0.0831
 4851TIP3   OH238747   1.040   5.378  16.277  0.4819 -0.2502 -0.0400
 4851TIP3    H138748   1.052   5.294  16.320 -0.5366 -1.2767 -1.6604
 4851TIP3    H238749   0.950   5.376  16.245  1.6161 -0.3309 -3.6528
 4852TIP3   OH238750   3.693   2.097  15.937  0.8690 -0.5185 -0.3537
 4852TIP3    H138751   3.757   2.167  15.948  1.4205 -0.7507 -1.8141
 4852TIP3    H238752   3.743   2.017  15.954  0.4426 -0.6250  0.4894
 4853TIP3   OH238753   3.612   1.140  13.801 -0.0505 -0.1159 -0.1781
 4853TIP3    H138754   3.517   1.152  13.791 -0.0463 -0.8658 -1.3095
 4853TIP3    H238755   3.625   1.046  13.797  0.7212 -0.0390  0.3029
 4854TIP3   OH238756   5.612   5.684  16.938 -0.5840  0.4148  0.4219
 4854TIP3    H138757   5.643   5.685  16.847  0.9992 -0.0978  0.9262
 4854TIP3    H238758   5.564   5.766  16.947 -0.4993  0.6265 -0.7867
 4855TIP3   OH238759   4.338   4.896  15.031 -0.1991  0.7516 -0.2086
 4855TIP3    H138760   4.292   4.842  14.967  0.1159 -1.8446  1.6332
 4855TIP3    H238761   4.424   4.855  15.040  0.0129  1.4786  1.3703
 4856TIP3   OH238762   6.341   2.039  14.775  0.3142  0.1676  0.5188
 4856TIP3    H138763   6.268   2.086  14.817  0.6716  2.4619 -1.2017
 4856TIP3    H238764   6.299   1.979  14.713 -0.1230 -0.2060  1.1660
 4857TIP3   OH238765   4.602   0.301  15.790  0.0155  0.1310 -0.0653
 4857TIP3    H138766   4.566   0.309  15.702  1.0606  0.6174 -0.4612
 4857TIP3    H238767   4.561   0.372  15.839  0.9716  1.1403 -0.7028
 4858TIP3   OH238768   4.640   6.664  15.080  0.5390 -0.3191 -0.9967
 4858TIP3    H138769   4.687   6.747  15.071  1.5071 -0.8466 -0.9915
 4858TIP3    H238770   4.553   6.681  15.044  0.0010  1.2897  0.8835
 4859TIP3   OH238771   1.925   2.783  14.511 -0.4577  0.5474 -0.1631
 4859TIP3    H138772   2.018   2.772  14.492 -0.0293  1.1541  1.3878
 4859TIP3    H238773   1.923   2.830  14.595 -2.1642  0.0228  0.1343
 4860TIP3   OH238774   2.349   0.543  16.038  0.2921 -0.0181  0.6787
 4860TIP3    H138775   2.441   0.554  16.064  0.7004 -0.0113 -0.6438
 4860TIP3    H238776   2.344   0.453  16.007 -0.5399 -0.4927  2.1274
 4861TIP3   OH238777   3.781   4.901  14.384 -0.1263 -0.0453  0.3769
 4861TIP3    H138778   3.849   4.879  14.448  0.3788  0.3711 -0.0108
 4861TIP3    H238779   3.782   4.829  14.322  0.1493  0.0825  0.2282
 4862TIP3   OH238780   2.959   1.355  16.536 -0.0426  0.3576 -0.2781
 4862TIP3    H138781   2.942   1.448  16.547 -0.9267  0.1678 -0.0026
 4862TIP3    H238782   3.042   1.341  16.583 -0.8995  0.6390  1.4143
 4863TIP3   OH238783   0.543   1.167  13.886  0.1539 -0.1276  0.3569
 4863TIP3    H138784   0.457   1.202  13.864 -0.7700 -0.7147  2.6737
 4863TIP3    H238785   0.549   1.085  13.838  1.0014  1.5312 -2.6106
 4864TIP3   OH238786   0.780   1.733  17.051  0.3016 -0.1886  0.0047
 4864TIP3    H138787   0.742   1.819  17.037  2.1232  0.7165  0.2300
 4864TIP3    H238788   0.798   1.730  17.145  2.7147  0.3566 -0.3641
 4865TIP3   OH238789   0.637   5.246  15.674 -0.1052 -0.6436  0.6669
 4865TIP3    H138790   0.687   5.170  15.647 -0.4555 -1.5100  2.3557
 4865TIP3    H238791   0.593   5.275  15.594  2.1976 -0.4832 -0.6278
 4866TIP3   OH238792   4.543   6.665  14.348 -0.0711  0.3094 -0.0538
 4866TIP3    H138793   4.617   6.662  14.286 -0.3694 -0.3532 -0.3793
 4866TIP3    H238794   4.512   6.756  14.342 -0.4556  0.1226 -1.3140
 4867TIP3   OH238795   6.350   6.027  15.376 -0.1515  0.2667  0.2678
 4867TIP3    H138796   6.349   5.932  15.370  1.0402  0.3018 -1.1859
 4867TIP3    H238797   6.304   6.057  15.297 -0.2176  0.8905  0.5340
 4868TIP3   OH238798   0.992   4.679  13.915  0.0788 -0.5238  0.4968
 4868TIP3    H138799   1.087   4.685  13.912  0.0540 -0.4230 -0.7562
 4868TIP3    H238800   0.963   4.731  13.840 -0.8664 -2.5178 -0.5845
 4869TIP3   OH238801   2.948   5.769  14.324 -0.2956  0.3554  0.0273
 4869TIP3    H138802   3.016   5.809  14.269 -0.7181  0.8739 -0.1266
 4869TIP3    H238803   2.996   5.711  14.383  0.2246  0.2477 -0.4850
 4870TIP3   OH238804   0.800   2.885  14.614  0.0078 -0.5673  0.3649
 4870TIP3    H138805   0.836   2.915  14.697 -1.3300  0.0511  0.7610
 4870TIP3    H238806   0.815   2.791  14.613 -0.3305 -0.6464  1.5140
 4871TIP3   OH238807   1.971   6.169  16.013 -0.2906 -0.6279 -0.1619
 4871TIP3    H138808   1.958   6.263  16.024 -0.5565 -0.6181 -0.5335
 4871TIP3    H238809   1.896   6.140  15.960 -0.0748 -1.0026 -0.2670
 4872TIP3   OH238810   5.089   6.466  14.220 -0.3604  0.7260  0.0803
 4872TIP3    H138811   5.069   6.558  14.240  0.2241  0.7670  0.5296
 4872TIP3    H238812   5.163   6.445  14.278  1.2639  0.7659 -1.8859
 4873TIP3   OH238813   2.076   5.613  14.414 -0.2813  0.1334 -0.0344
 4873TIP3    H138814   2.155   5.573  14.378 -0.4469  0.4429 -0.7552
 4873TIP3    H238815   2.083   5.706  14.391 -0.4116  0.3399  0.7015
 4874TIP3   OH238816   2.929   5.082  16.598 -0.0345  0.1788  0.1331
 4874TIP3    H138817   2.911   5.001  16.552 -0.5991  0.5952 -0.4016
 4874TIP3    H238818   2.855   5.093  16.658  0.1579  0.1789  0.3713
 4875TIP3   OH238819   3.687   2.595  15.689  0.3324  0.0362  0.2273
 4875TIP3    H138820   3.620   2.626  15.628  0.4941 -1.0298 -0.5215
 4875TIP3    H238821   3.688   2.500  15.677  0.8068 -0.1297  1.4508
 4876TIP3   OH238822   0.184   0.709  16.224  0.1786  0.1359 -0.2650
 4876TIP3    H138823   0.129   0.637  16.257  1.9556 -0.8046  0.7969
 4876TIP3    H238824   0.234   0.738  16.301  1.1126  1.0154 -1.1667
 4877TIP3   OH238825   5.446   3.115  16.255 -0.0005 -0.0171  0.9716
 4877TIP3    H138826   5.529   3.123  16.303  1.4836  0.1643 -1.4477
 4877TIP3    H238827   5.440   3.023  16.233  0.3642  0.2043 -0.1280
 4878TIP3   OH238828   3.970   0.156  15.387  0.6532  0.4933  0.6987
 4878TIP3    H138829   3.924   0.236  15.415  0.1529  0.0897  1.0508
 4878TIP3    H238830   4.063   0.181  15.385  0.3562  1.6647 -1.1674
 4879TIP3   OH238831   4.428   6.287  16.979 -0.3559 -0.6684  0.3240
 4879TIP3    H138832   4.496   6.223  16.959 -0.0315 -1.4346  3.4036
 4879TIP3    H238833   4.346   6.239  16.964 -0.1738 -0.8191 -0.2221
 4880TIP3   OH238834   0.292   6.369  15.770  0.1714  0.3617 -0.4604
 4880TIP3    H138835   0.295   6.429  15.845 -1.4679 -1.2577  0.9730
 4880TIP3    H238836   0.211   6.393  15.723  0.0756 -0.0223 -0.4948
 4881TIP3   OH238837   1.616   6.291  15.998 -0.1666  0.0695  0.3437
 4881TIP3    H138838   1.537   6.343  15.989 -0.5844 -0.7088 -0.6691
 4881TIP3    H238839   1.663   6.330  16.072  0.2347  2.7777 -1.2176
 4882TIP3   OH238840   0.230   5.300  14.820  0.3418 -0.4633 -0.0269
 4882TIP3    H138841   0.233   5.386  14.777 -1.0055 -0.1957  0.3750
 4882TIP3    H238842   0.185   5.244  14.756  0.2327 -0.5914  0.1636
 4883TIP3   OH238843   4.431   6.497  15.555  0.0961  0.3819 -0.1033
 4883TIP3    H138844   4.439   6.425  15.492  2.3159  0.6454 -0.2198
 4883TIP3    H238845   4.342   6.530  15.543 -0.4359 -1.3079 -1.1738
 4884TIP3   OH238846   1.790   4.449  15.924 -0.0995  0.4555  0.4398
 4884TIP3    H138847   1.795   4.544  15.940 -0.5894  0.2968  1.6106
 4884TIP3    H238848   1.712   4.421  15.972 -1.0391 -0.2558 -1.4143
 4885TIP3   OH238849   5.106   2.054  14.054  0.6485  0.0273  0.0355
 4885TIP3    H138850   5.144   1.980  14.006  1.1509  0.5577 -0.4070
 4885TIP3    H238851   5.149   2.131  14.017 -1.2588  0.7162 -0.8732
 4886TIP3   OH238852   4.639   4.340  14.929 -0.3179  0.0264  0.1781
 4886TIP3    H138853   4.587   4.419  14.914  1.3826  1.7303  2.5239
 4886TIP3    H238854   4.717   4.352  14.875  0.6265  0.7271  1.6471
 4887TIP3   OH238855   3.455   4.543  14.313  0.1948 -0.0607 -0.9499
 4887TIP3    H138856   3.467   4.621  14.258  1.6501 -0.9561 -1.9712
 4887TIP3    H238857   3.371   4.507  14.286 -0.2250  0.8352 -0.8712
 4888TIP3   OH238858   0.646   0.396  15.710  0.2399 -0.4033  0.5337
 4888TIP3    H138859   0.611   0.473  15.754  0.8834  0.3076 -0.1839
 4888TIP3    H238860   0.661   0.333  15.781 -1.7286 -0.4594  0.9680
 4889TIP3   OH238861   0.178   1.961  16.631 -0.0138 -0.0217  0.3259
 4889TIP3    H138862   0.221   1.888  16.586  0.0665  1.5736 -2.4608
 4889TIP3    H238863   0.122   1.920  16.697 -1.5490 -2.7847 -2.4336
 4890TIP3   OH238864   1.300   3.554  16.613  0.6522 -0.4017  0.2534
 4890TIP3    H138865   1.266   3.486  16.671  1.4111 -2.6023 -1.6866
 4890TIP3    H238866   1.250   3.542  16.531  1.1266  1.1055 -0.2926
 4891TIP3   OH238867   0.059   1.366  14.134  0.1624 -0.7075  0.0672
 4891TIP3    H138868   0.015   1.410  14.061  0.5626 -0.8813 -0.2849
 4891TIP3    H238869   0.077   1.435  14.197 -0.2319 -0.5634  0.0264
 4892TIP3   OH238870   5.825   5.610  16.168 -0.1109 -0.3216 -0.1948
 4892TIP3    H138871   5.801   5.678  16.105 -1.9933 -1.0150 -0.2875
 4892TIP3    H238872   5.887   5.554  16.121  1.7457  1.4286 -0.0157
 4893TIP3   OH238873   6.668   1.607  16.270  0.3350  0.4404  0.4716
 4893TIP3    H138874   6.752   1.627  16.228 -0.6172  0.5554 -1.4842
 4893TIP3    H238875   6.615   1.686  16.258 -1.9423 -1.3619 -3.4255
 4894TIP3   OH238876   6.385   2.576  16.867  0.0018  0.1953 -0.3153
 4894TIP3    H138877   6.391   2.533  16.782 -1.8657  2.8453 -1.9126
 4894TIP3    H238878   6.410   2.508  16.930  0.5905 -2.1139 -2.8741
 4895TIP3   OH238879   1.964   5.020  16.483 -0.3221  0.0393  0.8451
 4895TIP3    H138880   2.053   4.994  16.508  0.3628 -1.5839 -2.6758
 4895TIP3    H238881   1.974   5.109  16.450  0.6029 -0.8584 -1.5788
 4896TIP3   OH238882   5.934   1.675  14.909 -0.3042 -0.1707  0.0487
 4896TIP3    H138883   5.996   1.638  14.973 -0.7956 -0.7429  0.2005
 4896TIP3    H238884   5.896   1.598  14.866 -1.6704  0.1214  0.6812
 4897TIP3   OH238885   5.121   3.724  14.116 -0.1485 -0.1895  0.2708
 4897TIP3    H138886   5.175   3.664  14.064 -0.0490 -0.0941  0.2614
 4897TIP3    H238887   5.100   3.795  14.056  0.0587 -0.0246  0.3928
 4898TIP3   OH238888   5.927   3.984  16.523 -0.8621  0.6364  0.2999
 4898TIP3    H138889   5.871   3.926  16.574 -0.8377 -0.3119 -0.7185
 4898TIP3    H238890   5.879   3.999  16.442  1.2121 -2.0613 -1.6156
 4899TIP3   OH238891   6.021   4.360  16.410  0.3122  0.1414 -0.3678
 4899TIP3    H138892   5.969   4.405  16.477  1.3454  0.6315  0.1321
 4899TIP3    H238893   5.963   4.355  16.334 -0.0895  1.7195 -0.2066
 4900TIP3   OH238894   5.527   1.469  15.702  0.0542 -0.2650 -0.0066
 4900TIP3    H138895   5.457   1.502  15.758 -0.1074 -0.8188  0.1187
 4900TIP3    H238896   5.538   1.378  15.727  0.0362 -0.4989 -0.8152
 4901TIP3   OH238897   4.279   0.857  14.572 -0.4422  0.0889  0.3003
 4901TIP3    H138898   4.245   0.834  14.659 -0.3779 -1.5316 -0.0635
 4901TIP3    H238899   4.206   0.900  14.529 -1.4280 -1.5210  0.2468
 4902TIP3   OH238900   5.432   4.065  15.089 -0.0207 -0.3567  0.1553
 4902TIP3    H138901   5.418   4.083  15.182 -1.8783 -0.5029 -0.0447
 4902TIP3    H238902   5.345   4.042  15.057  1.1099 -3.6040 -0.9463
 4903TIP3   OH238903   0.572   3.520  16.488 -0.4746 -0.1557 -0.3416
 4903TIP3    H138904   0.565   3.449  16.424  0.6877  0.3232 -1.0371
 4903TIP3    H238905   0.503   3.582  16.464 -0.7335 -0.4896 -0.4614
 4904TIP3   OH238906   2.314   1.522  15.715 -0.3196 -0.5270  0.3303
 4904TIP3    H138907   2.397   1.483  15.745  0.9976  0.2168 -2.0969
 4904TIP3    H238908   2.284   1.574  15.789  3.9345  3.1038 -0.0614
 4905TIP3   OH238909   5.904   0.205  14.940 -0.2810 -0.3741  0.0142
 4905TIP3    H138910   5.824   0.191  14.991 -0.0680  3.7123  1.8925
 4905TIP3    H238911   5.886   0.284  14.888  1.6328 -0.9655 -1.6629
 4906TIP3   OH238912   1.096   6.592  15.129  0.1296  0.0547 -0.0749
 4906TIP3    H138913   1.039   6.638  15.067 -0.0198  0.0170  0.0368
 4906TIP3    H238914   1.043   6.520  15.162  0.6372 -0.7256 -0.9000
 4907TIP3   OH238915   1.301   2.498  14.621  0.0526 -0.3562 -0.2803
 4907TIP3    H138916   1.352   2.429  14.580 -0.3923 -1.4295  0.9106
 4907TIP3    H238917   1.223   2.454  14.655  0.2831  0.4903  1.4907
 4908TIP3   OH238918   2.536   0.046  14.759  0.1503 -0.1817 -0.1041
 4908TIP3    H138919   2.556   0.028  14.851  0.5087 -0.3429 -0.2112
 4908TIP3    H238920   2.440   0.044  14.755  0.1512 -1.1622  0.0811
 4909TIP3   OH238921   3.260   5.513  14.420  0.1660 -0.2146  0.0695
 4909TIP3    H138922   3.287   5.472  14.338  1.1514  2.1743 -0.9023
 4909TIP3    H238923   3.332   5.494  14.481 -0.0586 -1.0907  0.0656
 4910TIP3   OH238924   6.454   3.069  16.001  0.1031  0.0693  0.4042
 4910TIP3    H138925   6.482   3.059  16.092 -0.9692 -0.0132  0.7382
 4910TIP3    H238926   6.478   2.986  15.959  2.2939  0.7715  0.1079
 4911TIP3   OH238927   2.186   6.012  14.650 -0.3619  0.3446  0.1601
 4911TIP3    H138928   2.156   6.099  14.622 -0.6666  0.9028  2.0429
 4911TIP3    H238929   2.124   5.987  14.718  1.0843 -0.2940  1.2950
 4912TIP3   OH238930   4.027   3.307  16.637  0.0465 -0.3652  0.3836
 4912TIP3    H138931   3.968   3.232  16.644 -0.2789  0.0256  2.5245
 4912TIP3    H238932   3.982   3.378  16.682  0.4524  1.0875 -1.3926
 4913TIP3   OH238933   1.840   4.743  16.794  0.3709  0.5114  0.4357
 4913TIP3    H138934   1.901   4.789  16.851  1.5692  0.1416 -0.4891
 4913TIP3    H238935   1.869   4.764  16.705 -1.4956  1.1381 -0.0628
 4914TIP3   OH238936   5.835   0.924  15.265  0.0144 -0.3444  0.3727
 4914TIP3    H138937   5.779   0.996  15.296  2.0549  1.0090  1.1669
 4914TIP3    H238938   5.775   0.851  15.253 -1.9829  1.1290  0.7357
 4915TIP3   OH238939   0.901   5.322  14.102 -0.5571 -0.4636 -0.9483
 4915TIP3    H138940   0.955   5.400  14.120 -1.2650 -0.5800  2.1463
 4915TIP3    H238941   0.915   5.305  14.009  4.1222 -0.0078 -0.5640
 4916TIP3   OH238942   2.819   4.127  15.420  0.3218 -0.3727  0.1580
 4916TIP3    H138943   2.825   4.033  15.405 -0.1609 -0.4276  0.3292
 4916TIP3    H238944   2.910   4.157  15.417  0.4060 -0.6893 -0.9050
 4917TIP3   OH238945   5.585   1.155  15.023  0.2379  0.5015 -0.5406
 4917TIP3    H138946   5.680   1.146  15.018 -0.0112 -2.9806 -1.6459
 4917TIP3    H238947   5.564   1.228  14.965  2.1012 -0.0996 -2.0600
 4918TIP3   OH238948   3.845   6.543  15.858 -0.3394  0.1029 -0.0634
 4918TIP3    H138949   3.863   6.544  15.952  2.1383 -1.0317 -0.4531
 4918TIP3    H238950   3.788   6.467  15.847 -0.2972 -0.0176  0.4735
 4919TIP3   OH238951   3.737   5.913  13.955  0.1230 -0.5166 -0.1244
 4919TIP3    H138952   3.725   5.960  13.872  2.4593  0.3381 -0.0395
 4919TIP3    H238953   3.759   5.823  13.928  1.2386 -0.1547 -0.4890
 4920TIP3   OH238954   1.824   0.220  14.274 -1.5270 -0.1040 -0.0735
 4920TIP3    H138955   1.790   0.173  14.349 -1.6335  0.5323  0.2823
 4920TIP3    H238956   1.850   0.151  14.213 -2.1663 -0.6187  0.2135
 4921TIP3   OH238957   1.198   6.653  14.590  0.1360  0.2628  0.0098
 4921TIP3    H138958   1.290   6.673  14.606 -0.0927  0.1563  1.5870
 4921TIP3    H238959   1.169   6.721  14.528  1.2470  0.3155 -0.4728
 4922TIP3   OH238960   1.802   2.842  16.361 -0.3147  0.7845 -0.5582
 4922TIP3    H138961   1.726   2.898  16.375 -0.5621  0.6339 -1.2326
 4922TIP3    H238962   1.818   2.847  16.266  0.3471  0.6004 -0.4609
 4923TIP3   OH238963   3.008   2.421  14.437  0.1070 -0.0731  0.0989
 4923TIP3    H138964   3.101   2.442  14.427  0.1688 -0.5754 -0.4636
 4923TIP3    H238965   2.962   2.493  14.393  0.2710 -0.3359 -0.5196
 4924TIP3   OH238966   5.504   0.525  16.536 -0.4192  0.4970 -0.4764
 4924TIP3    H138967   5.489   0.609  16.494 -0.5378  0.1599 -1.1250
 4924TIP3    H238968   5.560   0.477  16.475  0.0482  0.2877  0.1086
 4925TIP3   OH238969   6.020   2.955  14.470  0.0331  0.3863  0.6854
 4925TIP3    H138970   5.959   3.029  14.474  0.2865  0.5835  0.9839
 4925TIP3    H238971   6.106   2.996  14.459  0.4531  0.2659  3.0284
 4926TIP3   OH238972   5.835   5.748  16.764  0.3218  0.0192 -0.3309
 4926TIP3    H138973   5.882   5.669  16.740  0.1333  0.1425 -1.1267
 4926TIP3    H238974   5.846   5.755  16.859  2.2009  0.2399 -0.5245
 4927TIP3   OH238975   0.188   3.483  16.218  0.0187 -0.5900 -0.2743
 4927TIP3    H138976   0.275   3.484  16.177  1.1394  1.9233  1.8145
 4927TIP3    H238977   0.169   3.576  16.234 -2.0077 -1.2287  1.3934
 4928TIP3   OH238978   0.364   5.710  15.164  0.0221 -0.4773 -0.2984
 4928TIP3    H138979   0.453   5.688  15.138 -0.1997 -0.5371 -1.0401
 4928TIP3    H238980   0.371   5.795  15.207  0.3725 -0.2565 -0.7922
 4929TIP3   OH238981   1.693   3.629  14.527  0.3839  0.3681  0.3659
 4929TIP3    H138982   1.635   3.559  14.557  0.7432 -0.8262 -1.5803
 4929TIP3    H238983   1.653   3.660  14.446  0.8945  1.5872  0.5640
 4930TIP3   OH238984   1.142   2.679  14.905  0.5932 -0.2077  0.3483
 4930TIP3    H138985   1.096   2.601  14.937  1.2419 -0.3653  0.9384
 4930TIP3    H238986   1.230   2.648  14.884  0.4493  0.0899 -0.7612
 4931TIP3   OH238987   5.327   0.016  15.015  0.0329  0.6569  0.5227
 4931TIP3    H138988   5.388   0.084  14.988  0.9360 -1.1532 -2.5805
 4931TIP3    H238989   5.352  -0.006  15.105 -0.2632  4.2139  1.5956
 4932TIP3   OH238990   3.372   6.196  14.936 -0.0163 -0.2035 -0.3678
 4932TIP3    H138991   3.305   6.156  14.992  0.1659  0.1191  0.0830
 4932TIP3    H238992   3.344   6.287  14.926 -0.5354 -0.4652 -1.5485
 4933TIP3   OH238993   3.128   6.017  16.387  0.0835 -0.0400 -0.0646
 4933TIP3    H138994   3.144   5.924  16.374  0.0282 -0.3209  1.6390
 4933TIP3    H238995   3.047   6.034  16.338  0.9068 -0.5041 -1.6688
 4934TIP3   OH238996   4.100   2.838  14.555 -0.2378 -0.2039  0.0344
 4934TIP3    H138997   4.098   2.876  14.643  0.5169 -0.2816  0.0905
 4934TIP3    H238998   4.193   2.826  14.536 -0.4274 -1.5124 -0.2028
 4935TIP3   OH238999   6.701   5.451  17.236 -0.1454 -0.5499  0.0872
 4935TIP3    H139000   6.782   5.400  17.224 -0.2094 -0.5773 -0.2260
 4935TIP3    H239001   6.730   5.542  17.233  0.1371 -0.5555  1.7626
 4936TIP3   OH239002   0.229   1.940  13.978  0.3838 -0.4258 -0.5332
 4936TIP3    H139003   0.233   1.956  13.884  1.1167 -0.2947 -0.4879
 4936TIP3    H239004   0.320   1.924  14.004  0.1013 -1.1912  0.0276
 4937TIP3   OH239005   3.997   2.704  17.123  0.5476 -0.3334  0.3409
 4937TIP3    H139006   3.930   2.757  17.167 -0.0356 -1.6062  1.0264
 4937TIP3    H239007   3.967   2.614  17.134  1.1080 -0.7690 -1.5046
 4938TIP3   OH239008   3.190   2.099  15.239  0.6003 -0.0433 -0.0376
 4938TIP3    H139009   3.129   2.144  15.181  0.6475 -0.3982 -0.3651
 4938TIP3    H239010   3.143   2.092  15.322  0.9234  1.3898  0.2936
 4939TIP3   OH239011   1.696   3.082  14.859 -0.0985 -0.4775 -0.3207
 4939TIP3    H139012   1.772   3.035  14.825  0.1347 -0.2282 -0.1471
 4939TIP3    H239013   1.662   3.129  14.782  0.5069  0.1891 -0.1974
 4940TIP3   OH239014   6.080   3.068  15.928 -0.2603 -0.0393  0.3024
 4940TIP3    H139015   6.132   3.001  15.973  0.1711  0.6205  0.8071
 4940TIP3    H239016   5.991   3.055  15.960 -0.5725 -1.5750 -1.0275
 4941TIP3   OH239017   0.280   6.523  14.920 -0.1439  0.2774 -0.5304
 4941TIP3    H139018   0.327   6.443  14.943 -1.1307  0.2986  1.8799
 4941TIP3    H239019   0.244   6.507  14.833 -0.0700 -1.7797 -0.2155
 4942TIP3   OH239020   0.021   3.266  14.578 -0.7328 -0.0358 -0.0950
 4942TIP3    H139021   0.032   3.184  14.627 -1.1747  0.8009  1.4660
 4942TIP3    H239022  -0.066   3.260  14.540 -0.8650 -0.1895  0.2285
 4943TIP3   OH239023   2.421   0.564  15.451  0.1725  0.2365 -0.3669
 4943TIP3    H139024   2.384   0.549  15.538  0.0438  0.3782 -0.3950
 4943TIP3    H239025   2.357   0.622  15.408  1.0037  1.4616  0.0035
 4944TIP3   OH239026   6.732   1.828  15.102  0.6687  0.6002 -0.2199
 4944TIP3    H139027   6.794   1.789  15.040 -0.6930 -0.1632 -1.1735
 4944TIP3    H239028   6.648   1.826  15.055 -0.6755 -1.0887  2.0385
 4945TIP3   OH239029   1.144   5.543  15.687  0.7821  0.1106  0.3164
 4945TIP3    H139030   1.172   5.477  15.751  1.8139  1.0260  0.8418
 4945TIP3    H239031   1.065   5.506  15.648  1.7805 -1.8196  0.0020
 4946TIP3   OH239032   0.921   5.803  14.422  0.1087 -0.1005 -0.3681
 4946TIP3    H139033   0.826   5.810  14.432  0.0058 -2.1081  0.3280
 4946TIP3    H239034   0.945   5.723  14.469  1.9792 -0.3506 -1.6469
 4947TIP3   OH239035   4.056   1.289  16.207  0.2089  0.0449 -0.0294
 4947TIP3    H139036   3.970   1.331  16.213  0.8030  1.2902  0.1896
 4947TIP3    H239037   4.043   1.202  16.245 -1.0608  0.0122 -0.4746
 4948TIP3   OH239038   2.385   1.239  16.354 -0.3418 -0.7610 -0.1531
 4948TIP3    H139039   2.319   1.192  16.302 -2.7211  1.8609  0.2383
 4948TIP3    H239040   2.428   1.296  16.290 -1.1943  0.3163  0.2140
 4949TIP3   OH239041   0.994   4.332  14.857  0.0481  0.2934  0.1228
 4949TIP3    H139042   0.958   4.261  14.912 -0.3477 -1.3130 -2.0743
 4949TIP3    H239043   0.918   4.384  14.832 -0.0229 -0.0238 -0.3242
 4950TIP3   OH239044   2.089   5.798  15.663  0.7036 -0.2586 -0.3453
 4950TIP3    H139045   2.113   5.709  15.690 -1.8583 -0.8608  0.2619
 4950TIP3    H239046   1.997   5.807  15.689  0.0086  1.5378 -3.0018
 4951TIP3   OH239047   1.283   2.229  13.156  0.3467 -0.0412  0.0552
 4951TIP3    H139048   1.349   2.298  13.157  1.8817 -1.4415 -0.0834
 4951TIP3    H239049   1.200   2.275  13.158  1.3091  1.7791  1.6689
 4952TIP3   OH239050   6.535   2.258  14.796  0.3712  0.5900  0.2274
 4952TIP3    H139051   6.465   2.193  14.792  1.6063 -0.7344 -1.5015
 4952TIP3    H239052   6.491   2.339  14.820 -1.7253 -0.2210 -0.6360
 4953TIP3   OH239053   6.392   1.341  15.297  0.3644  0.2086 -0.1129
 4953TIP3    H139054   6.459   1.367  15.359 -0.1574 -0.5350  0.7919
 4953TIP3    H239055   6.309   1.362  15.341 -0.0173 -0.3568 -0.5489
 4954TIP3   OH239056   5.094   6.322  16.761  0.4497  0.2193 -0.3319
 4954TIP3    H139057   5.053   6.325  16.675  1.2875 -0.1989 -0.7677
 4954TIP3    H239058   5.089   6.411  16.794 -0.5952  0.2155 -0.4655
 4955TIP3   OH239059   1.949   3.625  14.408 -0.8847 -0.2435  0.2606
 4955TIP3    H139060   1.882   3.612  14.475 -1.9346 -1.6593 -1.0068
 4955TIP3    H239061   1.944   3.547  14.353  1.2774 -0.0263 -0.3541
 4956TIP3   OH239062   1.416   0.605  13.816 -0.4137  0.4062 -0.2808
 4956TIP3    H139063   1.433   0.611  13.910  0.3233  1.3837 -0.4556
 4956TIP3    H239064   1.410   0.511  13.799 -1.9693  0.2215  0.9659
 4957TIP3   OH239065   4.914   3.888  15.236  0.0807  0.1033  0.4419
 4957TIP3    H139066   4.878   3.799  15.241  0.9927 -0.2374  1.9570
 4957TIP3    H239067   5.009   3.875  15.244  0.4122  1.0970 -1.4517
 4958TIP3   OH239068   6.505   3.015  16.322  0.1335  0.7764  0.7482
 4958TIP3    H139069   6.435   3.032  16.385  0.2744  0.9970  0.8470
 4958TIP3    H239070   6.564   3.089  16.332  0.0141  0.9527  0.1491
 4959TIP3   OH239071   3.875   1.697  16.230  0.8296 -0.0359  0.2513
 4959TIP3    H139072   3.825   1.757  16.285  0.2069  0.0458 -0.3899
 4959TIP3    H239073   3.966   1.706  16.261  0.3102 -1.0397  2.1876
 4960TIP3   OH239074   3.357   6.248  15.332  0.3415  0.3196 -0.3719
 4960TIP3    H139075   3.339   6.333  15.372  3.5689  1.6007 -1.3473
 4960TIP3    H239076   3.448   6.254  15.303  0.5076 -3.2911 -1.0125
 4961TIP3   OH239077   0.296   0.060  16.046 -0.1115 -0.8536  0.1274
 4961TIP3    H139078   0.248   0.128  16.094 -0.6516 -0.8149 -0.4622
 4961TIP3    H239079   0.385   0.063  16.083 -0.1824  0.0345  0.2401
 4962TIP3   OH239080   0.161   1.701  16.511  0.6335 -0.5164 -0.2729
 4962TIP3    H139081   0.236   1.672  16.459  0.2913 -1.5101 -0.2410
 4962TIP3    H239082   0.097   1.631  16.502  0.6153 -0.8019  1.6112
 4963TIP3   OH239083   4.300   3.079  16.161 -0.4101  0.2928  0.2883
 4963TIP3    H139084   4.236   3.114  16.223 -0.1528 -0.3194  0.9125
 4963TIP3    H239085   4.256   3.003  16.122  0.0477 -0.3469  0.9817
 4964TIP3   OH239086   2.539   1.404  14.518 -0.4262 -0.4913  0.1985
 4964TIP3    H139087   2.633   1.419  14.513 -0.5789  0.4428  0.0346
 4964TIP3    H239088   2.512   1.386  14.428 -0.5716  0.3077  0.0769
 4965TIP3   OH239089   5.653   0.695  14.494 -0.1836  0.0799 -0.6539
 4965TIP3    H139090   5.642   0.715  14.587  0.7227 -1.8879 -0.0627
 4965TIP3    H239091   5.746   0.673  14.485 -0.5922 -1.4399 -1.6420
 4966TIP3   OH239092   5.155   2.418  15.389  0.1822 -0.2394 -0.1394
 4966TIP3    H139093   5.249   2.409  15.401  0.3247 -0.8887 -1.4999
 4966TIP3    H239094   5.133   2.352  15.323 -1.3482 -0.5789  0.6650
 4967TIP3   OH239095   0.706   1.410  14.614 -0.2155 -0.1233 -0.3032
 4967TIP3    H139096   0.652   1.468  14.668  1.0234  0.0795  0.7731
 4967TIP3    H239097   0.756   1.359  14.678  0.5613 -0.5915 -1.2649
 4968TIP3   OH239098   5.271   0.319  14.973 -0.3469 -0.1038  0.6794
 4968TIP3    H139099   5.361   0.348  14.954 -0.2372 -1.2802 -0.7844
 4968TIP3    H239100   5.266   0.319  15.069  1.2430 -0.0738  0.7937
 4969TIP3   OH239101   6.173   2.404  16.399 -0.0789 -0.2528  0.0260
 4969TIP3    H139102   6.092   2.405  16.347 -0.0891 -1.9003 -0.0429
 4969TIP3    H239103   6.160   2.471  16.466 -0.5932  1.0279 -1.2868
 4970TIP3   OH239104   3.854   6.455  14.764 -0.2993 -0.0197 -0.0196
 4970TIP3    H139105   3.891   6.484  14.680 -1.4322 -0.6566 -0.7671
 4970TIP3    H239106   3.887   6.367  14.776  1.5210  0.7781  1.2618
 4971TIP3   OH239107   0.162   5.328  16.460 -0.3162  0.1138  0.0818
 4971TIP3    H139108   0.184   5.262  16.394 -1.1960  1.4998 -1.6992
 4971TIP3    H239109   0.120   5.279  16.530  0.2214 -1.3653 -0.5903
 4972TIP3   OH239110   1.960   1.582  15.771  0.0623  0.2941  0.1728
 4972TIP3    H139111   1.962   1.491  15.743  3.0880  0.3546 -0.1563
 4972TIP3    H239112   1.951   1.633  15.691 -0.5816  0.3214  0.2574
 4973TIP3   OH239113   1.577   6.187  13.803 -0.4328 -0.2730  0.2576
 4973TIP3    H139114   1.584   6.237  13.721  0.6328  1.8055  1.5325
 4973TIP3    H239115   1.601   6.098  13.778  3.2414  0.9225 -1.1747
 4974TIP3   OH239116   2.612   0.624  16.310 -0.0211  0.2837 -0.0262
 4974TIP3    H139117   2.562   0.604  16.389 -1.2982  1.4322 -0.5034
 4974TIP3    H239118   2.662   0.702  16.331  1.4887 -0.7455  0.3801
 4975TIP3   OH239119   1.667   3.963  15.412 -0.4646 -0.0002  0.1297
 4975TIP3    H139120   1.667   4.052  15.449  2.4335  0.5846 -1.0007
 4975TIP3    H239121   1.633   3.974  15.324 -0.9103 -0.1918  0.2742
 4976TIP3   OH239122   2.726   5.238  15.399  0.2513 -0.3570 -0.2676
 4976TIP3    H139123   2.659   5.172  15.385 -0.2078 -0.4160  1.8875
 4976TIP3    H239124   2.679   5.322  15.395 -0.1340 -0.4241  1.8550
 4977TIP3   OH239125   5.240   1.167  15.650 -0.2350 -0.3706 -0.0458
 4977TIP3    H139126   5.191   1.133  15.575  0.9676 -0.3630 -0.8615
 4977TIP3    H239127   5.183   1.234  15.688 -0.7120 -0.1156 -1.1876
 4978TIP3   OH239128   1.476   0.390  17.131 -0.3075 -0.6145  0.2310
 4978TIP3    H139129   1.566   0.372  17.106 -0.2999 -0.3728  0.0754
 4978TIP3    H239130   1.451   0.465  17.077 -0.6374 -0.7488  0.1944
 4979TIP3   OH239131   4.790   0.136  15.907  1.2817 -0.0562  0.2121
 4979TIP3    H139132   4.712   0.182  15.876  1.0968 -1.4288 -1.5199
 4979TIP3    H239133   4.860   0.201  15.900  1.0682  0.0006 -2.3611
 4980TIP3   OH239134   3.821   5.281  15.877 -0.2217  0.0362 -0.1693
 4980TIP3    H139135   3.905   5.317  15.850  0.2068 -1.4005 -0.8673
 4980TIP3    H239136   3.837   5.244  15.964  0.0909 -0.9244 -0.6261
 4981TIP3   OH239137   1.169   5.268  15.442 -0.0752 -0.2454 -0.1517
 4981TIP3    H139138   1.194   5.354  15.478  0.6343 -0.6503  0.3616
 4981TIP3    H239139   1.120   5.227  15.513  2.4206 -1.5606  0.9532
 4982TIP3   OH239140   3.955   1.723  15.796  0.1595 -0.7407  0.1774
 4982TIP3    H139141   3.974   1.691  15.708 -0.7057 -0.2186 -0.2087
 4982TIP3    H239142   3.931   1.645  15.845  1.4591 -1.1587  0.1965
 4983TIP3   OH239143   5.782   3.626  17.050  0.0247  0.1584 -0.2446
 4983TIP3    H139144   5.706   3.601  17.103  1.3541  0.2262  1.7976
 4983TIP3    H239145   5.857   3.605  17.104  1.5064  0.1847 -2.1721
 4984TIP3   OH239146   6.585   5.411  15.511 -0.0177  0.1157 -0.3743
 4984TIP3    H139147   6.665   5.391  15.461  0.4141 -1.0535  0.7433
 4984TIP3    H239148   6.616   5.427  15.600 -0.8596  1.4391 -0.2899
 4985TIP3   OH239149   1.965   2.742  16.932  0.2615  0.0857  0.2383
 4985TIP3    H139150   1.959   2.828  16.973  0.4851  0.4063 -0.3997
 4985TIP3    H239151   1.961   2.759  16.838  0.8662 -0.5505  0.0903
 4986TIP3   OH239152   6.719   4.969  13.898  0.2400  0.6819  0.1761
 4986TIP3    H139153   6.787   5.019  13.853  0.9526 -0.1386  0.3235
 4986TIP3    H239154   6.727   4.880  13.864 -1.4599  0.7799 -0.5922
 4987TIP3   OH239155   2.126   4.368  15.824 -0.4067 -0.0643 -0.0903
 4987TIP3    H139156   2.176   4.289  15.846 -0.9838 -0.5604 -0.4903
 4987TIP3    H239157   2.134   4.424  15.900 -1.2925 -1.1801  0.8614
 4988TIP3   OH239158   1.443   1.007  15.520  0.3930 -0.0285  0.7069
 4988TIP3    H139159   1.390   0.932  15.495  1.3051 -1.3656  2.5361
 4988TIP3    H239160   1.454   0.998  15.615  2.4457  1.1160  0.6397
 4989TIP3   OH239161   4.778   2.894  16.991 -0.3299  0.2486 -0.2975
 4989TIP3    H139162   4.709   2.950  17.027 -1.3050 -1.0431 -0.0777
 4989TIP3    H239163   4.763   2.895  16.896 -0.3334  0.3575 -0.2966
 4990TIP3   OH239164   6.681   6.228  16.482 -0.1134  0.5001 -0.4049
 4990TIP3    H139165   6.698   6.308  16.433 -0.2758 -0.1980 -1.6610
 4990TIP3    H239166   6.629   6.174  16.422  0.6987 -0.8768  0.0830
 4991TIP3   OH239167   2.121   5.354  14.531  0.0059 -0.8879  0.1421
 4991TIP3    H139168   2.188   5.394  14.586  0.2677 -1.3219  0.1433
 4991TIP3    H239169   2.085   5.426  14.479 -0.2855 -0.4585  0.9217
 4992TIP3   OH239170   1.262   0.079  16.274  0.2456  0.1234 -0.0891
 4992TIP3    H139171   1.254   0.086  16.370  0.5084 -0.1373 -0.0476
 4992TIP3    H239172   1.173   0.062  16.244 -0.2452  2.3273 -0.0912
 4993TIP3   OH239173   4.968   4.400  13.917 -0.3300  0.2431  0.4427
 4993TIP3    H139174   5.037   4.466  13.921 -0.9281  0.9485 -0.4637
 4993TIP3    H239175   4.899   4.434  13.975 -1.8998  1.9943 -2.2278
 4994TIP3   OH239176   5.882   2.702  16.576  0.1814 -0.1116 -0.5937
 4994TIP3    H139177   5.846   2.764  16.512 -0.7788  1.1221  1.0497
 4994TIP3    H239178   5.811   2.688  16.638  1.1726 -1.0547  0.3741
 4995TIP3   OH239179   2.696   5.559  15.901  0.3089 -0.7381 -0.1502
 4995TIP3    H139180   2.790   5.554  15.887  0.2939  2.2199 -2.2207
 4995TIP3    H239181   2.659   5.501  15.834  0.6057 -1.5075  0.3380
 4996TIP3   OH239182   3.825   1.241  14.425  0.2978 -0.0919  0.1797
 4996TIP3    H139183   3.802   1.151  14.447  0.8645 -0.7071 -1.5036
 4996TIP3    H239184   3.746   1.292  14.442 -0.0651 -0.9274  1.0417
 4997TIP3   OH239185   6.659   2.024  13.516 -0.2948  0.4467 -0.6449
 4997TIP3    H139186   6.659   2.088  13.587  0.0773  0.2248 -0.4404
 4997TIP3    H239187   6.643   2.076  13.437 -0.1443  0.7717 -0.4646
 4998TIP3   OH239188   2.156   1.734  14.154 -0.6029  0.2808 -0.2646
 4998TIP3    H139189   2.195   1.813  14.191  1.8811 -2.3813  3.5735
 4998TIP3    H239190   2.228   1.690  14.109 -0.2096 -2.2785  2.5020
 4999TIP3   OH239191   0.998   4.159  16.798 -0.4062  0.7183  0.2148
 4999TIP3    H139192   0.983   4.241  16.845 -3.0089  0.3133  0.2799
 4999TIP3    H239193   0.910   4.124  16.783  0.4911 -0.7281 -2.2303
 5000TIP3   OH239194   0.637   6.280  15.958  0.5780  0.0209  0.0250
 5000TIP3    H139195   0.560   6.223  15.956 -0.0644  0.8925 -0.9511
 5000TIP3    H239196   0.646   6.311  15.868  0.5951  1.8664  0.6314
 5001TIP3   OH239197   6.341   0.605  16.972  0.2613 -0.8978 -0.0600
 5001TIP3    H139198   6.398   0.614  16.896  1.2286  0.9015  0.8156
 5001TIP3    H239199   6.253   0.600  16.936  0.7942 -1.4409 -1.3363
 5002TIP3   OH239200   3.047   5.062  15.481 -0.0890  0.2689 -0.3462
 5002TIP3    H139201   3.115   5.000  15.508 -1.2089 -1.1005 -0.5593
 5002TIP3    H239202   3.091   5.147  15.483  1.1052 -0.3075  1.4212
 5003TIP3   OH239203   6.312   4.105  14.885  0.2019 -0.1633 -0.3157
 5003TIP3    H139204   6.403   4.112  14.858  0.4619 -0.9502  0.3167
 5003TIP3    H239205   6.313   4.117  14.980  0.3239 -4.6995  0.4803
 5004TIP3   OH239206   4.817   2.244  15.691  0.3435  0.3815 -0.1607
 5004TIP3    H139207   4.911   2.262  15.700  0.2598  0.1833  1.5990
 5004TIP3    H239208   4.811   2.183  15.619  1.4774  1.0559 -0.8661
 5005TIP3   OH239209   2.749   3.506  15.159  0.9015  0.2626 -0.8022
 5005TIP3    H139210   2.713   3.439  15.102  1.2213  1.5570 -2.5948
 5005TIP3    H239211   2.843   3.504  15.143  0.7814  2.1496 -2.1237
 5006TIP3   OH239212   1.599   4.935  14.952  0.3750  0.0322  0.8606
 5006TIP3    H139213   1.651   5.005  14.911 -0.3952  0.0645 -0.0740
 5006TIP3    H239214   1.659   4.861  14.958  0.5494  0.0886 -0.1493
 5007TIP3   OH239215   2.093   3.391  14.332  0.3577 -0.2277  0.1119
 5007TIP3    H139216   2.015   3.379  14.276 -0.0386 -1.2554  0.8535
 5007TIP3    H239217   2.164   3.410  14.270  0.0950 -2.1009 -0.8451
 5008TIP3   OH239218   5.373   2.164  16.943 -0.5383 -0.4918  0.8260
 5008TIP3    H139219   5.413   2.147  17.028  0.6633 -0.9485  0.1902
 5008TIP3    H239220   5.321   2.243  16.956 -1.6163 -1.3819  2.3693
 5009TIP3   OH239221   5.657   1.560  16.417 -0.2210 -0.2659 -0.1554
 5009TIP3    H139222   5.717   1.589  16.348  0.0185 -1.4363 -0.4578
 5009TIP3    H239223   5.579   1.614  16.405  1.0284  1.8594  0.7531
 5010TIP3   OH239224   0.790   1.773  16.138 -0.1579  0.3024  0.3325
 5010TIP3    H139225   0.883   1.792  16.142 -0.2061  0.5241  0.3880
 5010TIP3    H239226   0.761   1.773  16.230 -0.1851  0.0986  0.3256
 5011TIP3   OH239227   4.829   1.849  14.590  0.5846  0.4357  0.0833
 5011TIP3    H139228   4.861   1.759  14.590  0.9038  0.5485 -0.6716
 5011TIP3    H239229   4.757   1.850  14.527 -0.8635  0.2167  1.6647
 5012TIP3   OH239230   3.387   5.587  15.761  0.2250 -0.1764  0.6517
 5012TIP3    H139231   3.454   5.531  15.721  0.4348 -0.0962  0.8955
 5012TIP3    H239232   3.419   5.676  15.748 -1.1986  0.0794 -1.8310
 5013TIP3   OH239233   1.393   1.562  16.220  0.0595  0.4761 -0.0202
 5013TIP3    H139234   1.457   1.629  16.194 -1.7480  2.4277  0.3496
 5013TIP3    H239235   1.337   1.552  16.143  1.4722 -2.2267 -0.8478
 5014TIP3   OH239236   3.321   2.292  14.661  0.4292 -0.5692 -0.3533
 5014TIP3    H139237   3.401   2.345  14.668  0.5046 -0.8449  1.2006
 5014TIP3    H239238   3.253   2.347  14.701 -0.0955 -0.4972 -1.3160
 5015TIP3   OH239239   6.066   0.102  13.531 -0.3036 -0.3492 -0.1431
 5015TIP3    H139240   6.149   0.100  13.484  0.4646  1.7655  1.0064
 5015TIP3    H239241   6.016   0.029  13.494  1.2957 -0.4860 -2.2369
 5016TIP3   OH239242   4.904   3.394  16.336  0.3440 -0.4109 -0.5704
 5016TIP3    H139243   4.926   3.304  16.313 -0.7144 -0.5159 -1.2722
 5016TIP3    H239244   4.891   3.438  16.251 -0.4130  0.0597 -0.2201
 5017TIP3   OH239245   6.368   0.904  15.968 -0.4622 -0.0597 -0.8023
 5017TIP3    H139246   6.284   0.867  15.994  0.5413 -2.9572 -1.3266
 5017TIP3    H239247   6.372   0.891  15.874  0.5544  0.1317 -0.7948
 5018TIP3   OH239248   4.868   2.441  15.416  0.0757 -0.3547 -0.0458
 5018TIP3    H139249   4.877   2.490  15.335  0.7687 -0.5698 -0.1109
 5018TIP3    H239250   4.958   2.420  15.441 -0.1248 -0.2383  0.8086
 5019TIP3   OH239251   0.519   5.455  14.941 -0.2088 -0.0663  0.0922
 5019TIP3    H139252   0.559   5.412  14.865 -1.7734  0.5045 -1.1209
 5019TIP3    H239253   0.427   5.463  14.918 -0.9962 -1.0112  2.6263
 5020TIP3   OH239254   5.546   6.124  16.568 -0.7379  0.1118  0.4974
 5020TIP3    H139255   5.619   6.062  16.571 -0.2944  0.5164 -0.9754
 5020TIP3    H239256   5.469   6.070  16.586 -0.2026 -0.5674  0.8112
 5021TIP3   OH239257   1.910   2.175  13.791  0.0071 -0.1425  0.0023
 5021TIP3    H139258   1.911   2.251  13.733 -1.5002 -0.1207 -0.0328
 5021TIP3    H239259   1.844   2.117  13.753  1.2868 -1.5885 -0.1061
 5022TIP3   OH239260   1.509   6.555  15.929  0.1256 -0.0680 -0.0356
 5022TIP3    H139261   1.481   6.636  15.971 -0.9863 -0.2310 -0.4235
 5022TIP3    H239262   1.437   6.532  15.870  0.7916 -0.8849 -0.5630
 5023TIP3   OH239263   6.247   3.887  16.028 -0.0293 -0.0841  0.3343
 5023TIP3    H139264   6.330   3.931  16.045  0.5562 -1.1604  0.3184
 5023TIP3    H239265   6.207   3.876  16.114  0.4091 -0.6568  0.4643
 5024TIP3   OH239266   1.252   4.274  14.836  0.1823 -0.1474  0.4321
 5024TIP3    H139267   1.159   4.296  14.838  0.3409  0.8406 -1.1878
 5024TIP3    H239268   1.264   4.225  14.755  1.3111  1.1184 -0.2132
 5025TIP3   OH239269   1.937   2.177  16.720 -0.2041  0.1689  0.3629
 5025TIP3    H139270   1.994   2.144  16.790 -0.4251  2.3063  1.6306
 5025TIP3    H239271   1.975   2.141  16.639  2.4878  0.8835  1.2172
 5026TIP3   OH239272   6.442   4.563  16.715  0.3370  0.5391 -0.3327
 5026TIP3    H139273   6.435   4.513  16.633 -0.1404  0.2489 -0.1216
 5026TIP3    H239274   6.495   4.639  16.692 -0.0571  0.6250 -0.9870
 5027TIP3   OH239275   2.184   2.985  13.534  0.7856  0.0395 -0.0154
 5027TIP3    H139276   2.148   3.073  13.534  1.3972  0.2966  0.1806
 5027TIP3    H239277   2.121   2.932  13.486  0.8262  0.7530 -0.8610
 5028TIP3   OH239278   1.414   2.309  14.928 -0.6995  0.8517 -0.2420
 5028TIP3    H139279   1.432   2.381  14.867 -1.5713  0.4056 -1.0554
 5028TIP3    H239280   1.460   2.234  14.890  0.7170  1.0820  0.9248
 5029TIP3   OH239281   4.481   3.725  14.338  0.0026  0.5431 -0.1340
 5029TIP3    H139282   4.442   3.653  14.387 -0.2779  0.3502 -0.6286
 5029TIP3    H239283   4.460   3.706  14.247 -1.0986  1.8482 -0.1887
 5030TIP3   OH239284   6.546   5.740  16.529  0.0701  0.5372  0.1582
 5030TIP3    H139285   6.454   5.764  16.520 -0.0575 -0.3888 -1.4934
 5030TIP3    H239286   6.547   5.645  16.524  1.2233  0.5796 -1.7663
 5031TIP3   OH239287   1.862   0.109  15.616 -0.0776 -0.1742  0.2334
 5031TIP3    H139288   1.878   0.203  15.622 -1.6975  0.1145  0.5758
 5031TIP3    H239289   1.808   0.089  15.693 -0.4585 -1.2154 -0.2870
 5032TIP3   OH239290   3.887   6.218  14.897 -0.5457 -0.2642  0.3659
 5032TIP3    H139291   3.947   6.256  14.961 -1.5856  0.0728  1.1776
 5032TIP3    H239292   3.808   6.199  14.948 -1.0664 -0.8467 -0.6402
 5033TIP3   OH239293   1.324   2.842  16.790  0.7384  0.3381  0.4089
 5033TIP3    H139294   1.328   2.937  16.782 -0.0816  0.3221 -0.3507
 5033TIP3    H239295   1.411   2.812  16.761  0.5463  0.7813 -0.6665
 5034TIP3   OH239296   5.802   6.753  16.558 -0.2533 -0.3506  0.2517
 5034TIP3    H139297   5.856   6.750  16.479  0.9834  1.8588  0.9232
 5034TIP3    H239298   5.758   6.668  16.561  2.3146 -1.8162 -0.9333
 5035TIP3   OH239299   4.751   0.379  13.927 -0.0165 -0.3664  0.1912
 5035TIP3    H139300   4.826   0.367  13.868  0.6321 -0.4937  1.0150
 5035TIP3    H239301   4.675   0.350  13.876  0.5715 -0.7983 -0.4613
 5036TIP3   OH239302   2.313   6.389  15.122  0.4834 -0.2657  0.2319
 5036TIP3    H139303   2.316   6.322  15.190  1.0092 -0.1483  0.3311
 5036TIP3    H239304   2.261   6.351  15.052  0.5469 -0.6675  0.4030
 5037TIP3   OH239305   6.234   3.621  14.305  0.4053  0.0942 -0.1053
 5037TIP3    H139306   6.301   3.664  14.357  0.8702  0.4703 -1.0013
 5037TIP3    H239307   6.281   3.554  14.256  0.3649  1.1574 -1.6609
 5038TIP3   OH239308   4.568   4.726  15.938 -0.1252  0.7047  0.0770
 5038TIP3    H139309   4.590   4.658  15.875  0.5365  0.7308  0.2705
 5038TIP3    H239310   4.488   4.765  15.904 -0.4883 -0.1342 -0.0613
 5039TIP3   OH239311   0.044   1.985  14.826  0.5273 -0.2840  0.9246
 5039TIP3    H139312   0.125   1.966  14.780 -0.2750  0.2766 -0.8045
 5039TIP3    H239313   0.054   2.075  14.857  0.5965 -0.2492  0.7999
 5040TIP3   OH239314   3.659   6.332  16.201  0.2763  0.0656 -0.0702
 5040TIP3    H139315   3.750   6.310  16.224  0.3014 -0.4136 -0.6073
 5040TIP3    H239316   3.666   6.414  16.153  0.5919 -0.7236 -1.4130
 5041TIP3   OH239317   2.904   1.108  14.643  0.1932  0.0311  0.4979
 5041TIP3    H139318   2.967   1.151  14.586  0.7138  0.6347  1.5083
 5041TIP3    H239319   2.923   1.015  14.633 -1.3756 -0.1243 -2.2144
 5042TIP3   OH239320   4.568   4.450  15.383 -0.0962 -0.2278 -0.6623
 5042TIP3    H139321   4.475   4.431  15.394 -0.3266  1.3564  0.3118
 5042TIP3    H239322   4.583   4.531  15.431  1.6485 -0.0610 -1.3913
 5043TIP3   OH239323   5.372   5.469  14.386  0.0299 -0.6277 -0.5538
 5043TIP3    H139324   5.293   5.475  14.441  0.6372  0.8287  0.2271
 5043TIP3    H239325   5.349   5.518  14.307 -0.4886 -1.8557 -1.1943
 5044TIP3   OH239326   3.303   5.658  15.426  0.0852 -0.0270 -0.0997
 5044TIP3    H139327   3.303   5.593  15.356  0.7466  0.5327 -0.6331
 5044TIP3    H239328   3.395   5.665  15.452 -0.1811 -0.4549  1.0561
 5045TIP3   OH239329   3.196   3.409  14.476 -0.2252 -0.1358  0.4786
 5045TIP3    H139330   3.288   3.410  14.502  0.3012 -1.0195 -1.2191
 5045TIP3    H239331   3.184   3.491  14.427  0.2552 -0.9793 -1.1121
 5046TIP3   OH239332   5.870   5.316  14.792 -0.0330  0.0159 -0.1985
 5046TIP3    H139333   5.891   5.261  14.867 -2.1154 -1.7726 -0.8109
 5046TIP3    H239334   5.786   5.357  14.814  0.6662  1.6508 -0.4587
 5047TIP3   OH239335   1.040   0.020  14.858  0.2895 -0.2188 -0.6198
 5047TIP3    H139336   1.089  -0.009  14.782  2.2230  0.0903  0.4512
 5047TIP3    H239337   1.107   0.047  14.921 -1.2705  0.4641  0.8213
 5048TIP3   OH239338   4.044   4.428  16.518 -0.1673  0.0869  0.3871
 5048TIP3    H139339   4.133   4.452  16.492 -0.8629  0.7854 -1.5767
 5048TIP3    H239340   4.045   4.431  16.613  1.6684  0.9851  0.3886
 5049TIP3   OH239341   6.287   2.239  14.436  0.5517 -0.2456 -0.1370
 5049TIP3    H139342   6.267   2.331  14.418  0.5714  0.1293  1.5572
 5049TIP3    H239343   6.382   2.233  14.430  0.7098  0.2729  1.4123
 5050TIP3   OH239344   4.958   1.792  13.384  0.1761  0.5176 -0.0445
 5050TIP3    H139345   4.870   1.762  13.361 -1.0711  3.7366  0.0064
 5050TIP3    H239346   5.010   1.712  13.393 -2.4169 -1.4303 -1.3331
 5051TIP3   OH239347   4.955   4.083  14.576  0.0523 -0.0235  0.1191
 5051TIP3    H139348   4.963   4.021  14.649  0.2415  0.6937  0.7151
 5051TIP3    H239349   4.869   4.122  14.587 -0.4275 -0.7709 -0.7526
 5052TIP3   OH239350   0.843   0.748  15.226 -0.6903  0.6011  0.0585
 5052TIP3    H139351   0.770   0.811  15.227 -3.5358 -2.3496 -1.6759
 5052TIP3    H239352   0.805   0.669  15.189  2.9843 -1.8144  0.9770
 5053TIP3   OH239353   0.540   6.604  14.336 -0.1191  0.1133  0.4040
 5053TIP3    H139354   0.559   6.515  14.364  2.0750  0.1987 -0.6287
 5053TIP3    H239355   0.582   6.659  14.403  0.4447  0.3505 -0.1435
 5054TIP3   OH239356   6.749   1.880  16.341 -0.0983  0.4187 -0.7293
 5054TIP3    H139357   6.824   1.903  16.286 -0.3334 -0.7339 -1.5650
 5054TIP3    H239358   6.782   1.811  16.399 -0.4817 -0.0017 -1.0126
 5055TIP3   OH239359   4.048   6.218  16.591  0.0073  0.0538 -0.4468
 5055TIP3    H139360   4.040   6.162  16.668  0.9588 -0.9392 -1.0604
 5055TIP3    H239361   4.085   6.162  16.523 -2.7357  0.2906 -2.3254
 5056TIP3   OH239362   2.481   2.006  14.891 -0.1443  0.4708 -0.0322
 5056TIP3    H139363   2.422   2.077  14.863 -0.3226  0.0367 -0.8041
 5056TIP3    H239364   2.427   1.953  14.950 -0.4228  0.2653 -0.4661
 5057TIP3   OH239365   5.575   2.134  16.762  0.1178  0.2353  1.2422
 5057TIP3    H139366   5.610   2.222  16.769 -1.0173  0.9037 -0.5312
 5057TIP3    H239367   5.500   2.133  16.821  0.3941  0.3101  1.5951
 5058TIP3   OH239368   1.249   2.978  14.758  0.2562  0.0417 -0.1685
 5058TIP3    H139369   1.205   3.047  14.709  1.3190 -0.1374 -1.4074
 5058TIP3    H239370   1.209   2.897  14.725  0.1926 -0.0247  0.0703
 5059TIP3   OH239371   1.888   1.484  13.387 -0.3399 -0.3754 -0.2173
 5059TIP3    H139372   1.941   1.514  13.313  0.5343 -0.3296  0.4060
 5059TIP3    H239373   1.839   1.410  13.353  0.8829 -1.0620 -0.5654
 5060TIP3   OH239374   2.410   0.896  16.907  0.2046  0.0511 -0.2401
 5060TIP3    H139375   2.501   0.869  16.921  0.4346  0.7052 -0.4460
 5060TIP3    H239376   2.388   0.863  16.820 -0.1843 -1.2265  0.3191
 5061TIP3   OH239377   1.644   2.941  15.930  0.1471  0.1541  0.0921
 5061TIP3    H139378   1.707   2.896  15.985  0.1623 -0.8029 -0.6758
 5061TIP3    H239379   1.560   2.899  15.949  0.2913 -0.8211 -1.2127
 5062TIP3   OH239380   3.046   5.148  15.057 -0.0798 -0.1561 -0.5191
 5062TIP3    H139381   3.030   5.195  14.975  1.1181 -0.5191 -0.9735
 5062TIP3    H239382   3.017   5.209  15.125 -3.4588 -0.7496 -1.2081
 5063TIP3   OH239383   3.320   4.211  16.545  0.0969  0.3067  0.4607
 5063TIP3    H139384   3.243   4.170  16.584 -0.5258  1.2549  0.2560
 5063TIP3    H239385   3.338   4.159  16.467  1.6433 -1.9014  2.1619
 5064TIP3   OH239386   3.791   6.022  13.699 -0.6688 -0.1721  0.1240
 5064TIP3    H139387   3.709   6.027  13.651 -0.3099 -0.8982 -0.5806
 5064TIP3    H239388   3.817   6.113  13.712  0.5127  0.1230 -3.3058
 5065TIP3   OH239389   1.491   0.257  15.669  0.5028  0.4768  0.0092
 5065TIP3    H139390   1.424   0.189  15.667 -3.5473  4.0315  0.0687
 5065TIP3    H239391   1.497   0.288  15.579  0.4326  1.5674  0.3632
 5066TIP3   OH239392   0.851   1.298  16.422 -0.0912 -0.0340  0.1319
 5066TIP3    H139393   0.802   1.380  16.428 -0.7814 -0.2002 -2.2751
 5066TIP3    H239394   0.934   1.316  16.467 -1.0033  1.3150  1.3697
 5067TIP3   OH239395   5.800   5.133  15.659 -0.8836  0.0964 -0.2506
 5067TIP3    H139396   5.830   5.094  15.577  1.6985  0.3233  0.4881
 5067TIP3    H239397   5.818   5.227  15.649  0.2167  0.0235  0.8313
 5068TIP3   OH239398   0.964   5.657  15.979  0.2369 -0.7420 -0.2588
 5068TIP3    H139399   0.968   5.752  15.977  0.3383 -0.7494 -2.5348
 5068TIP3    H239400   0.901   5.637  16.049 -0.0771  0.9935 -0.0154
 5069TIP3   OH239401   4.960   1.054  15.778 -0.2229  0.1171  0.2937
 5069TIP3    H139402   4.968   1.141  15.817 -0.8351  0.5207 -0.4293
 5069TIP3    H239403   5.037   1.045  15.722 -0.0623  0.1139  0.5145
 5070TIP3   OH239404   0.191   0.284  14.796 -0.3107 -0.2230 -0.1646
 5070TIP3    H139405   0.201   0.378  14.785 -0.6829 -0.1955 -0.3045
 5070TIP3    H239406   0.228   0.265  14.882  0.2834 -0.0404 -0.3759
 5071TIP3   OH239407   1.517   3.213  15.676  0.1513  0.0615  0.1727
 5071TIP3    H139408   1.543   3.193  15.766  0.3887  1.9137  0.5521
 5071TIP3    H239409   1.565   3.150  15.623  1.2360 -0.0464  1.2370
 5072TIP3   OH239410   6.143   2.628  16.541  0.0062 -0.5784 -0.3624
 5072TIP3    H139411   6.062   2.669  16.571  0.2572  0.4792 -1.0720
 5072TIP3    H239412   6.198   2.625  16.619  0.7656  2.4280 -0.6494
 5073TIP3   OH239413   4.338   3.418  15.636 -0.9340 -0.5834 -0.2662
 5073TIP3    H139414   4.359   3.411  15.730  0.4518 -1.7904 -0.6149
 5073TIP3    H239415   4.286   3.340  15.618 -0.1496 -1.0116 -0.7306
 5074TIP3   OH239416   0.759   3.921  16.350  0.4829  0.2836 -0.2673
 5074TIP3    H139417   0.761   3.970  16.268  0.9989 -0.9281 -1.0146
 5074TIP3    H239418   0.847   3.884  16.359  0.5197  0.6165  0.9800
 5075TIP3   OH239419   3.892   0.385  13.616 -0.1009 -0.0572 -0.0548
 5075TIP3    H139420   3.827   0.401  13.685 -0.8574 -1.4911 -0.3948
 5075TIP3    H239421   3.866   0.301  13.578  0.2075  0.7517 -2.1842
 5076TIP3   OH239422   2.386   0.295  14.607 -0.3446 -0.0124 -0.2245
 5076TIP3    H139423   2.420   0.285  14.518  1.3921  2.6402  0.0329
 5076TIP3    H239424   2.307   0.240  14.609 -1.2240  0.8783 -3.8247
 5077TIP3   OH239425   5.873   4.654  16.205 -0.5876 -0.2392 -0.5256
 5077TIP3    H139426   5.870   4.559  16.219  0.0975 -0.3165 -0.8421
 5077TIP3    H239427   5.845   4.666  16.114 -0.0170 -0.2045 -0.7007
 5078TIP3   OH239428   1.152   5.065  15.700 -0.5851  0.2165  0.7442
 5078TIP3    H139429   1.240   5.042  15.669 -1.6121 -1.7233 -0.9641
 5078TIP3    H239430   1.119   4.986  15.742 -1.0617  1.3552  2.6525
 5079TIP3   OH239431   1.978   0.410  16.948  0.3216 -0.0548  0.1174
 5079TIP3    H139432   1.974   0.399  16.853 -1.3110 -0.1651  0.1669
 5079TIP3    H239433   1.936   0.494  16.964 -2.2376 -1.3927  0.9248
 5080TIP3   OH239434   5.849   2.976  14.914  0.3952  0.3811  0.4061
 5080TIP3    H139435   5.907   3.051  14.900  0.1111  0.3306 -1.2114
 5080TIP3    H239436   5.895   2.902  14.872  0.7237 -0.4147  2.0632
 5081TIP3   OH239437   4.050   3.635  16.445 -0.5690 -0.0175  0.5622
 5081TIP3    H139438   3.995   3.657  16.520  0.3106  3.9832  0.2615
 5081TIP3    H239439   3.989   3.627  16.372 -1.1336 -0.1175  1.0414
 5082TIP3   OH239440   0.812   5.049  14.052 -0.2844  0.1444  0.2781
 5082TIP3    H139441   0.856   4.987  14.110  1.0591  0.6140 -0.1921
 5082TIP3    H239442   0.875   5.065  13.982 -1.4283  0.4468 -0.7199
 5083TIP3   OH239443   0.229   6.068  15.623 -0.5106 -0.1763  0.2653
 5083TIP3    H139444   0.213   6.123  15.700 -0.1227 -0.0152  0.2329
 5083TIP3    H239445   0.324   6.074  15.609 -0.3320 -1.4790  0.7451
 5084TIP3   OH239446   2.107   0.306  14.233  0.0453 -0.1510 -0.6299
 5084TIP3    H139447   2.030   0.251  14.221  0.7458 -1.2219 -0.3914
 5084TIP3    H239448   2.084   0.389  14.191 -2.4553  0.7718  2.2400
 5085TIP3   OH239449   0.151   2.870  14.526  0.8787  0.3812  0.2335
 5085TIP3    H139450   0.231   2.868  14.473  0.1002  2.0162 -1.0982
 5085TIP3    H239451   0.104   2.790  14.501  0.0806  1.5656 -2.3844
 5086TIP3   OH239452   2.282   2.444  15.300  0.4334 -0.2957  0.0417
 5086TIP3    H139453   2.286   2.363  15.350 -1.1437  0.5471  1.6455
 5086TIP3    H239454   2.331   2.425  15.219  1.6200 -2.2408  1.1374
 5087TIP3   OH239455   2.793   4.612  15.152  0.0316 -0.4861 -0.4110
 5087TIP3    H139456   2.847   4.549  15.200  0.9053  0.0034 -0.7161
 5087TIP3    H239457   2.727   4.640  15.215  0.0704 -1.1712 -0.0535
 5088TIP3   OH239458   4.572   3.055  17.087 -0.1436  0.0282  0.0256
 5088TIP3    H139459   4.608   3.143  17.083 -0.9963  0.3642 -0.5378
 5088TIP3    H239460   4.500   3.056  17.024 -0.6019 -0.8639  0.5175
 5089TIP3   OH239461   2.193   1.044  16.252 -0.4252  0.6295 -0.3033
 5089TIP3    H139462   2.221   0.957  16.223  0.4237  1.3025 -1.5995
 5089TIP3    H239463   2.136   1.027  16.327  0.5095 -0.9944  0.0893
 5090TIP3   OH239464   0.600   4.479  15.467  0.0710  0.5235 -0.3509
 5090TIP3    H139465   0.639   4.535  15.535 -0.3027  0.5085 -0.1233
 5090TIP3    H239466   0.662   4.406  15.458 -0.2907  0.0972  0.5648
 5091TIP3   OH239467   1.474   4.358  15.533  0.4687 -0.1068  0.5004
 5091TIP3    H139468   1.413   4.292  15.500 -0.6844  1.0994  0.1715
 5091TIP3    H239469   1.517   4.392  15.455  1.1833 -0.5538  0.6862
 5092TIP3   OH239470   5.225   2.096  14.919  0.0907  0.0438  0.9055
 5092TIP3    H139471   5.256   2.174  14.965  3.3943 -0.4460 -0.1925
 5092TIP3    H239472   5.300   2.036  14.920 -0.9461 -1.4747 -1.7626
 5093TIP3   OH239473   6.164   2.061  16.832  0.1046 -0.1061  0.0614
 5093TIP3    H139474   6.068   2.064  16.826  0.1405  1.3256 -0.2010
 5093TIP3    H239475   6.194   2.118  16.761  1.0773  1.1613  1.4309
 5094TIP3   OH239476   2.513   2.631  16.668  0.3089  0.4182 -0.0625
 5094TIP3    H139477   2.601   2.659  16.695  0.5290 -0.1747 -0.1569
 5094TIP3    H239478   2.461   2.635  16.749  0.2183  1.5049 -0.1535
 5095TIP3   OH239479   2.293   5.768  14.015  0.0024  0.2042 -0.7154
 5095TIP3    H139480   2.317   5.776  14.108 -1.1269 -0.3969 -0.3605
 5095TIP3    H239481   2.273   5.675  14.003 -1.4551  0.5471 -1.1550
 5096TIP3   OH239482   2.179   5.243  16.120  0.2223  0.0410 -0.3277
 5096TIP3    H139483   2.139   5.156  16.122 -0.6034  0.4238  0.7663
 5096TIP3    H239484   2.231   5.244  16.039 -0.2922 -1.2240 -0.6964
 5097TIP3   OH239485   3.335   1.837  13.028 -0.2336 -0.2440 -0.7397
 5097TIP3    H139486   3.369   1.869  13.111 -0.4059  0.1877 -0.8308
 5097TIP3    H239487   3.394   1.766  13.002  0.4939  0.3824 -0.8204
 5098TIP3   OH239488   0.554   1.277  16.381 -0.1112  0.5425  0.0079
 5098TIP3    H139489   0.597   1.363  16.379 -0.8509  0.9086 -0.6482
 5098TIP3    H239490   0.598   1.227  16.312  0.8689  0.1016  0.9177
 5099TIP3   OH239491   6.622   4.786  16.715  0.2111  0.1572  0.1783
 5099TIP3    H139492   6.704   4.770  16.669  0.5644 -1.1095  1.1957
 5099TIP3    H239493   6.648   4.824  16.798 -0.0583 -1.9094  1.2682
 5100TIP3   OH239494   5.940   5.553  14.926  0.0417 -0.5852  0.3688
 5100TIP3    H139495   6.015   5.494  14.913 -0.1287 -0.6388 -0.4620
 5100TIP3    H239496   5.977   5.632  14.964  0.2413 -1.3161  1.7491
 5101TIP3   OH239497   3.236   0.649  14.886  0.0162 -0.5911  0.3217
 5101TIP3    H139498   3.215   0.619  14.797  0.0093  3.4223 -1.2043
 5101TIP3    H239499   3.167   0.712  14.907  1.8694  1.0824  1.7514
 5102TIP3   OH239500   4.923   1.560  16.331 -0.5861  0.0401 -0.5965
 5102TIP3    H139501   4.879   1.637  16.366 -0.8094  0.2483 -1.3195
 5102TIP3    H239502   5.016   1.574  16.351 -0.7922 -0.2733  0.6955
 5103TIP3   OH239503   4.655   0.506  17.146 -0.0499  0.2048  0.7098
 5103TIP3    H139504   4.605   0.520  17.226 -1.8269 -0.0708 -0.3046
 5103TIP3    H239505   4.604   0.441  17.097  0.3966  1.1841 -1.1278
 5104TIP3   OH239506   1.885   1.386  16.989  0.4429  0.3090 -0.2390
 5104TIP3    H139507   1.870   1.470  16.944  0.5325  1.1095  1.1747
 5104TIP3    H239508   1.951   1.405  17.055  1.7661 -1.3156 -1.0322
 5105TIP3   OH239509   5.973   5.339  16.473  0.3896  0.1533 -0.0039
 5105TIP3    H139510   6.053   5.382  16.441  0.1805 -0.7554 -1.8743
 5105TIP3    H239511   5.994   5.245  16.472 -0.6470 -0.0848 -0.3677
 5106TIP3   OH239512   5.236   0.775  14.061  0.0113 -0.8872 -0.1899
 5106TIP3    H139513   5.291   0.767  13.984  1.9866  1.9420  0.7430
 5106TIP3    H239514   5.183   0.854  14.045  1.7021  0.8111  1.8773
 5107TIP3   OH239515   4.140   0.527  16.510 -0.5438  0.1564 -0.2057
 5107TIP3    H139516   4.232   0.508  16.491 -0.6322  0.5613 -1.0799
 5107TIP3    H239517   4.129   0.501  16.601 -0.0098 -1.5998 -0.5909
 5108TIP3   OH239518   4.281   4.399  15.317  0.6754  0.8640 -0.2780
 5108TIP3    H139519   4.270   4.370  15.226 -1.2076  0.7145 -0.0511
 5108TIP3    H239520   4.196   4.382  15.357  2.3151 -2.0003  2.4048
 5109TIP3   OH239521   0.439   0.217  14.017  0.2522  0.0004  0.2356
 5109TIP3    H139522   0.517   0.260  13.981 -1.2698  0.5072 -2.8278
 5109TIP3    H239523   0.419   0.149  13.953 -2.3223  0.5176  0.4028
 5110TIP3   OH239524   4.487   3.650  15.910  0.3156  0.5192  0.1272
 5110TIP3    H139525   4.440   3.640  15.992 -0.6659 -0.3888 -0.5157
 5110TIP3    H239526   4.519   3.562  15.890 -2.7849 -0.2547 -2.3557
 5111TIP3   OH239527   5.113   4.994  15.042  0.1287  0.0724  0.2845
 5111TIP3    H139528   5.041   4.931  15.052 -0.0599  0.2882  0.2986
 5111TIP3    H239529   5.075   5.077  15.071  0.1913  0.3108 -0.3131
 5112TIP3   OH239530   4.658   5.691  15.790  0.4845 -0.3617 -0.3851
 5112TIP3    H139531   4.629   5.770  15.836 -0.7567  0.5124 -2.4971
 5112TIP3    H239532   4.754   5.697  15.791  0.5010 -0.2730  1.7833
 5113TIP3   OH239533   0.949   1.051  14.854 -0.4797 -0.3561  0.8610
 5113TIP3    H139534   1.031   1.003  14.855  0.0656  0.4546 -0.8453
 5113TIP3    H239535   0.882   0.985  14.835  0.1878 -0.5698 -0.9301
 5114TIP3   OH239536   0.047   1.586  14.299  0.2900  0.5092  0.1352
 5114TIP3    H139537   0.057   1.669  14.253  0.0789  0.3894 -0.1328
 5114TIP3    H239538  -0.048   1.574  14.307  0.3252  0.7290  0.9805
 5115TIP3   OH239539   3.481   5.779  15.212  0.1083 -0.3355  0.1981
 5115TIP3    H139540   3.500   5.808  15.302  0.1077  0.3350 -0.0129
 5115TIP3    H239541   3.392   5.810  15.196  0.2206 -0.1885 -0.1392
 5116TIP3   OH239542   2.430   5.169  15.350  0.0153 -0.3851  0.2628
 5116TIP3    H139543   2.374   5.246  15.348 -1.9940 -1.6981  1.4481
 5116TIP3    H239544   2.414   5.125  15.266  1.4253  0.6071 -0.5593
 5117TIP3   OH239545   2.554   2.685  17.126 -0.1717  0.1744  0.1367
 5117TIP3    H139546   2.472   2.635  17.125  0.7427 -1.3996 -1.0710
 5117TIP3    H239547   2.615   2.629  17.175  0.1788  1.3649  1.0976
 5118TIP3   OH239548   3.894   1.376  12.950 -0.3769 -0.0832 -0.4984
 5118TIP3    H139549   3.965   1.318  12.922  0.2328 -0.2057  1.1908
 5118TIP3    H239550   3.819   1.350  12.896  1.3253  1.4870 -3.8557
 5119TIP3   OH239551   4.357   4.737  14.263 -0.5682 -0.0390 -0.3111
 5119TIP3    H139552   4.284   4.687  14.226  0.8177 -1.3706 -1.3366
 5119TIP3    H239553   4.326   4.828  14.261 -3.7012 -0.7925  2.8650
 5120TIP3   OH239554   5.608   0.927  16.104 -0.1769 -0.3283 -0.1748
 5120TIP3    H139555   5.668   0.919  16.030 -0.6745 -1.5870 -0.4561
 5120TIP3    H239556   5.528   0.882  16.077 -0.1789 -1.3006  1.3252
 5121TIP3   OH239557   5.123   2.034  15.658  0.0515  0.1964 -0.0155
 5121TIP3    H139558   5.216   2.053  15.671 -0.0919 -0.1760  2.0239
 5121TIP3    H239559   5.079   2.093  15.719 -1.1171  0.7623 -1.3661
 5122TIP3   OH239560   1.701   6.262  14.057 -0.2901 -0.6597 -0.0699
 5122TIP3    H139561   1.639   6.226  13.993 -1.6340  0.4988  0.5115
 5122TIP3    H239562   1.663   6.346  14.082  0.2937 -0.9743  2.0837
 5123TIP3   OH239563   5.610   3.878  14.995  0.1777 -1.2774  0.3230
 5123TIP3    H139564   5.679   3.933  14.959  0.4010 -0.4677  1.8912
 5123TIP3    H239565   5.543   3.940  15.025 -1.5773 -2.0560 -1.7101
 5124TIP3   OH239566   1.631   3.825  16.453 -0.0353 -0.1511 -0.4567
 5124TIP3    H139567   1.558   3.877  16.418 -0.0845 -0.0737 -0.2420
 5124TIP3    H239568   1.600   3.735  16.450  0.4066 -0.2844 -1.7285
 5125TIP3   OH239569   1.360   6.037  14.939  0.6111  0.3270 -0.2483
 5125TIP3    H139570   1.314   5.979  14.999  0.1011  1.3348  0.3573
 5125TIP3    H239571   1.436   6.068  14.989  1.2302 -0.3007 -0.7858
 5126TIP3   OH239572   1.982   5.908  14.784  0.0263  0.2464 -0.3639
 5126TIP3    H139573   1.937   5.978  14.736 -1.4255  0.5768  1.3336
 5126TIP3    H239574   1.949   5.827  14.745 -2.1654  0.4851  0.8251
 5127TIP3   OH239575   2.957   0.411  13.499  0.1767 -0.2480  0.3767
 5127TIP3    H139576   3.005   0.429  13.418 -1.0502  1.6719  0.0137
 5127TIP3    H239577   2.873   0.374  13.470  0.4904 -1.4339  0.9020
 5128TIP3   OH239578   6.372   5.044  14.869  0.1696  1.0697  0.2188
 5128TIP3    H139579   6.349   4.970  14.927 -1.2192  1.1934 -0.1257
 5128TIP3    H239580   6.458   5.072  14.899  0.6087 -0.5245  0.5296
 5129TIP3   OH239581   5.103   2.728  15.063  0.0054 -0.1411 -0.1372
 5129TIP3    H139582   5.045   2.727  15.139  0.2519 -3.1161  0.1551
 5129TIP3    H239583   5.048   2.699  14.991  0.6566 -1.1826 -0.2389
 5130TIP3   OH239584   2.297   3.491  14.122 -0.1233  0.4472  0.1777
 5130TIP3    H139585   2.232   3.532  14.064  0.4702  2.1935  0.6947
 5130TIP3    H239586   2.381   3.514  14.083  0.2493 -0.8832  0.1255
 5131TIP3   OH239587   3.054   3.306  14.683 -0.3892  0.0664  0.3050
 5131TIP3    H139588   3.078   3.383  14.632 -1.1223  0.9178  1.2094
 5131TIP3    H239589   3.106   3.235  14.646 -1.0108  0.6108 -1.7376
 5132TIP3   OH239590   0.626   4.167  15.211 -0.0575  0.4871  0.4231
 5132TIP3    H139591   0.570   4.146  15.136 -1.0559 -0.6111  1.4355
 5132TIP3    H239592   0.620   4.262  15.220 -1.8073  0.4100  0.5014
 5133TIP3   OH239593   3.627   6.467  14.043  0.2842 -0.0286 -0.3144
 5133TIP3    H139594   3.715   6.485  14.076  0.3324 -1.7294  0.5855
 5133TIP3    H239595   3.607   6.379  14.075 -1.2052 -0.2234 -1.6612
 5134TIP3   OH239596   1.250   0.401  15.647 -0.1466 -0.0086  0.1630
 5134TIP3    H139597   1.229   0.494  15.657 -0.5796 -0.2211  1.4131
 5134TIP3    H239598   1.339   0.392  15.681 -0.2256 -0.1122  0.3402
 5135TIP3   OH239599   1.212   5.781  14.333  0.0951  0.1712  0.0875
 5135TIP3    H139600   1.253   5.865  14.354 -0.8360  0.9406 -1.0397
 5135TIP3    H239601   1.118   5.797  14.343 -0.2034 -0.2258 -1.7212
 5136TIP3   OH239602   1.438   6.081  15.386  0.4497 -0.1465 -0.3131
 5136TIP3    H139603   1.434   5.987  15.407  1.8732 -0.2542 -0.4322
 5136TIP3    H239604   1.401   6.124  15.464 -1.6060 -0.8256 -0.8420
 5137TIP3   OH239605   0.075   0.973  16.035 -0.2791 -0.4510  0.3900
 5137TIP3    H139606  -0.018   0.965  16.058 -0.7963  0.1294 -1.3420
 5137TIP3    H239607   0.077   0.967  15.939  1.5639 -1.2289  0.4286
 5138TIP3   OH239608   4.314   2.553  16.458  0.1476 -0.0824  0.2639
 5138TIP3    H139609   4.377   2.618  16.425 -2.1281  1.8241 -0.6017
 5138TIP3    H239610   4.351   2.524  16.541  2.1875  0.8793 -0.2414
 5139TIP3   OH239611   2.792   1.315  16.315 -0.2922 -0.0215  0.0467
 5139TIP3    H139612   2.822   1.256  16.246  2.3746  1.3874 -0.1163
 5139TIP3    H239613   2.864   1.316  16.378 -0.7828  2.1306  0.6231
 5140TIP3   OH239614   4.463   2.166  16.042  0.4155  0.4915 -0.3236
 5140TIP3    H139615   4.522   2.221  16.095  1.2734  0.1421 -0.8875
 5140TIP3    H239616   4.393   2.140  16.102  0.7623  1.0345  0.3279
 5141TIP3   OH239617   5.583   2.383  15.790 -0.5688 -0.1465 -0.7027
 5141TIP3    H139618   5.597   2.474  15.767 -3.3761  0.6740  0.3642
 5141TIP3    H239619   5.574   2.384  15.886 -1.1542 -1.4337 -0.7217
 5142TIP3   OH239620   0.220   3.889  14.483  0.3070  0.0713  0.1314
 5142TIP3    H139621   0.157   3.906  14.553 -1.4547  0.5372 -1.5063
 5142TIP3    H239622   0.183   3.817  14.433  2.2078 -1.1766  0.3871
 5143TIP3   OH239623   1.420   0.073  14.254  0.4664  0.0646  0.5245
 5143TIP3    H139624   1.487   0.047  14.317  0.0984  0.3739  1.0576
 5143TIP3    H239625   1.468   0.097  14.175  0.9841  0.3107  0.9095
 5144TIP3   OH239626   5.385   2.382  16.029 -0.2962  0.5051 -0.2352
 5144TIP3    H139627   5.297   2.362  15.998  0.2438  0.1378 -1.6150
 5144TIP3    H239628   5.385   2.358  16.122 -2.1467  2.1564  0.2621
 5145TIP3   OH239629   3.818   0.777  15.446  0.0039  0.8843 -0.0597
 5145TIP3    H139630   3.830   0.863  15.488  0.4829  0.3264  0.9947
 5145TIP3    H239631   3.759   0.730  15.506  1.5977 -0.3299  0.6176
 5146TIP3   OH239632   5.481   5.717  14.024 -0.5551  0.3633  0.3141
 5146TIP3    H139633   5.412   5.684  14.082 -0.2661  0.0169  0.4622
 5146TIP3    H239634   5.478   5.812  14.036 -1.9252  0.4802 -0.7086
 5147TIP3   OH239635   2.916   3.791  13.768  0.1496 -0.0081  0.1632
 5147TIP3    H139636   2.869   3.709  13.781 -0.9876  0.6831  0.5771
 5147TIP3    H239637   3.005   3.773  13.797 -0.4435 -0.6888  1.6541
 5148TIP3   OH239638   6.499   3.295  15.431 -0.0643  0.1225  0.5074
 5148TIP3    H139639   6.474   3.385  15.451  0.0569 -0.1165  1.8430
 5148TIP3    H239640   6.437   3.242  15.481 -0.2343 -0.5573 -0.3871
 5149TIP3   OH239641   5.293   6.505  16.825 -0.0146 -0.9116  0.0486
 5149TIP3    H139642   5.384   6.533  16.818 -0.1928 -0.4920 -0.7079
 5149TIP3    H239643   5.269   6.525  16.915 -0.1032  1.3660 -0.4206
 5150TIP3   OH239644   0.226   4.994  16.760 -0.6586 -0.2128  0.5197
 5150TIP3    H139645   0.184   4.909  16.773 -1.3713 -0.0418 -0.5574
 5150TIP3    H239646   0.154   5.054  16.741  0.0301  0.0530 -1.5468
 5151TIP3   OH239647   5.327   4.468  16.611  0.5736 -0.1736  0.1846
 5151TIP3    H139648   5.236   4.473  16.641 -0.1751 -0.5025 -1.8455
 5151TIP3    H239649   5.361   4.557  16.622 -0.8656  0.6408 -1.4551
 5152TIP3   OH239650   0.529   0.068  16.581 -0.0844  0.1499 -0.2846
 5152TIP3    H139651   0.623   0.085  16.582 -0.3873  1.9961 -0.5039
 5152TIP3    H239652   0.522  -0.028  16.583  1.7713 -0.0129  0.6284
 5153TIP3   OH239653   3.263   2.888  14.147 -0.6620  0.6011 -0.9490
 5153TIP3    H139654   3.261   2.793  14.134  0.0607  0.5888 -1.0237
 5153TIP3    H239655   3.353   2.913  14.125 -0.1302  0.9596  1.3024
 5154TIP3   OH239656   2.902   3.371  15.551  0.7626  0.1953  0.2179
 5154TIP3    H139657   2.899   3.401  15.642 -1.6104 -1.2186  0.6867
 5154TIP3    H239658   2.960   3.295  15.552 -1.6658 -1.8012  1.3219
 5155TIP3   OH239659   3.419   6.413  15.559  0.1771 -0.2139  0.0200
 5155TIP3    H139660   3.361   6.365  15.617 -0.2378  0.6993  0.3902
 5155TIP3    H239661   3.412   6.504  15.588  0.4468  0.1739 -1.0574
 5156TIP3   OH239662   0.552   1.244  15.131  0.1610  0.6807 -0.5232
 5156TIP3    H139663   0.515   1.259  15.219  0.6359 -3.2626  0.5554
 5156TIP3    H239664   0.475   1.236  15.074 -0.4584 -0.8461  0.4349
 5157TIP3   OH239665   3.932   2.395  14.950 -0.3974  0.4497 -0.0008
 5157TIP3    H139666   3.978   2.313  14.970 -0.1083 -0.1104 -2.5426
 5157TIP3    H239667   3.843   2.368  14.928 -0.7485  1.0173  0.7114
 5158TIP3   OH239668   2.620   5.602  14.801  0.1430  0.4318  0.6774
 5158TIP3    H139669   2.714   5.614  14.787  0.4761  0.4619  2.5555
 5158TIP3    H239670   2.615   5.524  14.857 -1.0250 -0.1233 -0.1907
 5159TIP3   OH239671   4.344   3.965  16.004  0.7775 -0.0829 -0.2861
 5159TIP3    H139672   4.317   4.000  16.089  0.9580 -0.1675 -0.1950
 5159TIP3    H239673   4.342   4.041  15.946  1.0815  0.0631 -0.1084
 5160TIP3   OH239674   4.521   5.774  16.584 -0.5857  0.2732 -0.4095
 5160TIP3    H139675   4.463   5.850  16.578  0.8245  1.3189 -1.3587
 5160TIP3    H239676   4.606   5.807  16.557 -0.1094 -1.8396 -1.6811
 5161TIP3   OH239677   4.049   5.445  14.464  0.2737  0.2316  0.3299
 5161TIP3    H139678   4.060   5.532  14.426 -0.6334 -0.0079 -0.5454
 5161TIP3    H239679   4.025   5.389  14.389 -1.4344 -0.2862  1.1993
 5162TIP3   OH239680   4.906   3.360  14.931  0.0876 -0.4313 -0.0942
 5162TIP3    H139681   4.874   3.330  14.845  0.0753 -1.2390  0.1870
 5162TIP3    H239682   4.845   3.322  14.994  0.8354 -0.8962  0.3603
 5163TIP3   OH239683   5.006   2.296  16.838 -0.2477  0.2468 -0.6449
 5163TIP3    H139684   5.001   2.210  16.798  1.4621 -0.4989  0.5977
 5163TIP3    H239685   4.936   2.298  16.903  1.6108 -1.5469  1.5875
 5164TIP3   OH239686   1.340   1.256  16.049 -0.1893 -0.0757  0.0504
 5164TIP3    H139687   1.340   1.171  16.005 -1.3479  0.3632 -0.8375
 5164TIP3    H239688   1.426   1.261  16.092  0.2275 -1.3187 -0.6040
 5165TIP3   OH239689   2.620   5.811  15.766  0.4583 -0.1923 -0.2499
 5165TIP3    H139690   2.528   5.796  15.745  0.4511  0.0061 -0.3643
 5165TIP3    H239691   2.639   5.749  15.837 -0.0665  0.5146  0.5351
 5166TIP3   OH239692   5.604   3.003  16.650 -0.3101 -0.4789  0.0810
 5166TIP3    H139693   5.537   2.972  16.589 -0.4815 -0.2577  0.1580
 5166TIP3    H239694   5.643   2.923  16.684  0.6851 -0.6261 -1.2969
 5167TIP3   OH239695   2.243   6.704  15.786  0.0565 -0.1124  0.3825
 5167TIP3    H139696   2.203   6.744  15.863  0.2625  0.3464  0.2529
 5167TIP3    H239697   2.321   6.660  15.819 -1.0921 -1.9405  0.8202
 5168TIP3   OH239698   1.717   1.449  14.662 -0.4893  0.0202 -0.3112
 5168TIP3    H139699   1.721   1.355  14.678 -0.3707 -0.1017 -1.0422
 5168TIP3    H239700   1.624   1.469  14.659 -0.5230 -0.2330 -1.0596
 5169TIP3   OH239701   0.364   3.107  14.403 -0.6659  0.0779 -0.1488
 5169TIP3    H139702   0.377   3.148  14.489 -0.3505 -1.3661  0.5250
 5169TIP3    H239703   0.453   3.091  14.371 -0.7862  0.1219 -0.5058
 5170TIP3   OH239704   2.321   2.298  14.241  0.1937 -0.1733 -0.1328
 5170TIP3    H139705   2.256   2.307  14.310 -0.9616  0.1060 -1.2316
 5170TIP3    H239706   2.398   2.345  14.274 -0.6208  0.6695  0.6022
 5171TIP3   OH239707   1.757   5.959  14.239  0.4781  0.1026  0.1169
 5171TIP3    H139708   1.787   5.875  14.272 -1.2681 -0.5569  0.1447
 5171TIP3    H239709   1.817   5.979  14.167  1.1835 -0.9428  0.3877
 5172TIP3   OH239710   0.027   3.256  15.407 -0.2819  0.1183  0.2200
 5172TIP3    H139711  -0.049   3.217  15.365  1.1897 -0.1880 -2.3369
 5172TIP3    H239712   0.069   3.184  15.453 -1.1097  0.1521  1.0727
 5173TIP3   OH239713   1.090   3.152  16.221  0.3175 -0.2869  0.2161
 5173TIP3    H139714   1.104   3.234  16.173 -0.8126 -0.8679 -1.1714
 5173TIP3    H239715   1.002   3.124  16.196  0.3950 -1.5577  1.2446
 5174TIP3   OH239716   2.025   0.749  16.501  0.0462 -0.6771  0.2617
 5174TIP3    H139717   2.067   0.684  16.558  0.4537 -0.7326 -0.0946
 5174TIP3    H239718   1.959   0.700  16.452 -0.5942 -0.5464  0.9834
 5175TIP3   OH239719   1.027   3.219  14.005 -0.0892  0.3722  0.6606
 5175TIP3    H139720   1.067   3.133  13.991 -0.3200  0.4401 -0.4965
 5175TIP3    H239721   1.086   3.280  13.961 -0.2700  0.7355  0.9187
 5176TIP3   OH239722   4.747   2.393  14.041  0.2022 -0.0662 -0.4596
 5176TIP3    H139723   4.773   2.359  13.955  0.3272  0.2669 -0.5538
 5176TIP3    H239724   4.829   2.393  14.092  0.2361  0.2399 -0.5101
 5177TIP3   OH239725   4.101   4.703  16.764  0.5938  0.5329 -0.1609
 5177TIP3    H139726   4.141   4.734  16.682  0.3003  0.9979 -0.1327
 5177TIP3    H239727   4.097   4.782  16.819  1.5860  0.0600  0.6340
 5178TIP3   OH239728   0.766   1.722  13.996 -0.1559  0.0095  0.7408
 5178TIP3    H139729   0.748   1.632  14.023 -2.0681  0.4522  1.1114
 5178TIP3    H239730   0.820   1.714  13.917 -1.7810 -1.5263 -0.2771
 5179TIP3   OH239731   5.762   6.478  16.591  0.5562  0.1730 -0.3371
 5179TIP3    H139732   5.806   6.445  16.669  2.1960  0.1974 -1.1876
 5179TIP3    H239733   5.796   6.423  16.520 -0.8376  0.1915 -1.0480
 5180TIP3   OH239734   6.161   0.171  16.914  0.5676  0.8047  0.1535
 5180TIP3    H139735   6.074   0.210  16.913 -0.1530 -0.7125  0.6881
 5180TIP3    H239736   6.154   0.095  16.855  1.4396  0.5054  0.4161
 5181TIP3   OH239737   2.857   5.335  14.566  0.0418 -0.8572  0.2591
 5181TIP3    H139738   2.867   5.303  14.476 -0.9237 -0.7799  0.1178
 5181TIP3    H239739   2.764   5.329  14.584 -0.1102  1.2314  0.4585
 5182TIP3   OH239740   0.456   2.533  15.391 -0.0822  0.8298 -0.4660
 5182TIP3    H139741   0.539   2.509  15.433 -0.2570  0.3245 -0.3945
 5182TIP3    H239742   0.416   2.597  15.450 -0.1213  0.4568 -0.0779
 5183TIP3   OH239743   3.637   3.735  15.536  0.2954  0.8369  0.0486
 5183TIP3    H139744   3.567   3.720  15.473 -1.6516  0.5040  2.1389
 5183TIP3    H239745   3.681   3.814  15.505 -1.5318  1.5222 -0.9498
 5184TIP3   OH239746   2.082   1.419  15.106 -0.0042 -0.6149  0.6162
 5184TIP3    H139747   2.042   1.480  15.168  2.6762  3.6954 -1.3848
 5184TIP3    H239748   2.167   1.397  15.144  1.0320  0.8744 -0.6822
 5185TIP3   OH239749   4.711   1.304  13.713  0.1119 -0.6790 -0.3915
 5185TIP3    H139750   4.756   1.327  13.632  2.7953  0.8080  1.3488
 5185TIP3    H239751   4.625   1.345  13.706  0.9354  0.9166 -1.7954
 5186TIP3   OH239752   0.344   3.688  14.937  0.6953 -0.6816 -0.4882
 5186TIP3    H139753   0.333   3.764  14.880 -0.0806 -0.7748 -0.4625
 5186TIP3    H239754   0.256   3.654  14.949  0.5155  0.5774  2.5027
 5187TIP3   OH239755   2.656   1.292  14.151 -0.2954  0.2027  0.0004
 5187TIP3    H139756   2.564   1.316  14.145 -0.2800  0.7883  1.6265
 5187TIP3    H239757   2.665   1.250  14.236  0.5760 -1.6779 -0.9746
 5188TIP3   OH239758   3.093   2.694  17.212  0.1482 -0.0728 -0.4218
 5188TIP3    H139759   3.137   2.771  17.248  0.9291 -0.2328 -1.0220
 5188TIP3    H239760   3.140   2.675  17.131  1.0793 -2.2048  0.5417
 5189TIP3   OH239761   0.237   0.577  14.823 -0.6105  0.2357  0.1428
 5189TIP3    H139762   0.329   0.572  14.798 -0.7366 -1.2606 -0.1285
 5189TIP3    H239763   0.235   0.636  14.898  0.4571  0.9068 -0.3464
 5190TIP3   OH239764   4.325   5.691  16.317  0.2866 -0.0342 -0.7170
 5190TIP3    H139765   4.273   5.658  16.244  0.8046  1.0552 -1.5967
 5190TIP3    H239766   4.262   5.698  16.390 -0.3734 -0.5171 -1.2345
 5191TIP3   OH239767   0.980   5.790  16.947 -0.1665 -0.2087  0.0564
 5191TIP3    H139768   0.912   5.778  17.013 -0.7024  0.6759 -0.3262
 5191TIP3    H239769   0.946   5.749  16.868  0.3894 -1.0865  0.2557
 5192TIP3   OH239770   5.509   0.732  16.340 -0.4192 -0.0234 -0.4841
 5192TIP3    H139771   5.555   0.686  16.270 -1.0642  1.5484 -2.0117
 5192TIP3    H239772   5.518   0.825  16.317 -2.4963  0.4199  0.3303
 5193TIP3   OH239773   3.377   5.405  16.346 -0.4465 -0.3191  0.1897
 5193TIP3    H139774   3.472   5.415  16.341 -0.5369  0.3070 -0.5324
 5193TIP3    H239775   3.360   5.320  16.305 -0.2248 -0.2419 -0.0688
 5194TIP3   OH239776   4.863   6.181  15.413 -0.2426  0.1291  0.1707
 5194TIP3    H139777   4.862   6.096  15.456 -0.7324  0.3811  0.6654
 5194TIP3    H239778   4.801   6.173  15.340  1.0388 -0.4914 -0.9084
 5195TIP3   OH239779   1.406   0.707  14.819  0.2869  0.3757 -0.0239
 5195TIP3    H139780   1.340   0.639  14.816  0.7671 -0.2825  2.4325
 5195TIP3    H239781   1.430   0.722  14.727 -1.9566 -0.6017 -0.8249
 5196TIP3   OH239782   5.371   6.436  15.566  0.0302  0.3486 -0.2617
 5196TIP3    H139783   5.458   6.419  15.529 -0.5694 -0.1619 -1.4881
 5196TIP3    H239784   5.356   6.363  15.626  0.7017  0.7791  0.4513
 5197TIP3   OH239785   3.013   1.947  16.269 -0.6682  0.2731 -0.4075
 5197TIP3    H139786   3.001   2.035  16.233  0.2729  0.0221 -1.3870
 5197TIP3    H239787   2.967   1.890  16.207  1.3690 -0.2134 -1.5563
 5198TIP3   OH239788   3.418   2.229  14.409 -0.0697  0.6204  0.3163
 5198TIP3    H139789   3.375   2.212  14.493 -0.6450  0.2213 -0.0467
 5198TIP3    H239790   3.509   2.205  14.423 -0.3626 -0.4271  0.5454
 5199TIP3   OH239791   5.690   3.714  16.130 -0.1504  0.2809 -0.7115
 5199TIP3    H139792   5.776   3.740  16.096 -0.7297 -0.7127 -3.1512
 5199TIP3    H239793   5.634   3.708  16.053 -2.6332  1.4387  0.8441
 5200TIP3   OH239794   5.447   5.317  15.634  0.3728 -0.4337  0.0205
 5200TIP3    H139795   5.434   5.279  15.721  0.5188  0.4100  0.4200
 5200TIP3    H239796   5.469   5.242  15.579 -2.2542 -1.3916  0.1145
 5201TIP3   OH239797   2.136   6.708  13.363 -0.5277  0.3431  0.6373
 5201TIP3    H139798   2.133   6.784  13.305 -1.2302 -0.8404 -0.9340
 5201TIP3    H239799   2.052   6.710  13.409 -0.3674  0.7424  0.9216
 5202TIP3   OH239800   4.442   1.431  13.841  0.1680  0.9183  0.2694
 5202TIP3    H139801   4.383   1.471  13.905  1.7882 -0.0071  2.4895
 5202TIP3    H239802   4.427   1.337  13.851  0.0568  0.7635 -1.1596
 5203TIP3   OH239803   4.865   5.870  16.874  0.0128  0.2291  0.0980
 5203TIP3    H139804   4.923   5.938  16.906  1.6115 -1.0737  0.1303
 5203TIP3    H239805   4.786   5.916  16.845  0.5158  1.9145  1.3100
 5204TIP3   OH239806   2.961   2.777  13.814 -0.1082 -0.6200 -0.1107
 5204TIP3    H139807   2.949   2.688  13.846  2.2670 -0.7960  0.4368
 5204TIP3    H239808   3.056   2.788  13.807 -0.2835  2.1416  0.6539
 5205TIP3   OH239809   6.398   2.877  14.601  0.1420 -0.1770  0.0108
 5205TIP3    H139810   6.460   2.805  14.615 -0.5804 -1.1647 -1.5762
 5205TIP3    H239811   6.375   2.905  14.689  0.4500 -1.9053  0.6987
 5206TIP3   OH239812   3.587   0.257  15.224 -0.4364 -0.1639 -0.1433
 5206TIP3    H139813   3.585   0.162  15.237  2.4696 -0.2905 -0.0986
 5206TIP3    H239814   3.559   0.269  15.134 -0.2531 -1.1219 -0.3464
 5207TIP3   OH239815   5.741   0.681  13.356 -0.0591  0.0818 -0.3374
 5207TIP3    H139816   5.646   0.694  13.353 -0.1068  0.3957  1.5464
 5207TIP3    H239817   5.775   0.741  13.290 -1.0952  0.8909 -0.1646
 5208TIP3   OH239818   3.593   3.159  14.506  0.0862  0.1620 -0.0719
 5208TIP3    H139819   3.652   3.158  14.581 -0.9670 -0.7746  0.7867
 5208TIP3    H239820   3.601   3.071  14.469 -1.3166 -0.2504  0.5376
 5209TIP3   OH239821   3.450   2.383  15.056  0.2924 -0.5198 -0.2688
 5209TIP3    H139822   3.455   2.378  15.152  1.1190  0.8406 -0.2041
 5209TIP3    H239823   3.366   2.344  15.034  0.8681 -2.5067  0.8563
 5210TIP3   OH239824   2.109   6.176  16.727  0.0128 -0.3207  0.1378
 5210TIP3    H139825   2.078   6.153  16.814 -0.0373 -0.4841  0.0776
 5210TIP3    H239826   2.031   6.172  16.672  0.1199 -0.6328  0.0061
 5211TIP3   OH239827   4.647   0.911  14.407 -0.5316 -0.3247  0.0393
 5211TIP3    H139828   4.593   0.982  14.440 -2.6101 -2.1302  0.7890
 5211TIP3    H239829   4.677   0.941  14.321  0.3779  2.2218  1.1823
 5212TIP3   OH239830   5.596   0.268  15.460  0.5103  0.3619 -0.5126
 5212TIP3    H139831   5.568   0.297  15.373 -0.9302 -0.8821 -0.5088
 5212TIP3    H239832   5.516   0.265  15.512  0.7805 -1.9476 -0.0834
 5213TIP3   OH239833   3.726   5.570  14.579  0.0376  0.0343  0.3144
 5213TIP3    H139834   3.819   5.590  14.571  0.2925 -1.4418 -0.7834
 5213TIP3    H239835   3.692   5.635  14.641  1.6539  0.9985  0.2146
 5214TIP3   OH239836   4.831   3.160  15.127  0.0802 -0.0782 -0.0540
 5214TIP3    H139837   4.826   3.065  15.138  1.5101 -0.0632  1.0239
 5214TIP3    H239838   4.912   3.185  15.171 -0.0149  1.5933 -0.7452
 5215TIP3   OH239839   0.403   0.319  16.663  0.7478  0.1453  0.1911
 5215TIP3    H139840   0.434   0.235  16.628 -1.6560 -0.9952  0.5503
 5215TIP3    H239841   0.334   0.294  16.724  1.0110  2.3630  1.4600
 5216TIP3   OH239842   1.621   3.536  14.791 -0.1506  0.5550  0.2855
 5216TIP3    H139843   1.545   3.527  14.848 -0.8840 -1.8016 -0.9524
 5216TIP3    H239844   1.654   3.625  14.808 -2.5061  1.2381  1.6281
 5217TIP3   OH239845   4.210   2.823  14.269 -0.1179 -0.5563  0.0358
 5217TIP3    H139846   4.118   2.844  14.250 -0.3506 -2.6218 -1.3739
 5217TIP3    H239847   4.250   2.809  14.184  1.1951 -0.9749  0.6978
 5218TIP3   OH239848   6.072   2.162  16.082  0.6460 -0.1123  0.0685
 5218TIP3    H139849   5.993   2.134  16.127  0.2864  2.0531  0.8546
 5218TIP3    H239850   6.133   2.187  16.152  0.6508  1.7838 -0.5605
 5219TIP3   OH239851   1.186   2.764  14.615  0.4006 -0.6465  0.2490
 5219TIP3    H139852   1.262   2.710  14.594 -0.0013 -0.7659 -0.9426
 5219TIP3    H239853   1.111   2.709  14.594 -0.0730 -0.9940  2.5623
 5220TIP3   OH239854   1.751   0.920  16.713 -0.0067  0.1848 -0.1497
 5220TIP3    H139855   1.689   0.936  16.641 -1.5430  0.4157  1.1543
 5220TIP3    H239856   1.821   0.984  16.699 -0.1731  0.0937 -1.5392
 5221TIP3   OH239857   1.223   5.655  16.986 -0.3197  0.1729  0.6219
 5221TIP3    H139858   1.199   5.580  17.041  0.5184  0.7002  1.7304
 5221TIP3    H239859   1.149   5.715  16.992 -1.0240 -0.5619 -0.3209
 5222TIP3   OH239860   2.024   4.689  14.265  0.1516 -0.2414 -0.7435
 5222TIP3    H139861   2.116   4.691  14.292 -0.2666  0.5187  0.7402
 5222TIP3    H239862   1.988   4.772  14.296 -1.1252 -0.6724 -1.0014
 5223TIP3   OH239863   0.200   5.217  15.686  0.5230  0.0814 -0.2584
 5223TIP3    H139864   0.243   5.191  15.768  1.8442  0.5651 -0.7783
 5223TIP3    H239865   0.190   5.136  15.637 -0.8049 -0.3056  0.5966
 5224TIP3   OH239866   0.815   0.123  13.343 -0.0506 -0.0020  0.1626
 5224TIP3    H139867   0.787   0.032  13.350 -0.8500  0.1167 -1.2133
 5224TIP3    H239868   0.753   0.171  13.399 -1.1611 -0.0319 -1.0025
 5225TIP3   OH239869   0.513   6.374  14.914  0.1148  0.0872 -0.3621
 5225TIP3    H139870   0.508   6.311  14.842  1.4147 -0.3744 -0.0737
 5225TIP3    H239871   0.607   6.385  14.930 -0.1122  1.3481  0.2641
 5226TIP3   OH239872   5.640   3.686  14.434 -0.2114  0.1251 -0.3660
 5226TIP3    H139873   5.602   3.598  14.440 -0.9191  0.4302 -0.2713
 5226TIP3    H239874   5.588   3.730  14.367  0.5146  0.2946 -0.8286
 5227TIP3   OH239875   0.505   4.033  14.959 -0.0147  0.4501  0.3552
 5227TIP3    H139876   0.496   3.963  15.024  0.7826 -0.3142 -0.3274
 5227TIP3    H239877   0.450   4.005  14.886  0.3552  0.5103  0.0529
 5228TIP3   OH239878   4.099   0.301  15.864  0.5162 -0.0741 -0.2269
 5228TIP3    H139879   4.187   0.321  15.830  0.6823  2.0716  1.2900
 5228TIP3    H239880   4.042   0.307  15.788  1.3914  0.7553 -0.8453
 5229TIP3   OH239881   0.092   6.421  15.350  0.0446 -0.5528  0.0623
 5229TIP3    H139882   0.140   6.345  15.318 -0.4993 -0.5775 -0.7517
 5229TIP3    H239883   0.139   6.496  15.314 -0.5025 -0.5769 -0.7305
 5230TIP3   OH239884   1.881   0.183  13.795  0.0756 -0.0606  0.2486
 5230TIP3    H139885   1.965   0.162  13.835  0.9122  1.9141 -0.3420
 5230TIP3    H239886   1.841   0.246  13.855 -1.4811 -1.7221  1.0345
 5231TIP3   OH239887   2.553   2.875  15.985  0.4621  0.0427 -0.1631
 5231TIP3    H139888   2.556   2.958  15.937 -2.6978  0.9805  1.0230
 5231TIP3    H239889   2.575   2.899  16.075  1.2201 -0.7455 -0.1308
 5232TIP3   OH239890   4.901   5.233  14.893  0.0043 -0.3117  0.0318
 5232TIP3    H139891   4.973   5.249  14.955  1.4992 -0.5437 -1.5451
 5232TIP3    H239892   4.917   5.145  14.860 -0.6710 -0.1406 -0.7803
 5233TIP3   OH239893   0.026   5.758  17.254 -0.2214 -0.0534 -0.0599
 5233TIP3    H139894   0.078   5.714  17.321 -0.3632  0.2415  0.2426
 5233TIP3    H239895   0.010   5.846  17.288 -0.7813 -0.0878 -0.2174
 5234TIP3   OH239896   1.150   3.541  15.635 -0.1943  0.4271 -0.0998
 5234TIP3    H139897   1.155   3.448  15.658  0.9051  0.2137 -1.1308
 5234TIP3    H239898   1.223   3.582  15.681 -0.4779  0.7351  0.0854
 5235TIP3   OH239899   0.623   4.231  13.816 -0.8085 -0.0734  0.1680
 5235TIP3    H139900   0.583   4.304  13.863 -1.5283  1.0532 -2.0424
 5235TIP3    H239901   0.583   4.233  13.729  1.7147 -0.9258 -1.1210
 5236TIP3   OH239902   1.192   6.733  16.575 -0.3867  0.2903 -0.2909
 5236TIP3    H139903   1.134   6.685  16.515 -1.8899  0.3930  1.0298
 5236TIP3    H239904   1.189   6.682  16.656  2.5704 -0.5318 -0.5824
 5237TIP3   OH239905   5.943   3.422  14.610  0.1416  0.8406  0.0280
 5237TIP3    H139906   5.850   3.402  14.623 -0.0713  1.2215 -0.8350
 5237TIP3    H239907   5.944   3.483  14.537  0.8118  3.4847  2.0862
 5238TIP3   OH239908   2.143   6.123  15.713  0.3230  0.4383 -0.1283
 5238TIP3    H139909   2.149   6.044  15.768  0.3273  1.4930  1.4587
 5238TIP3    H239910   2.103   6.189  15.770 -0.0816  1.4840 -1.5535
 5239TIP3   OH239911   6.137   6.096  14.483 -0.3892 -0.2732 -0.1398
 5239TIP3    H139912   6.109   6.044  14.408 -0.5937 -0.5352  0.1125
 5239TIP3    H239913   6.147   6.185  14.449 -0.3141 -0.4231 -0.5125
 5240TIP3   OH239914   2.115   0.792  13.965  0.0121  0.3957 -0.0396
 5240TIP3    H139915   2.087   0.882  13.981 -0.5757  0.2982 -0.4856
 5240TIP3    H239916   2.141   0.790  13.873 -2.1738 -0.4068 -0.7225
 5241TIP3   OH239917   1.666   5.010  16.726 -0.2723  0.1713  0.3714
 5241TIP3    H139918   1.723   4.940  16.757 -1.3961 -1.0302 -0.1761
 5241TIP3    H239919   1.597   4.965  16.677 -1.6915  1.5673  0.9913
 5242TIP3   OH239920   4.331   1.352  15.822  0.1560  0.0286 -0.1306
 5242TIP3    H139921   4.309   1.353  15.915 -0.4840  0.0160 -0.2795
 5242TIP3    H239922   4.316   1.261  15.795 -0.3517  0.1897 -0.4046
 5243TIP3   OH239923   4.896   2.731  13.566  0.0263 -0.2014  0.4836
 5243TIP3    H139924   4.864   2.643  13.582 -0.8287  0.4674  2.7825
 5243TIP3    H239925   4.971   2.740  13.625 -1.0383  1.1902  1.6921
 5244TIP3   OH239926   3.614   4.186  15.973  0.4419  0.4289 -0.2300
 5244TIP3    H139927   3.561   4.250  15.925  0.3621 -0.1251 -0.8948
 5244TIP3    H239928   3.639   4.231  16.053 -0.0908  1.0952 -0.4291
 5245TIP3   OH239929   4.567   2.759  15.593 -0.5706 -0.2160 -0.0906
 5245TIP3    H139930   4.477   2.782  15.570 -0.6044  0.9358  1.0692
 5245TIP3    H239931   4.559   2.717  15.679 -0.0174 -0.3568 -0.1057
 5246TIP3   OH239932   6.678   6.217  16.885 -0.2622  0.4707  0.1598
 5246TIP3    H139933   6.601   6.254  16.842 -0.3127 -1.0163 -1.1665
 5246TIP3    H239934   6.748   6.226  16.820  0.5348  1.2482  1.1103
 5247TIP3   OH239935   0.292   1.327  16.253  0.1336 -0.1125  0.1011
 5247TIP3    H139936   0.374   1.321  16.303  0.9144  3.2500 -0.5595
 5247TIP3    H239937   0.223   1.320  16.319  0.8853 -2.4801  0.7305
 5248TIP3   OH239938   0.276   1.229  13.858  0.4132 -0.2150 -0.9347
 5248TIP3    H139939   0.230   1.259  13.780 -0.6208  1.2082  0.1643
 5248TIP3    H239940   0.236   1.278  13.930  3.2518  0.6294  0.1956
 5249TIP3   OH239941   0.280   0.695  15.063  0.3422  0.2875 -0.4153
 5249TIP3    H139942   0.348   0.628  15.053 -1.0351 -1.4477  1.0504
 5249TIP3    H239943   0.269   0.704  15.158 -1.4892  0.4780 -0.6170
 5250TIP3   OH239944   4.914   3.748  16.690 -0.2038  0.0443 -0.6205
 5250TIP3    H139945   4.844   3.812  16.676 -0.3546  0.0152 -0.0346
 5250TIP3    H239946   4.946   3.728  16.602  0.2437  1.3535 -0.7806
 5251TIP3   OH239947   6.286   0.373  16.536 -0.5814  0.6618  0.4695
 5251TIP3    H139948   6.197   0.338  16.537 -0.0151 -0.9242 -0.4459
 5251TIP3    H239949   6.332   0.321  16.470  1.8319 -0.6406  2.9679
 5252TIP3   OH239950   3.978   3.873  15.817  0.2016  0.5930  0.5378
 5252TIP3    H139951   4.048   3.850  15.879  0.3510 -0.4733  0.0081
 5252TIP3    H239952   3.900   3.881  15.871  0.0126 -1.8670  0.7324
 5253TIP3   OH239953   0.920   4.984  16.223 -0.0306 -0.0712  0.0921
 5253TIP3    H139954   0.898   5.047  16.154 -0.3637 -0.0752  0.1925
 5253TIP3    H239955   0.947   5.038  16.297 -0.8423 -0.0226  0.3606
 5254TIP3   OH239956   5.653   3.806  16.372 -0.2458  0.5732 -0.3006
 5254TIP3    H139957   5.621   3.894  16.351  0.1627  0.9014  0.4013
 5254TIP3    H239958   5.680   3.770  16.288 -2.4405  0.2609 -0.9425
 5255TIP3   OH239959   6.167   3.513  14.929 -0.0628 -0.6337 -0.6098
 5255TIP3    H139960   6.179   3.559  15.012  1.3026 -0.3593 -0.9352
 5255TIP3    H239961   6.137   3.581  14.868 -0.0768 -0.6115 -0.5779
 5256TIP3   OH239962   2.312   4.491  16.957  0.4240 -0.4399 -0.1937
 5256TIP3    H139963   2.262   4.571  16.975  1.2690  0.1886 -0.5901
 5256TIP3    H239964   2.309   4.482  16.862  0.6887 -0.6471 -0.1831
 5257TIP3   OH239965   4.443   2.525  15.960 -0.3792  0.2514  0.1234
 5257TIP3    H139966   4.353   2.550  15.978 -0.9336 -1.8851  0.5545
 5257TIP3    H239967   4.466   2.463  16.029  1.7113  1.3057  0.4732
 5258TIP3   OH239968   5.053   0.977  14.758 -0.1980  0.4199 -0.1441
 5258TIP3    H139969   5.114   1.044  14.728  0.4611  0.1186  0.4836
 5258TIP3    H239970   5.038   0.998  14.850 -0.8480  0.3449 -0.2310
 5259TIP3   OH239971   0.363   0.721  16.727 -0.1923 -0.3067 -0.5634
 5259TIP3    H139972   0.363   0.808  16.767 -0.4036  0.0719 -1.3641
 5259TIP3    H239973   0.455   0.699  16.719 -0.1463 -0.3638  0.0746
 5260TIP3   OH239974   5.213   2.138  16.692  0.2437  0.2168 -0.5166
 5260TIP3    H139975   5.130   2.106  16.656  0.7913  0.6610 -2.2626
 5260TIP3    H239976   5.220   2.096  16.778 -2.1052  0.7112 -0.0277
 5261TIP3   OH239977   0.415   1.615  16.482 -0.1287  0.0915  0.1764
 5261TIP3    H139978   0.432   1.576  16.397 -0.9650 -1.2223  0.5775
 5261TIP3    H239979   0.362   1.550  16.528  1.4849  0.1154  2.2207
 5262TIP3   OH239980   1.463   2.659  14.321  0.2955 -0.3220  0.6107
 5262TIP3    H139981   1.382   2.621  14.286  0.0057  0.2315  0.6766
 5262TIP3    H239982   1.524   2.585  14.324  0.8986 -0.1019 -2.6231
 5263TIP3   OH239983   2.351   1.095  14.612  0.2484  0.0528  0.2487
 5263TIP3    H139984   2.265   1.124  14.580 -1.2097 -2.6516  1.3697
 5263TIP3    H239985   2.402   1.080  14.532 -0.7347  0.5425 -0.4989
 5264TIP3   OH239986   0.133   1.167  14.809  0.0274  0.5526 -0.3169
 5264TIP3    H139987   0.135   1.167  14.713  1.2759 -0.5558 -0.3256
 5264TIP3    H239988   0.101   1.080  14.832  0.9858  0.3300  0.2486
 5265TIP3   OH239989   1.572   0.786  15.353  0.7082 -0.0198 -0.0487
 5265TIP3    H139990   1.552   0.782  15.446  0.5847  0.2088 -0.0641
 5265TIP3    H239991   1.509   0.727  15.312 -1.0614  1.8948 -0.2704
 5266TIP3   OH239992   1.459   1.945  16.764  0.1851 -0.3462  0.3732
 5266TIP3    H139993   1.422   2.021  16.808 -1.5069  0.3354 -2.0174
 5266TIP3    H239994   1.526   1.981  16.706 -1.2765 -0.4449 -1.4794
 5267TIP3   OH239995   2.976   3.820  14.439 -0.2934  1.0272  0.1967
 5267TIP3    H139996   3.063   3.848  14.469 -0.0561  0.5271 -0.0023
 5267TIP3    H239997   2.915   3.856  14.504  0.0600  1.4109  0.3187
 5268TIP3   OH239998   1.766   5.269  15.724  0.7086  0.2338 -0.0261
 5268TIP3    H139999   1.821   5.334  15.679  0.6178 -0.7956 -1.7303
 5268TIP3    H240000   1.791   5.185  15.684  0.3157 -0.7071  1.6062
 5269TIP3   OH240001   3.420   3.518  14.723 -0.0595  0.2888 -0.4078
 5269TIP3    H140002   3.424   3.474  14.638 -0.8632  1.7157 -1.2151
 5269TIP3    H240003   3.336   3.563  14.723  0.6767  1.7216  0.4412
 5270TIP3   OH240004   2.077   3.544  15.936 -0.9714  0.2614  0.3268
 5270TIP3    H140005   1.990   3.507  15.928 -1.4892  1.1966  1.3103
 5270TIP3    H240006   2.109   3.551  15.846 -1.5096 -0.9727  0.0240
 5271TIP3   OH240007   0.692   4.942  15.699 -0.3800  0.0898  0.3394
 5271TIP3    H140008   0.620   4.945  15.636 -0.3348  1.0077  0.3212
 5271TIP3    H240009   0.716   4.849  15.703 -1.5240 -0.2201  0.3126
 5272TIP3   OH240010   0.827   2.667  14.043 -0.2908  0.6728 -0.4635
 5272TIP3    H140011   0.760   2.640  13.980  0.5163  1.6376 -1.7850
 5272TIP3    H240012   0.902   2.612  14.024 -0.3654  0.2591  0.3765
 5273TIP3   OH240013   2.283   4.752  14.311 -0.1809  0.0716  0.0349
 5273TIP3    H140014   2.373   4.731  14.285 -0.1630  0.7198 -0.4370
 5273TIP3    H240015   2.292   4.825  14.372 -0.3579 -0.2150  0.4125
 5274TIP3   OH240016   4.514   4.189  16.460  0.0618  0.6075 -0.1640
 5274TIP3    H140017   4.474   4.265  16.415  1.1453  1.6831  0.6327
 5274TIP3    H240018   4.468   4.184  16.544 -0.1889  0.2006 -0.3209
 5275TIP3   OH240019   0.562   1.549  13.805  0.5298  0.0510  0.1775
 5275TIP3    H140020   0.499   1.558  13.878  1.2507  0.3400  0.7773
 5275TIP3    H240021   0.539   1.621  13.746 -0.3370 -0.4438 -0.0992
 5276TIP3   OH240022   0.961   3.527  15.297 -0.2590 -0.1960 -0.0052
 5276TIP3    H140023   0.948   3.544  15.204 -0.2290  0.4713  0.1126
 5276TIP3    H240024   0.936   3.435  15.308  1.9074 -0.9976 -1.0973
 5277TIP3   OH240025   5.670   3.254  15.958 -0.2457 -0.3884 -0.0596
 5277TIP3    H140026   5.616   3.307  16.016 -0.5012 -0.2353 -0.4310
 5277TIP3    H240027   5.740   3.220  16.013  0.2396  0.7739  0.0598
 5278TIP3   OH240028   3.387   1.426  15.354  0.0401 -0.2825  0.3731
 5278TIP3    H140029   3.441   1.394  15.427  1.7272 -0.2373 -0.8114
 5278TIP3    H240030   3.406   1.366  15.282 -0.9670  0.1742 -0.2989
 5279TIP3   OH240031   3.333   0.815  16.234 -0.0531 -0.6000 -0.0402
 5279TIP3    H140032   3.332   0.841  16.141 -0.4519 -0.5426 -0.0223
 5279TIP3    H240033   3.344   0.897  16.282 -0.0870 -0.6014 -0.0295
 5280TIP3   OH240034   1.462   3.668  15.958  0.2661  0.6485 -0.1640
 5280TIP3    H140035   1.426   3.702  15.876 -0.8387  2.0211  0.8412
 5280TIP3    H240036   1.498   3.746  16.002  1.7083 -0.2095  0.2618
 5281TIP3   OH240037   1.202   0.264  13.253 -0.2199 -0.4323 -0.0712
 5281TIP3    H140038   1.162   0.224  13.330  0.9012  0.1477  0.8458
 5281TIP3    H240039   1.161   0.351  13.248  1.2669  0.3915  1.2162
 5282TIP3   OH240040   4.093   6.024  14.507  0.1336 -0.1175 -0.3690
 5282TIP3    H140041   4.095   6.119  14.517  1.0132 -0.1515 -0.1368
 5282TIP3    H240042   4.036   5.994  14.578  2.0808  0.0604  1.3805
 5283TIP3   OH240043   1.704   4.101  14.447 -0.0213  0.5945 -0.3079
 5283TIP3    H140044   1.711   4.027  14.507 -0.5702  0.4400 -0.4378
 5283TIP3    H240045   1.680   4.063  14.363  2.0024  0.6639 -0.9783
 5284TIP3   OH240046   4.070   2.882  15.550 -0.2970  0.1538 -0.2660
 5284TIP3    H140047   4.045   2.804  15.601 -1.9866  0.1326 -1.0604
 5284TIP3    H240048   4.077   2.850  15.460 -1.9024  1.0624 -0.7435
 5285TIP3   OH240049   2.247   0.564  14.807  0.1375 -0.2507  0.2000
 5285TIP3    H140050   2.157   0.545  14.780  0.0983 -0.1038  0.2218
 5285TIP3    H240051   2.271   0.642  14.756  0.6191 -0.8961 -0.5755
 5286TIP3   OH240052   3.202   3.421  16.318  0.0165 -0.6151 -0.2286
 5286TIP3    H140053   3.241   3.450  16.400 -0.0382 -1.5611  0.1513
 5286TIP3    H240054   3.135   3.357  16.344 -1.9875  1.1311 -0.8360
 5287TIP3   OH240055   5.187   2.661  16.770 -0.6833  0.1138 -0.0119
 5287TIP3    H140056   5.212   2.571  16.791 -1.4467  0.0333  0.6118
 5287TIP3    H240057   5.091   2.660  16.774 -0.6726  1.1772  0.9741
 5288TIP3   OH240058   3.104   2.013  15.471  0.4779 -0.0280  0.6020
 5288TIP3    H140059   3.120   2.048  15.558  0.9578 -0.2086  0.5938
 5288TIP3    H240060   3.176   1.950  15.457 -0.4704 -1.1684  0.7039
 5289TIP3   OH240061   4.220   3.282  15.229 -0.6039  0.1542  0.2415
 5289TIP3    H140062   4.293   3.223  15.249  1.0681  1.6476 -1.0769
 5289TIP3    H240063   4.143   3.225  15.228  0.6828 -1.6876  0.6817
 5290TIP3   OH240064   5.229   6.044  14.718  0.3196  0.0346  0.6572
 5290TIP3    H140065   5.242   6.051  14.623  1.0312 -1.6088  0.6099
 5290TIP3    H240066   5.173   6.118  14.739  1.8374  1.6794 -0.7081
 5291TIP3   OH240067   6.069   4.040  14.695 -0.6435  0.0731 -0.1666
 5291TIP3    H140068   5.994   4.086  14.657 -0.1367  0.1860 -1.0520
 5291TIP3    H240069   6.101   3.984  14.625  2.1183  2.4218 -0.9833
 5292TIP3   OH240070   0.290   0.503  12.987  0.4191  0.0809  0.1596
 5292TIP3    H140071   0.289   0.530  12.895  0.6840 -0.0419  0.1198
 5292TIP3    H240072   0.287   0.585  13.036 -2.7276  0.1141  0.0835
 5293TIP3   OH240073   3.456   6.154  13.859 -0.0222 -1.0346  0.3936
 5293TIP3    H140074   3.455   6.191  13.771 -1.3541  0.4694  0.9990
 5293TIP3    H240075   3.465   6.059  13.845  1.6713 -0.6804 -1.2580
 5294TIP3   OH240076   0.013   2.552  15.762 -0.0168  0.4281  0.1546
 5294TIP3    H140077   0.075   2.503  15.708 -0.1692  1.2094 -0.7472
 5294TIP3    H240078  -0.063   2.494  15.769  1.0445 -0.8530  1.8779
 5295TIP3   OH240079   6.008   5.029  16.443  0.1401 -0.1991 -0.2647
 5295TIP3    H140080   6.076   5.002  16.381  0.6304 -1.2745  0.7010
 5295TIP3    H240081   6.018   4.969  16.517 -1.7119 -0.2333  0.0177
 5296TIP3   OH240082   5.267   2.008  13.225  0.3250  0.3297 -0.9704
 5296TIP3    H140083   5.184   1.964  13.212  0.2961 -0.8644  2.3516
 5296TIP3    H240084   5.244   2.096  13.255  0.2140 -0.1361  0.3509
 5297TIP3   OH240085   4.775   2.891  15.083  0.2612  0.4372 -0.2753
 5297TIP3    H140086   4.680   2.900  15.092  0.2073  0.1724 -0.6024
 5297TIP3    H240087   4.788   2.854  14.996  0.5817 -1.1173  0.4102
 5298TIP3   OH240088   6.634   2.564  14.307 -0.0844  0.2412 -0.2247
 5298TIP3    H140089   6.551   2.538  14.268  0.2557 -3.8627  1.2753
 5298TIP3    H240090   6.699   2.551  14.237 -0.2710 -0.1860 -0.3164
 5299TIP3   OH240091   2.517   2.515  14.016 -0.4204 -0.1265  0.3404
 5299TIP3    H140092   2.500   2.601  14.054 -0.4356  0.0171  0.0080
 5299TIP3    H240093   2.527   2.458  14.092 -1.1190  0.0272  0.5578
 5300TIP3   OH240094   5.761   1.512  14.745  0.4828  0.0341  0.4164
 5300TIP3    H140095   5.766   1.498  14.650 -0.1477  0.4285  0.3230
 5300TIP3    H240096   5.683   1.465  14.773  0.1863  0.6288  0.6036
 5301TIP3   OH240097   2.139   1.321  16.771 -0.5892 -0.3651 -0.5803
 5301TIP3    H140098   2.219   1.310  16.719 -0.5407  0.1634 -0.6234
 5301TIP3    H240099   2.097   1.399  16.733 -1.3070 -0.8484 -0.7937
 5302TIP3   OH240100   5.462   3.243  15.132 -0.3465  0.3073 -0.8996
 5302TIP3    H140101   5.411   3.312  15.174 -2.3790 -0.3970 -2.0941
 5302TIP3    H240102   5.519   3.289  15.071 -0.2015  1.0481 -0.2253
 5303TIP3   OH240103   0.808   1.907  14.230  0.5915  0.5885  0.0328
 5303TIP3    H140104   0.902   1.921  14.239  1.1229 -2.5836  0.8002
 5303TIP3    H240105   0.799   1.845  14.158 -0.7272 -0.3341  0.9189
 5304TIP3   OH240106   0.064   1.486  16.805 -0.0316  1.2681 -0.0930
 5304TIP3    H140107   0.034   1.493  16.715 -1.1942  1.7081  0.3039
 5304TIP3    H240108  -0.016   1.485  16.857  0.2841 -3.7854  0.7509
 5305TIP3   OH240109   5.694   5.099  14.955 -0.9609  0.4149 -0.0639
 5305TIP3    H140110   5.609   5.124  14.919 -0.9529  0.7553  0.1555
 5305TIP3    H240111   5.683   5.007  14.979 -1.5142  0.6712  0.6860
 5306TIP3   OH240112   1.090   1.777  16.473  0.0650  0.1020  0.3470
 5306TIP3    H140113   1.138   1.859  16.487 -0.5020  0.3853  0.6470
 5306TIP3    H240114   1.159   1.710  16.468  0.4905  0.4820  0.9318
 5307TIP3   OH240115   2.074   6.428  13.808 -0.1900  0.4709  0.5337
 5307TIP3    H140116   1.989   6.431  13.853 -0.2458  0.1417  0.4521
 5307TIP3    H240117   2.052   6.430  13.715 -0.0499  1.7739  0.5182
 5308TIP3   OH240118   1.991   2.482  14.604  0.3324 -0.3065  0.3551
 5308TIP3    H140119   2.061   2.537  14.569 -0.2521  0.5409  0.4929
 5308TIP3    H240120   1.920   2.543  14.624  0.0334 -0.9852  1.4512
 5309TIP3   OH240121   1.907   4.450  15.682  0.1456  0.2076 -0.4183
 5309TIP3    H140122   1.888   4.430  15.773 -0.1361  0.9556 -0.3100
 5309TIP3    H240123   2.002   4.463  15.679  0.0432  1.1052 -0.0415
 5310TIP3   OH240124   3.589   5.859  16.446  0.2331  0.1119 -0.5674
 5310TIP3    H140125   3.512   5.915  16.430 -0.9763 -0.9372  1.2269
 5310TIP3    H240126   3.626   5.892  16.527  0.0881 -1.0332 -0.0173
 5311TIP3   OH240127   2.681   4.628  15.862  0.0947 -0.0523  0.0603
 5311TIP3    H140128   2.765   4.635  15.907  0.0821 -1.3666  0.3341
 5311TIP3    H240129   2.682   4.699  15.798  0.5245  1.2558  1.4584
 5312TIP3   OH240130   3.485   6.348  16.440 -0.3500  0.5032 -0.3730
 5312TIP3    H140131   3.545   6.301  16.382 -2.2403 -1.2862 -1.0001
 5312TIP3    H240132   3.430   6.400  16.381 -0.4823  0.8528  0.0544
 5313TIP3   OH240133   3.083   4.086  16.268  0.0365  0.1452 -0.2508
 5313TIP3    H140134   3.020   4.116  16.203 -0.0351  0.5576  0.0095
 5313TIP3    H240135   3.069   4.142  16.344 -0.3456 -0.7796  0.3783
 5314TIP3   OH240136   4.800   2.674  14.184  0.0823 -0.1289  0.1757
 5314TIP3    H140137   4.826   2.666  14.092  0.6824  1.9250  0.1224
 5314TIP3    H240138   4.882   2.678  14.233 -0.1905  1.0552  0.5572
 5315TIP3   OH240139   1.403   3.825  15.458 -0.1385  0.0281 -0.0860
 5315TIP3    H140140   1.468   3.784  15.401 -2.2297 -2.3589 -0.9666
 5315TIP3    H240141   1.319   3.793  15.424 -1.6425  0.9044  2.5591
 5316TIP3   OH240142   3.035   5.899  16.893  0.5656  0.4768 -0.4721
 5316TIP3    H140143   2.960   5.936  16.940  1.3669 -0.4526  1.6934
 5316TIP3    H240144   3.081   5.975  16.857 -0.2620  1.2073 -0.0241
 5317TIP3   OH240145   1.941   1.980  15.635  0.3651 -0.1904 -0.0753
 5317TIP3    H140146   1.919   2.072  15.651  1.0895  0.3768 -2.1052
 5317TIP3    H240147   1.909   1.934  15.713 -1.8539  1.4928  0.1181
 5318TIP3   OH240148   2.449   6.492  14.055 -0.4807  0.0246  0.0957
 5318TIP3    H140149   2.458   6.452  13.969 -3.6558 -0.8589  0.0444
 5318TIP3    H240150   2.481   6.582  14.044 -0.3806 -0.2248 -1.8654
 5319TIP3   OH240151   1.744   1.056  13.178 -0.1919 -0.3587  0.3552
 5319TIP3    H140152   1.829   1.086  13.210 -1.5338  0.7143  3.1937
 5319TIP3    H240153   1.743   1.081  13.085  1.7132  1.6284  0.8052
 5320TIP3   OH240154   2.880   3.432  14.306 -0.1844  0.3530 -0.0138
 5320TIP3    H140155   2.893   3.461  14.216 -2.5840 -0.3064 -0.6273
 5320TIP3    H240156   2.925   3.348  14.311 -0.1360  0.3350 -0.6303
 5321TIP3   OH240157   6.068   2.053  15.212 -0.2194 -0.1690 -0.1244
 5321TIP3    H140158   6.116   2.027  15.290 -0.2932  1.4294  0.4874
 5321TIP3    H240159   6.129   2.037  15.140  0.3462 -0.3866  0.3915
 5322TIP3   OH240160   4.464   6.257  16.593  0.2838 -0.1523 -0.1916
 5322TIP3    H140161   4.399   6.327  16.581 -0.5084 -0.9025 -0.3497
 5322TIP3    H240162   4.547   6.304  16.605 -0.3340  0.8380  0.3959
 5323TIP3   OH240163   4.087   3.180  14.722  0.0099  0.1623 -0.7690
 5323TIP3    H140164   3.992   3.189  14.728  0.1380  1.5554 -0.6288
 5323TIP3    H240165   4.114   3.156  14.811 -0.0424  1.6729 -0.3109
 5324TIP3   OH240166   0.237   2.670  13.909  0.4389 -0.4598  0.0650
 5324TIP3    H140167   0.301   2.733  13.944 -0.6956  0.5040  0.4752
 5324TIP3    H240168   0.284   2.624  13.839  1.7395 -0.1556  0.7108
 5325TIP3   OH240169   0.471   4.033  16.388 -0.1682  0.6317  0.6546
 5325TIP3    H140170   0.532   3.967  16.356 -0.8382  0.8785 -1.2152
 5325TIP3    H240171   0.421   3.989  16.457 -0.8375 -0.9729 -0.7859
 5326TIP3   OH240172   1.874   3.168  14.515  0.2779 -0.4927  0.1492
 5326TIP3    H140173   1.864   3.213  14.431  0.8132 -0.4216  0.1227
 5326TIP3    H240174   1.823   3.220  14.576  1.3593  0.4988  0.2396
 5327TIP3   OH240175   6.547   2.197  16.017  0.4908 -0.2732  0.1101
 5327TIP3    H140176   6.522   2.242  15.935  1.8151  0.7875  0.2545
 5327TIP3    H240177   6.549   2.105  15.993 -0.1534 -0.0794 -0.7833
 5328TIP3   OH240178   5.074   5.086  16.716  0.3204 -0.0610 -0.3959
 5328TIP3    H140179   5.000   5.132  16.755  0.1373 -0.2520 -0.5119
 5328TIP3    H240180   5.151   5.121  16.760  0.0546 -0.9049  0.7943
 5329TIP3   OH240181   2.479   2.196  13.726  0.5889  0.4145  0.4127
 5329TIP3    H140182   2.533   2.183  13.648  1.3241  0.0084  0.9835
 5329TIP3    H240183   2.402   2.243  13.694  1.0775  0.6200 -0.4846
 5330TIP3   OH240184   2.584   5.433  15.053 -0.9494 -0.2837  0.5269
 5330TIP3    H140185   2.644   5.365  15.082  0.3157  1.1074  1.3688
 5330TIP3    H240186   2.497   5.393  15.056 -0.3528 -1.5389  1.9823
 5331TIP3   OH240187   1.180   0.608  14.379 -0.0159 -0.4655 -0.0229
 5331TIP3    H140188   1.124   0.581  14.451  0.2702 -0.6589  0.1302
 5331TIP3    H240189   1.128   0.671  14.329 -0.0046  0.1178  0.6852
 5332TIP3   OH240190   6.362   3.716  14.690 -0.0947 -0.7209  0.2186
 5332TIP3    H140191   6.417   3.638  14.691  1.4361  0.3240  0.6242
 5332TIP3    H240192   6.298   3.699  14.621  0.0561 -2.4087  0.4357
 5333TIP3   OH240193   5.417   4.505  15.033 -0.0966 -0.3399  0.1144
 5333TIP3    H140194   5.466   4.422  15.040  0.4676 -0.0200  0.0287
 5333TIP3    H240195   5.337   4.490  15.082 -0.6226 -1.4021 -1.0052
 5334TIP3   OH240196   0.952   5.091  13.820  0.0649 -0.1750  0.0028
 5334TIP3    H140197   1.007   5.019  13.789  0.7329  0.5718 -0.5815
 5334TIP3    H240198   0.898   5.114  13.744  1.2005  1.1848 -0.4413
 5335TIP3   OH240199   2.795   1.528  14.588  0.5789 -0.5328  0.1943
 5335TIP3    H140200   2.874   1.556  14.542 -0.9315  1.1320 -1.5247
 5335TIP3    H240201   2.785   1.592  14.659 -0.2362  0.4347 -0.7686
 5336TIP3   OH240202   5.219   0.730  16.267 -0.4281 -0.2215  0.5252
 5336TIP3    H140203   5.305   0.761  16.297 -1.3526  1.4630  1.6039
 5336TIP3    H240204   5.192   0.668  16.334 -0.5125  0.0607  0.7528
 5337TIP3   OH240205   2.148   5.859  15.350  0.1165  0.1610 -0.1695
 5337TIP3    H140206   2.088   5.932  15.368  0.0826 -0.0469  0.5826
 5337TIP3    H240207   2.102   5.781  15.381  1.0304  0.0714  1.0128
 5338TIP3   OH240208   4.499   0.734  15.165  0.0266  0.0441 -0.2153
 5338TIP3    H140209   4.593   0.716  15.171 -0.1028 -0.3544  0.8336
 5338TIP3    H240210   4.477   0.717  15.073  0.7422 -1.0703 -0.1979
 5339TIP3   OH240211   3.322   6.000  16.012 -0.2269  0.2275 -0.3895
 5339TIP3    H140212   3.367   6.082  16.032 -2.0386  0.9533  0.8938
 5339TIP3    H240213   3.368   5.967  15.934  0.7987  2.2431 -0.7171
 5340TIP3   OH240214   3.363   3.302  17.231  1.0912 -0.2871  0.2183
 5340TIP3    H140215   3.329   3.348  17.308  0.4065  2.1244 -1.3761
 5340TIP3    H240216   3.285   3.280  17.180  1.6091  1.1050 -1.2766
 5341TIP3   OH240217   0.380   4.179  14.006  0.1675  0.5590  0.2710
 5341TIP3    H140218   0.356   4.264  14.044  1.0576  1.1584 -0.4714
 5341TIP3    H240219   0.369   4.191  13.912 -1.8188 -0.8587  0.2659
 5342TIP3   OH240220   6.658   1.441  13.855  0.1479  0.5780 -0.6037
 5342TIP3    H140221   6.634   1.372  13.794 -1.2924  1.2960 -0.9001
 5342TIP3    H240222   6.578   1.457  13.906  1.2742  0.0521  1.4471
 5343TIP3   OH240223   6.369   6.258  15.977  0.4593 -0.0379  0.1181
 5343TIP3    H140224   6.334   6.313  15.907  0.7947 -1.0348 -0.8778
 5343TIP3    H240225   6.429   6.198  15.932  0.9853 -0.4515  1.3264
 5344TIP3   OH240226   4.322   0.307  14.805  0.8422 -0.1809 -0.0896
 5344TIP3    H140227   4.239   0.329  14.847  0.6716 -1.6520  0.4190
 5344TIP3    H240228   4.376   0.272  14.875  1.7671  0.4097 -0.4946
 5345TIP3   OH240229   2.306   0.220  16.751  0.1474  0.2358 -0.2549
 5345TIP3    H140230   2.312   0.309  16.786  1.1354  0.4325 -0.8718
 5345TIP3    H240231   2.279   0.166  16.826  2.4321  0.5926  0.9328
 5346TIP3   OH240232   3.945   2.976  15.051 -0.1983 -0.3770  0.0227
 5346TIP3    H140233   3.862   2.931  15.039 -0.4799  0.7211 -2.8648
 5346TIP3    H240234   3.924   3.069  15.038  1.6133 -0.1748 -1.9988
 5347TIP3   OH240235   0.276   1.647  16.889 -0.3394  0.2400  0.1093
 5347TIP3    H140236   0.205   1.584  16.874 -0.5766  0.5432 -0.0737
 5347TIP3    H240237   0.243   1.729  16.851 -0.3862  0.6904  1.1024
 5348TIP3   OH240238   4.720   4.255  16.712  0.6225 -0.0021  0.2927
 5348TIP3    H140239   4.808   4.239  16.747  0.2434  0.4952  1.4967
 5348TIP3    H240240   4.703   4.347  16.731  0.1586  0.1273 -0.6874
 5349TIP3   OH240241   6.591   2.748  15.279 -0.4105  0.5520  0.1112
 5349TIP3    H140242   6.600   2.836  15.316  0.8439  0.4785  0.0237
 5349TIP3    H240243   6.648   2.694  15.333 -0.2881  0.0128 -0.5461
 5350TIP3   OH240244   2.777   0.310  14.887 -0.2424 -0.4335  0.4573
 5350TIP3    H140245   2.804   0.401  14.896  0.4047 -0.6505  0.8664
 5350TIP3    H240246   2.705   0.311  14.825 -2.2996  0.7373  2.7224
 5351TIP3   OH240247   3.195   4.718  15.168  0.6307 -0.6876 -0.6562
 5351TIP3    H140248   3.169   4.729  15.077  0.1931  1.4246 -0.3244
 5351TIP3    H240249   3.236   4.801  15.192  1.2116 -1.3853  0.9312
 5352TIP3   OH240250   2.410   4.280  15.621 -0.3037 -0.1154 -0.9590
 5352TIP3    H140251   2.381   4.211  15.561 -1.0954  0.3709 -1.1639
 5352TIP3    H240252   2.366   4.359  15.588  1.0444  0.6051 -1.0769
 5353TIP3   OH240253   3.272   5.487  14.841  0.3075  0.0489 -0.0004
 5353TIP3    H140254   3.259   5.392  14.845 -1.7645  0.1258 -2.6832
 5353TIP3    H240255   3.317   5.502  14.758  0.8690  1.4218  0.5160
 5354TIP3   OH240256   1.523   5.120  15.216  0.1080  0.0282 -0.5330
 5354TIP3    H140257   1.571   5.050  15.172 -0.7953 -1.4978  0.8182
 5354TIP3    H240258   1.588   5.161  15.274  0.0949 -1.2634  0.4262
 5355TIP3   OH240259   6.309   4.930  16.651  0.0812  0.2887  0.1497
 5355TIP3    H140260   6.253   4.927  16.728  0.9993  0.2817  0.8432
 5355TIP3    H240261   6.383   4.873  16.673  1.0611  1.4046 -0.1516
 5356TIP3   OH240262   4.803   3.676  14.389  0.5885 -0.6203  0.1312
 5356TIP3    H140263   4.748   3.657  14.465  2.3032 -3.8364  0.7320
 5356TIP3    H240264   4.757   3.636  14.316 -0.4275  1.3838 -0.4022
 5357TIP3   OH240265   4.074   3.087  15.806 -0.1651 -0.7590 -0.1753
 5357TIP3    H140266   4.029   3.072  15.888  0.8069 -1.3991  0.2609
 5357TIP3    H240267   4.141   3.018  15.802  1.6837  0.9247 -0.1223
 5358TIP3   OH240268   1.153   4.890  16.878 -0.3475  0.2016 -0.0966
 5358TIP3    H140269   1.117   4.966  16.833  1.2092  1.9819  1.5106
 5358TIP3    H240270   1.077   4.843  16.911 -1.3887  0.4224 -2.0423
 5359TIP3   OH240271   0.108   1.044  16.323  0.1437 -0.2367  0.1718
 5359TIP3    H140272   0.198   1.078  16.326  0.3491 -0.8027  0.5768
 5359TIP3    H240273   0.087   1.040  16.230  0.2634  0.6025  0.0975
 5360TIP3   OH240274   0.057   2.619  15.144  0.4671  0.9994  0.9587
 5360TIP3    H140275   0.037   2.699  15.193 -2.8175  0.2816  1.0202
 5360TIP3    H240276   0.078   2.554  15.212 -0.4385  0.9277  1.1803
 5361TIP3   OH240277   0.232   0.334  15.845  0.3567 -0.0661  0.3061
 5361TIP3    H140278   0.164   0.299  15.787 -0.7846  1.4282  0.6687
 5361TIP3    H240279   0.261   0.259  15.896 -2.0064 -0.5348  1.0821
 5362TIP3   OH240280   4.890   5.964  15.702  0.2751  0.1953  0.3084
 5362TIP3    H140281   4.907   5.907  15.627  0.3815 -0.3470  0.7333
 5362TIP3    H240282   4.935   5.921  15.775  0.0812  0.6577  0.7038
 5363TIP3   OH240283   1.858   1.576  15.272  0.6889 -0.1601  0.7681
 5363TIP3    H140284   1.839   1.669  15.256  1.4638  0.2564  2.1575
 5363TIP3    H240285   1.841   1.534  15.187  1.4810  1.4276 -0.2420
 5364TIP3   OH240286   0.522   4.929  16.426  0.1926  0.1527 -0.0329
 5364TIP3    H140287   0.525   4.997  16.359 -2.2863 -0.0981 -0.5226
 5364TIP3    H240288   0.429   4.924  16.450  0.8396 -0.5114  2.6729
 5365TIP3   OH240289   6.192   1.296  16.292 -0.2359  0.0549  0.2547
 5365TIP3    H140290   6.199   1.200  16.286  2.1218  0.2536 -1.8474
 5365TIP3    H240291   6.214   1.316  16.382 -1.5437 -1.3912  0.9440
 5366TIP3   OH240292   0.549   5.063  16.189  0.3005  0.1471  0.6424
 5366TIP3    H140293   0.629   5.024  16.154  0.5909  2.0436 -0.9810
 5366TIP3    H240294   0.478   5.024  16.137  0.5679  1.4949 -0.7981
 5367TIP3   OH240295   0.858   0.324  16.455 -0.4787 -0.2045 -0.3916
 5367TIP3    H140296   0.793   0.357  16.517 -0.1065  1.8929 -1.0418
 5367TIP3    H240297   0.883   0.400  16.403  0.6903 -1.4790 -1.8107
 5368TIP3   OH240298   3.206   3.656  14.810 -0.1921  0.4075  0.1362
 5368TIP3    H140299   3.208   3.740  14.855  1.2427  0.4907 -0.0376
 5368TIP3    H240300   3.202   3.591  14.880 -1.1329  0.5933  0.2735
 5369TIP3   OH240301   3.411   0.418  14.474  0.2074 -0.3605 -0.0925
 5369TIP3    H140302   3.402   0.404  14.379 -3.0591 -0.6703  0.1434
 5369TIP3    H240303   3.408   0.330  14.511  0.6163 -0.1864  0.3569
 5370TIP3   OH240304   4.799   1.522  15.122  0.1925 -0.1193 -0.0576
 5370TIP3    H140305   4.751   1.604  15.112  0.7068  0.2482  0.4242
 5370TIP3    H240306   4.788   1.477  15.038 -1.5490 -0.3633  0.2529
 5371TIP3   OH240307   6.557   6.045  15.871  0.8284  0.2552 -0.3760
 5371TIP3    H140308   6.495   5.977  15.847 -0.6818  1.3646  0.2344
 5371TIP3    H240309   6.606   6.009  15.945 -3.2324  1.4255  3.2739
 5372TIP3   OH240310   0.605   4.173  14.605 -0.6409 -0.4227 -0.1189
 5372TIP3    H140311   0.559   4.098  14.566  1.5956 -1.6892 -0.5021
 5372TIP3    H240312   0.652   4.213  14.532 -2.5791  2.0708 -0.1151
 5373TIP3   OH240313   4.139   2.367  14.557 -0.3456  0.3497  0.6188
 5373TIP3    H140314   4.224   2.395  14.591 -0.8060  0.9402  1.2869
 5373TIP3    H240315   4.111   2.439  14.500 -0.4500  0.1975  0.4749
 5374TIP3   OH240316   3.565   4.761  14.776 -0.0774 -0.1312  0.3790
 5374TIP3    H140317   3.564   4.716  14.691 -0.0572  1.9268 -0.7881
 5374TIP3    H240318   3.576   4.854  14.753 -0.3377  0.5073  2.6365
 5375TIP3   OH240319   2.435   6.596  14.992 -0.1454 -0.3041  0.8135
 5375TIP3    H140320   2.516   6.629  15.030  0.5223 -0.2790 -0.5917
 5375TIP3    H240321   2.412   6.520  15.047  0.9995 -0.5157  1.0102
 5376TIP3   OH240322   4.151   1.536  16.667 -0.8635  0.1344 -0.9261
 5376TIP3    H140323   4.158   1.447  16.702 -0.3981 -0.4153 -2.3315
 5376TIP3    H240324   4.070   1.536  16.617 -0.9969  0.5979 -0.7196
 5377TIP3   OH240325   6.576   5.625  14.215  0.1237  0.3852  0.4991
 5377TIP3    H140326   6.627   5.692  14.260 -0.9900  1.7339 -0.1660
 5377TIP3    H240327   6.611   5.542  14.247 -0.1882  1.2651  3.3690
 5378TIP3   OH240328   6.683   3.696  15.799 -0.1057  0.2294  0.2327
 5378TIP3    H140329   6.652   3.626  15.742 -0.8118 -1.3079  2.3705
 5378TIP3    H240330   6.778   3.697  15.787 -0.3144  0.5239 -1.5487
 5379TIP3   OH240331   0.206   5.769  15.986 -0.0907 -0.5606  0.0708
 5379TIP3    H140332   0.222   5.800  15.897  1.4624  2.1830  1.1850
 5379TIP3    H240333   0.291   5.735  16.015  0.2146  1.1530  1.3669
 5380TIP3   OH240334   3.786   4.129  15.734  0.2226 -0.2178  0.2488
 5380TIP3    H140335   3.743   4.166  15.811  0.2314  2.3194 -0.8679
 5380TIP3    H240336   3.879   4.131  15.755  0.4237  2.4617 -0.4944
 5381TIP3   OH240337   4.441   0.181  14.307 -0.0699 -0.0953 -0.5149
 5381TIP3    H140338   4.472   0.180  14.216 -1.0315  1.6140 -0.9015
 5381TIP3    H240339   4.481   0.259  14.345 -0.5050 -0.2293  0.2318
 5382TIP3   OH240340   2.378   1.074  14.018  0.1854 -0.3201  0.2947
 5382TIP3    H140341   2.439   1.058  14.090 -1.4945 -0.1660  1.8365
 5382TIP3    H240342   2.387   0.997  13.961  0.8335 -0.9397  1.2115
 5383TIP3   OH240343   4.142   3.190  17.117  0.5710 -0.4895  0.0622
 5383TIP3    H140344   4.215   3.148  17.162  1.2615  0.7407  0.1193
 5383TIP3    H240345   4.183   3.252  17.057 -0.4324  0.9075  0.7754
 5384TIP3   OH240346   3.347   4.362  16.880  0.3568 -0.1754  0.1512
 5384TIP3    H140347   3.437   4.373  16.848  0.3243 -0.5875 -0.0786
 5384TIP3    H240348   3.347   4.277  16.923 -0.0191 -0.3313 -0.1557
 5385TIP3   OH240349   4.453   2.792  16.777 -0.5149 -0.2183 -0.6210
 5385TIP3    H140350   4.383   2.855  16.757  0.0653  1.1138  1.2261
 5385TIP3    H240351   4.534   2.839  16.757 -0.0790 -1.3946 -1.7929
 5386TIP3   OH240352   3.006   6.659  14.534 -0.1673  0.2916  0.3582
 5386TIP3    H140353   2.931   6.695  14.582 -0.4714 -0.7970  0.7378
 5386TIP3    H240354   3.080   6.669  14.594 -0.1746  0.6085  0.3165
 5387TIP3   OH240355   4.740   6.086  14.961  0.5506 -0.5301  0.3531
 5387TIP3    H140356   4.697   6.166  14.932  1.4875 -0.5401 -1.1829
 5387TIP3    H240357   4.669   6.025  14.979 -0.1646 -0.8536 -3.0066
 5388TIP3   OH240358   4.388   0.065  15.325 -0.0561  0.4343  0.4117
 5388TIP3    H140359   4.428   0.013  15.396 -1.5319 -0.5605  0.5569
 5388TIP3    H240360   4.363   0.000  15.259  1.6734  1.3869 -1.2669
 5389TIP3   OH240361   5.455   2.832  16.215 -0.3172 -0.5935  0.0177
 5389TIP3    H140362   5.543   2.812  16.183 -0.0995 -0.8003  0.7137
 5389TIP3    H240363   5.460   2.814  16.309 -0.3915  1.7842  0.5397
 5390TIP3   OH240364   2.687   4.547  16.160  0.0036  0.7276 -0.9151
 5390TIP3    H140365   2.737   4.499  16.094  3.0466  1.4583  0.6731
 5390TIP3    H240366   2.613   4.584  16.112 -0.5381 -2.5274 -2.8982
 5391TIP3   OH240367   0.015   2.325   7.390  0.1959 -0.3539 -0.1015
 5391TIP3    H140368   0.101   2.295   7.418  0.6518 -0.1091 -1.1712
 5391TIP3    H240369  -0.045   2.291   7.456  0.7662 -3.0667 -0.8533
 5392TIP3   OH240370   5.974   0.396   7.840 -0.0459 -0.4733 -0.2398
 5392TIP3    H140371   5.930   0.436   7.764  0.7882 -0.1074 -0.5452
 5392TIP3    H240372   5.937   0.308   7.846  0.3834 -0.7634 -1.5247
 5393TIP3   OH240373   5.432   4.746   6.221 -0.6839  0.4581  0.6064
 5393TIP3    H140374   5.454   4.773   6.310  1.3270 -0.6605  0.5180
 5393TIP3    H240375   5.515   4.754   6.172 -1.2814 -0.7048 -0.6864
 5394TIP3   OH240376   2.321   4.607   8.244 -0.2806 -0.6376 -0.1397
 5394TIP3    H140377   2.314   4.524   8.292  1.0212 -1.0645 -0.6398
 5394TIP3    H240378   2.240   4.654   8.266 -1.2656 -2.2102 -0.1833
 5395TIP3   OH240379   4.898   1.416   5.681  0.1121  0.1091  0.5152
 5395TIP3    H140380   4.857   1.345   5.632 -0.8240  0.7946  0.2828
 5395TIP3    H240381   4.826   1.472   5.707  0.9255  1.6748 -0.4454
 5396TIP3   OH240382   4.541   6.151   7.643  0.0436 -0.0774 -0.1891
 5396TIP3    H140383   4.554   6.062   7.611  0.8169 -0.5161  1.2312
 5396TIP3    H240384   4.447   6.157   7.660  0.0431 -0.7726  0.0974
 5397TIP3   OH240385   5.887   1.062   6.944  0.0226 -0.1227  0.1295
 5397TIP3    H140386   5.858   0.972   6.951  0.1960 -0.1570  0.4325
 5397TIP3    H240387   5.831   1.101   6.877 -0.7894 -0.1598  0.7692
 5398TIP3   OH240388   4.063   6.319   7.717  0.0142 -0.9131  0.4127
 5398TIP3    H140389   4.018   6.257   7.774 -0.5376 -0.8266  0.0707
 5398TIP3    H240390   4.038   6.294   7.629  0.0294 -0.3926  0.2560
 5399TIP3   OH240391   1.811   5.239   6.697  0.3411 -0.4632 -0.6857
 5399TIP3    H140392   1.813   5.236   6.602  0.6937 -0.0384 -0.6950
 5399TIP3    H240393   1.731   5.287   6.718  0.4988 -0.1605 -0.7785
 5400TIP3   OH240394   4.480   3.014   6.253 -0.4844  0.2649 -0.1004
 5400TIP3    H140395   4.440   2.949   6.195 -0.3102 -0.1299  0.2150
 5400TIP3    H240396   4.423   3.091   6.246 -1.9102 -0.6199  1.1107
 5401TIP3   OH240397   0.739   3.563   7.974  0.5721 -0.4668 -0.6246
 5401TIP3    H140398   0.720   3.650   7.940 -0.7522 -0.2320  0.6289
 5401TIP3    H240399   0.796   3.578   8.049 -0.8629 -0.5208  0.5162
 5402TIP3   OH240400   2.520   2.832   8.639 -0.1733  0.3832  0.3371
 5402TIP3    H140401   2.483   2.833   8.728  0.0133  1.0519  0.4116
 5402TIP3    H240402   2.446   2.808   8.583 -0.9142  2.2706  0.4151
 5403TIP3   OH240403   0.405   1.359   7.086 -0.4093 -0.2624 -0.1570
 5403TIP3    H140404   0.495   1.372   7.117 -0.6779 -0.1877  0.6002
 5403TIP3    H240405   0.405   1.395   6.997 -0.0328  0.9714  0.3182
 5404TIP3   OH240406   3.410   2.551   7.149  0.1213 -0.0939 -0.5141
 5404TIP3    H140407   3.454   2.574   7.231 -0.4221 -1.8475  0.3185
 5404TIP3    H240408   3.442   2.462   7.129 -1.0063 -0.3359 -1.3148
 5405TIP3   OH240409   0.070   1.125   7.432 -0.0642 -0.5013  0.5636
 5405TIP3    H140410   0.141   1.063   7.420 -1.7762 -2.5998  0.7007
 5405TIP3    H240411   0.099   1.204   7.386  0.4731 -2.7253 -3.3516
 5406TIP3   OH240412   5.913   6.518   8.314 -0.2014  0.0425 -0.0226
 5406TIP3    H140413   5.901   6.438   8.365  1.4759 -0.0889  0.2141
 5406TIP3    H240414   5.900   6.589   8.377  0.7485 -0.1052  0.3604
 5407TIP3   OH240415   2.781   5.797   7.001  0.1312 -0.5071  0.2926
 5407TIP3    H140416   2.691   5.766   7.015 -0.0720  0.2724  0.7521
 5407TIP3    H240417   2.795   5.861   7.070  0.9870 -0.4919  0.1124
 5408TIP3   OH240418   5.681   2.974   6.902 -0.3137  0.2841 -0.2728
 5408TIP3    H140419   5.655   2.895   6.948  1.3312  0.3455  0.8282
 5408TIP3    H240420   5.755   2.947   6.847 -1.2804  0.5522 -1.7884
 5409TIP3   OH240421   5.429   5.707   6.178  0.4372  0.0479  0.1230
 5409TIP3    H140422   5.499   5.649   6.149  0.8167  0.2577  0.6006
 5409TIP3    H240423   5.468   5.795   6.179  0.3841  0.0754  1.0521
 5410TIP3   OH240424   4.282   5.980   6.304  0.2909  0.5655  0.0385
 5410TIP3    H140425   4.189   5.998   6.289  0.0182 -0.5058  0.3143
 5410TIP3    H240426   4.301   5.904   6.249  1.2167  1.2493 -0.6174
 5411TIP3   OH240427   4.334   0.241   8.457  0.3207  0.4811  0.2099
 5411TIP3    H140428   4.403   0.176   8.465  0.1649  0.2243 -0.4630
 5411TIP3    H240429   4.279   0.209   8.386 -0.0080  1.1208  0.1670
 5412TIP3   OH240430   0.791   4.315   9.993  1.0975 -0.1574 -0.3012
 5412TIP3    H140431   0.696   4.322  10.001  1.2977  1.0851  1.2488
 5412TIP3    H240432   0.804   4.260   9.915 -0.8733 -0.4228 -0.4879
 5413TIP3   OH240433   3.391   5.240   6.961  0.2110 -0.1130  0.3408
 5413TIP3    H140434   3.421   5.151   6.941 -1.4360 -0.7654  0.6020
 5413TIP3    H240435   3.450   5.297   6.912  1.4362 -1.3378  0.3477
 5414TIP3   OH240436   2.400   4.632   7.638  0.2604 -0.5050  0.1416
 5414TIP3    H140437   2.417   4.726   7.629  0.8979 -0.4392  1.7454
 5414TIP3    H240438   2.370   4.622   7.729 -0.5001 -1.7655 -0.2233
 5415TIP3   OH240439   5.097   0.305   7.034  0.0414  0.4545 -0.4690
 5415TIP3    H140440   5.054   0.283   7.117  0.0104  0.3938 -0.5007
 5415TIP3    H240441   5.046   0.379   7.000  0.4327  0.8832 -0.1334
 5416TIP3   OH240442   6.145   2.462   6.084 -0.2566 -0.1672  0.0304
 5416TIP3    H140443   6.088   2.539   6.092 -1.7624 -1.1136 -0.9466
 5416TIP3    H240444   6.090   2.397   6.040  1.5761 -1.1980 -0.8209
 5417TIP3   OH240445   1.057   2.926   7.774  0.6454 -0.1322 -0.5028
 5417TIP3    H140446   0.985   2.925   7.710  0.3045 -0.4257 -0.1260
 5417TIP3    H240447   1.014   2.946   7.857  1.2012  1.0998 -0.4940
 5418TIP3   OH240448   5.657   4.590   7.031  0.8351  0.0173 -0.3451
 5418TIP3    H140449   5.706   4.644   7.093 -0.3953  0.6129  0.1362
 5418TIP3    H240450   5.621   4.519   7.084 -0.7289  0.8648 -0.2207
 5419TIP3   OH240451   4.315   3.332   7.399  0.6357  0.0014  0.2902
 5419TIP3    H140452   4.368   3.254   7.383  0.1453 -0.1626 -0.5419
 5419TIP3    H240453   4.225   3.305   7.381  0.3702  0.5550  0.7422
 5420TIP3   OH240454   2.603   1.471   5.903  0.3721  0.3144 -0.0945
 5420TIP3    H140455   2.525   1.419   5.925  0.7775 -0.5660 -0.6907
 5420TIP3    H240456   2.578   1.521   5.825  0.5931 -0.4352 -0.6548
 5421TIP3   OH240457   4.921   3.074   7.703  0.2470  0.1389 -0.3387
 5421TIP3    H140458   4.884   3.158   7.678 -0.2848 -0.0935 -0.3469
 5421TIP3    H240459   5.006   3.095   7.743 -0.2038  0.7362  0.3210
 5422TIP3   OH240460   5.141   4.553   5.777  0.3055 -0.3460 -0.2786
 5422TIP3    H140461   5.198   4.574   5.851 -1.0340  2.0845  0.1909
 5422TIP3    H240462   5.115   4.462   5.791 -0.7491  0.3033  2.9053
 5423TIP3   OH240463   1.313   4.605   9.502  0.2508 -0.4844  0.0114
 5423TIP3    H140464   1.371   4.672   9.538  0.2361 -0.5572  0.1717
 5423TIP3    H240465   1.359   4.522   9.517 -0.8126 -0.7592  2.0337
 5424TIP3   OH240466   3.017   2.937   8.258  0.1972 -0.3005  0.1105
 5424TIP3    H140467   2.936   2.885   8.258  0.5514 -0.8691  0.5490
 5424TIP3    H240468   3.026   2.969   8.348 -0.7223  1.6832 -0.4579
 5425TIP3   OH240469   3.784   4.068   7.200  0.3684  0.1111  0.4736
 5425TIP3    H140470   3.798   4.020   7.118 -0.3162  0.0026  0.4134
 5425TIP3    H240471   3.836   4.021   7.265  0.4970 -0.1165  0.2096
 5426TIP3   OH240472   3.345   4.846   7.439  0.3214 -0.1016  0.1131
 5426TIP3    H140473   3.350   4.903   7.363 -0.3967 -2.2376 -1.6383
 5426TIP3    H240474   3.269   4.879   7.489  0.0437  0.5885 -0.7423
 5427TIP3   OH240475   2.503   5.227   5.419  0.5357  0.2688  0.1270
 5427TIP3    H140476   2.570   5.294   5.424  1.5724 -0.5012 -2.1379
 5427TIP3    H240477   2.534   5.166   5.352 -1.7373 -0.8975  0.0076
 5428TIP3   OH240478   4.460   1.833   6.264 -0.5385  0.4438 -0.2120
 5428TIP3    H140479   4.480   1.844   6.357 -0.8654  1.2581 -0.2324
 5428TIP3    H240480   4.408   1.910   6.241  1.0671  1.2109 -1.4992
 5429TIP3   OH240481   6.586   0.214   8.130  0.1362 -0.1950  0.6163
 5429TIP3    H140482   6.669   0.256   8.152 -0.0555  0.3837  0.2623
 5429TIP3    H240483   6.520   0.280   8.151 -0.2546 -0.7276  1.0922
 5430TIP3   OH240484   2.239   4.401   7.621  0.0536  0.2041 -0.3219
 5430TIP3    H140485   2.259   4.492   7.640  1.1205  0.1399 -1.0491
 5430TIP3    H240486   2.157   4.405   7.571  0.2589  0.7831 -0.6204
 5431TIP3   OH240487   3.994   0.512   8.168 -0.4932  0.1584  0.1499
 5431TIP3    H140488   4.070   0.494   8.113 -0.8182 -2.1339  0.3335
 5431TIP3    H240489   3.919   0.483   8.116 -1.1102  1.0333  0.5350
 5432TIP3   OH240490   0.851   6.013   8.819 -0.2595 -0.3697 -0.0539
 5432TIP3    H140491   0.916   5.965   8.767  0.1748 -0.5241  0.6175
 5432TIP3    H240492   0.815   5.947   8.878 -2.7196 -0.8435 -1.9514
 5433TIP3   OH240493   5.062   5.075   8.053  0.0833 -0.2712 -0.5046
 5433TIP3    H140494   4.985   5.095   8.106 -0.2011 -1.5646 -0.4002
 5433TIP3    H240495   5.118   5.153   8.062  0.0672 -0.4518  1.7231
 5434TIP3   OH240496   2.283   2.751   8.507 -0.1193  0.2417 -0.5290
 5434TIP3    H140497   2.244   2.664   8.508 -0.6421  0.4727 -0.2297
 5434TIP3    H240498   2.231   2.800   8.443  1.4156 -0.2081 -2.1833
 5435TIP3   OH240499   2.632   4.408   6.765  0.4576  0.1916 -0.5815
 5435TIP3    H140500   2.685   4.487   6.773  0.3970  0.1651  0.2570
 5435TIP3    H240501   2.606   4.388   6.855  0.7402 -0.9728 -0.7448
 5436TIP3   OH240502   2.789   4.911   6.256  0.1397  0.3517  0.2794
 5436TIP3    H140503   2.732   4.863   6.317  0.2206  0.7691  0.6847
 5436TIP3    H240504   2.877   4.876   6.272  0.1329  0.3260  0.2628
 5437TIP3   OH240505   6.419   4.109   6.523 -0.3019  0.1146 -0.3493
 5437TIP3    H140506   6.444   4.028   6.566  1.3763  0.3296 -0.8451
 5437TIP3    H240507   6.465   4.107   6.439 -0.4069  1.4684 -0.4652
 5438TIP3   OH240508   5.431   4.780   6.521 -0.9091 -0.5781 -0.5662
 5438TIP3    H140509   5.486   4.850   6.557 -1.0940 -1.2331  1.0612
 5438TIP3    H240510   5.343   4.818   6.520 -0.7222 -0.1518 -1.4658
 5439TIP3   OH240511   1.790   6.597   6.415  1.2241 -0.2311  0.1639
 5439TIP3    H140512   1.712   6.551   6.384  0.7973  0.9821 -0.6401
 5439TIP3    H240513   1.780   6.601   6.510 -0.4582  1.1858 -0.0375
 5440TIP3   OH240514   1.919   4.176   6.920 -0.2531 -0.7060 -0.5295
 5440TIP3    H140515   1.895   4.207   6.833 -1.3784 -1.7140 -0.5990
 5440TIP3    H240516   2.001   4.222   6.940 -2.1142  2.8522 -0.3136
 5441TIP3   OH240517   4.841   2.254   6.351  0.2925 -0.0434  0.1374
 5441TIP3    H140518   4.816   2.320   6.415 -0.5115  0.5487 -0.7551
 5441TIP3    H240519   4.897   2.300   6.289  1.3188 -0.6840  0.5611
 5442TIP3   OH240520   5.565   0.652   6.678  0.2387  0.3076  0.2600
 5442TIP3    H140521   5.539   0.560   6.682 -1.9160  0.9136  1.8513
 5442TIP3    H240522   5.573   0.671   6.585 -0.5332 -1.1824 -0.1367
 5443TIP3   OH240523   5.526   2.564   6.337  0.1947 -0.4307 -0.1551
 5443TIP3    H140524   5.444   2.522   6.363 -0.9423  0.4969 -2.0231
 5443TIP3    H240525   5.587   2.544   6.408 -1.3229 -2.0824  0.7583
 5444TIP3   OH240526   4.707   0.312   6.901 -0.0824  0.0225 -0.2623
 5444TIP3    H140527   4.720   0.284   6.811  0.0569  0.9382 -0.5352
 5444TIP3    H240528   4.653   0.392   6.894  0.3661  0.3976  0.4266
 5445TIP3   OH240529   0.992   2.699   6.175  0.1436  0.0097 -0.4271
 5445TIP3    H140530   1.043   2.630   6.217 -1.5823 -0.8539  0.3519
 5445TIP3    H240531   0.916   2.654   6.137 -1.1310  1.4596  0.2882
 5446TIP3   OH240532   6.346   2.933   7.858  0.0875 -0.3047  0.2073
 5446TIP3    H140533   6.372   2.841   7.863 -0.8049 -0.4961  3.0624
 5446TIP3    H240534   6.281   2.936   7.788  0.1763 -1.8451  0.0290
 5447TIP3   OH240535   2.191   4.888   6.264  0.2784  0.3257 -0.1312
 5447TIP3    H140536   2.133   4.957   6.234  0.5037  1.0523  1.0404
 5447TIP3    H240537   2.240   4.862   6.186  0.1141  1.4136 -0.6115
 5448TIP3   OH240538   5.791   2.759   6.613  0.0192  0.1024  0.3959
 5448TIP3    H140539   5.704   2.727   6.637 -0.6061  0.4253 -1.3026
 5448TIP3    H240540   5.851   2.715   6.674 -1.1842 -1.3445  0.5783
 5449TIP3   OH240541   2.346   5.101   6.625 -0.5418 -0.6933  0.5803
 5449TIP3    H140542   2.388   5.143   6.700  1.2592  1.7116 -1.6137
 5449TIP3    H240543   2.265   5.150   6.612 -0.1336 -0.1268  0.1117
 5450TIP3   OH240544   5.413   4.797   6.869  0.0481  0.3915 -0.3198
 5450TIP3    H140545   5.488   4.818   6.925  1.1454 -2.0032 -0.7577
 5450TIP3    H240546   5.402   4.874   6.814  0.7910  1.6499  1.1998
 5451TIP3   OH240547   6.317   1.554   8.000  0.0783  0.0198  0.4181
 5451TIP3    H140548   6.264   1.483   7.965  1.2525 -0.8431  0.3409
 5451TIP3    H240549   6.333   1.529   8.092  0.2431  0.3204  0.4736
 5452TIP3   OH240550   4.857   5.693   8.809  0.0892  0.0489  0.5421
 5452TIP3    H140551   4.882   5.601   8.798 -1.8509 -0.5629  0.9085
 5452TIP3    H240552   4.925   5.729   8.866  1.6149 -0.7789 -0.6680
 5453TIP3   OH240553   6.244   4.125   9.102  0.0448 -0.5306 -0.2212
 5453TIP3    H140554   6.191   4.082   9.034  0.7867  1.3459 -2.1086
 5453TIP3    H240555   6.191   4.199   9.130  0.1825 -0.7162  0.5606
 5454TIP3   OH240556   5.336   2.105   6.611  0.6474 -0.1690  0.0985
 5454TIP3    H140557   5.350   2.038   6.544  1.3680 -0.2902  0.3701
 5454TIP3    H240558   5.249   2.141   6.591  0.4006 -0.9448 -0.2552
 5455TIP3   OH240559   0.883   0.130   8.349  0.8183 -0.4696  0.4979
 5455TIP3    H140560   0.806   0.176   8.383  1.6572  1.2627  0.1734
 5455TIP3    H240561   0.868   0.038   8.371 -3.1544 -0.9162 -2.8519
 5456TIP3   OH240562   2.834   3.187   8.839  0.4014 -0.4850 -0.2734
 5456TIP3    H140563   2.774   3.194   8.764  0.3734  1.4999 -0.1291
 5456TIP3    H240564   2.790   3.126   8.898 -0.6586 -0.3822 -0.9130
 5457TIP3   OH240565   0.334   4.794   6.209 -0.1528  0.1015  0.1877
 5457TIP3    H140566   0.253   4.830   6.244 -1.3155 -0.7455 -1.4737
 5457TIP3    H240567   0.369   4.864   6.153 -1.3574 -0.5367 -1.4499
 5458TIP3   OH240568   1.299   1.240   7.233 -0.0749  0.0940 -0.6954
 5458TIP3    H140569   1.204   1.253   7.223 -0.2508 -1.0345 -0.6319
 5458TIP3    H240570   1.319   1.166   7.175  0.4253 -0.9423  0.7496
 5459TIP3   OH240571   0.414   4.244   7.578  0.2364 -0.7645  0.5982
 5459TIP3    H140572   0.375   4.156   7.582 -1.0673 -0.2099  0.6338
 5459TIP3    H240573   0.358   4.292   7.517  1.6279 -0.2781 -0.3585
 5460TIP3   OH240574   5.409   5.579   6.586 -0.0250  0.8773 -0.4509
 5460TIP3    H140575   5.416   5.513   6.517  0.1249  0.8134 -0.3753
 5460TIP3    H240576   5.380   5.658   6.541 -1.0818  0.5260 -0.4040
 5461TIP3   OH240577   5.781   5.804   8.465  0.0467  0.4946 -0.0858
 5461TIP3    H140578   5.844   5.776   8.531 -1.8397 -0.3625  1.4243
 5461TIP3    H240579   5.748   5.888   8.497 -2.2285 -0.7696  1.1603
 5462TIP3   OH240580   2.830   3.277   7.043  0.0601  0.1736  0.8456
 5462TIP3    H140581   2.875   3.232   7.114  0.7961 -0.2263  0.1449
 5462TIP3    H240582   2.738   3.251   7.053 -0.0361  0.9549  2.2595
 5463TIP3   OH240583   1.995   3.632   6.173 -0.3142 -0.1867  1.4770
 5463TIP3    H140584   2.004   3.558   6.112 -0.9855  0.7242  0.2296
 5463TIP3    H240585   2.084   3.667   6.182 -0.0765 -0.8310  1.6842
 5464TIP3   OH240586   2.417   2.307   7.457 -0.0415 -0.1943 -0.2867
 5464TIP3    H140587   2.350   2.306   7.525 -0.2363 -1.0224 -0.4824
 5464TIP3    H240588   2.488   2.359   7.494 -0.5342  0.1674  0.1666
 5465TIP3   OH240589   0.461   1.482   6.826 -0.3769 -0.4455  0.0724
 5465TIP3    H140590   0.474   1.577   6.822  0.0831 -0.4350  1.2534
 5465TIP3    H240591   0.532   1.446   6.772 -0.2444 -0.1323  0.0348
 5466TIP3   OH240592   5.795   0.305   6.466  0.3910  0.5569 -0.4450
 5466TIP3    H140593   5.800   0.224   6.517 -0.7048  0.2391 -0.8307
 5466TIP3    H240594   5.859   0.294   6.396  1.3268  0.6640  0.3667
 5467TIP3   OH240595   3.914   4.254   7.808 -0.5846 -0.0628  0.0864
 5467TIP3    H140596   3.940   4.313   7.879 -0.1336 -0.0021 -0.1306
 5467TIP3    H240597   3.831   4.217   7.838 -0.4458  0.0341  0.6036
 5468TIP3   OH240598   6.252   1.759   5.951 -0.3239  0.3916 -1.2753
 5468TIP3    H140599   6.265   1.745   6.044 -0.1172  0.9726 -1.2125
 5468TIP3    H240600   6.252   1.671   5.913  0.9775  0.2190 -0.9084
 5469TIP3   OH240601   4.777   3.950   8.622  0.3661 -0.0152 -0.0533
 5469TIP3    H140602   4.696   3.975   8.667  0.2850 -1.4252  0.6385
 5469TIP3    H240603   4.754   3.869   8.575  1.1289  0.0903 -0.6310
 5470TIP3   OH240604   0.694   6.534   7.498 -0.3305 -0.0624 -0.9804
 5470TIP3    H140605   0.735   6.554   7.582 -2.6477  1.5243 -0.1064
 5470TIP3    H240606   0.623   6.599   7.490 -1.7059 -1.6789 -3.0224
 5471TIP3   OH240607   5.452   4.212   7.593 -0.5489 -0.1661 -0.2909
 5471TIP3    H140608   5.403   4.232   7.514  0.9120  2.4741 -0.6634
 5471TIP3    H240609   5.428   4.282   7.655  1.5093  0.3197  0.0323
 5472TIP3   OH240610   0.776   0.174   7.043 -0.2925 -0.2458  0.1857
 5472TIP3    H140611   0.733   0.101   6.999 -0.1561 -0.9401  1.1693
 5472TIP3    H240612   0.815   0.136   7.122  0.8966  0.6458  0.0642
 5473TIP3   OH240613   2.902   5.584   8.722 -0.5243  0.2994 -0.3320
 5473TIP3    H140614   2.849   5.663   8.734  2.4314  2.6602 -1.4683
 5473TIP3    H240615   2.989   5.609   8.752  0.8633 -2.0565 -2.0486
 5474TIP3   OH240616   1.696   1.073   6.396 -0.2092  0.1012 -0.3989
 5474TIP3    H140617   1.607   1.049   6.372 -0.2444 -0.5982  0.4077
 5474TIP3    H240618   1.749   1.044   6.322 -0.5699 -0.0846 -0.5871
 5475TIP3   OH240619   6.694   1.882   6.981 -0.1370  0.4277 -0.1283
 5475TIP3    H140620   6.681   1.912   7.071  1.3446  1.0514 -0.0885
 5475TIP3    H240621   6.713   1.788   6.989 -0.9169  0.2798  0.1031
 5476TIP3   OH240622   4.617   6.412   9.426 -0.3897 -0.0909  0.4974
 5476TIP3    H140623   4.671   6.459   9.364  0.8782 -1.9942  0.0689
 5476TIP3    H240624   4.534   6.460   9.428  0.0613  0.8477 -1.5383
 5477TIP3   OH240625   3.196   0.589   7.796  0.0573  0.4402 -0.6141
 5477TIP3    H140626   3.185   0.605   7.702 -0.6797  1.0250 -0.4364
 5477TIP3    H240627   3.109   0.568   7.828 -0.0153  1.8708  0.2265
 5478TIP3   OH240628   3.857   0.279   7.290 -0.1558 -0.1448  0.0025
 5478TIP3    H140629   3.786   0.281   7.225  0.1438 -0.4338 -0.3359
 5478TIP3    H240630   3.902   0.196   7.273 -0.5214 -0.5699  1.0570
 5479TIP3   OH240631   4.542   0.859   6.850 -0.0243  0.5531 -0.3133
 5479TIP3    H140632   4.571   0.816   6.770  1.4551 -0.6503  0.8056
 5479TIP3    H240633   4.601   0.826   6.918 -1.3846  1.3389  1.3352
 5480TIP3   OH240634   5.755   5.065   8.319  0.0828 -0.1409 -0.1044
 5480TIP3    H140635   5.837   5.054   8.369 -1.1326  0.5412  2.1712
 5480TIP3    H240636   5.689   5.021   8.372 -1.5986  2.1376 -0.1671
 5481TIP3   OH240637   5.622   3.034   8.212 -0.2269 -0.3677  0.4848
 5481TIP3    H140638   5.689   3.045   8.280  0.2624 -0.7249  0.0744
 5481TIP3    H240639   5.657   2.965   8.155 -1.7539 -1.8782  1.2671
 5482TIP3   OH240640   0.834   5.578   7.268 -0.0831 -0.1015 -0.6633
 5482TIP3    H140641   0.855   5.616   7.183 -1.1310 -0.6575 -1.1925
 5482TIP3    H240642   0.744   5.546   7.258 -0.1281 -0.4017  0.5742
 5483TIP3   OH240643   0.991   1.188   6.002  0.2030  0.6265  0.0453
 5483TIP3    H140644   1.060   1.191   5.935 -1.0631 -0.8878 -1.4527
 5483TIP3    H240645   1.015   1.114   6.058 -0.3264 -0.1469 -0.7058
 5484TIP3   OH240646   4.555   4.374   7.592  0.0416 -0.2489  0.0950
 5484TIP3    H140647   4.530   4.417   7.674  2.4174  0.0405  0.7374
 5484TIP3    H240648   4.527   4.283   7.603  0.9585 -0.3780  1.5533
 5485TIP3   OH240649   3.603   3.970   6.437  0.2029  0.0259  0.0742
 5485TIP3    H140650   3.593   3.942   6.346  0.8196  0.8578 -0.2599
 5485TIP3    H240651   3.676   3.917   6.470 -0.5838 -0.9015  0.3591
 5486TIP3   OH240652   5.738   5.393   6.582  0.0295  0.0784 -0.7689
 5486TIP3    H140653   5.823   5.357   6.608  0.6846  1.1131 -1.3989
 5486TIP3    H240654   5.676   5.353   6.643  0.6253 -2.4224 -1.6995
 5487TIP3   OH240655   3.203   5.481   6.749 -0.0794  0.2798 -0.2747
 5487TIP3    H140656   3.170   5.399   6.783  0.6925  0.0331 -0.0894
 5487TIP3    H240657   3.152   5.549   6.794  0.1660 -0.0671  0.5541
 5488TIP3   OH240658   0.591   6.614   6.331  0.3358 -0.6798  0.1249
 5488TIP3    H140659   0.504   6.638   6.299  0.1592  0.3340  1.2738
 5488TIP3    H240660   0.598   6.520   6.314 -0.4439 -0.5292 -1.1876
 5489TIP3   OH240661   0.353   2.749   7.983 -0.5904 -0.4377 -0.3335
 5489TIP3    H140662   0.345   2.700   8.065 -0.4915 -0.6347 -0.4395
 5489TIP3    H240663   0.445   2.740   7.958 -0.9780 -1.8847 -1.3821
 5490TIP3   OH240664   4.454   3.072   7.392 -0.1128  0.2574  0.0981
 5490TIP3    H140665   4.374   3.028   7.366  0.4846 -1.2063  0.6644
 5490TIP3    H240666   4.485   3.114   7.312  0.7827 -2.7216 -1.2471
 5491TIP3   OH240667   2.553   2.678   6.921 -0.4426  0.5460  0.6403
 5491TIP3    H140668   2.565   2.592   6.881  2.3285  1.4136 -0.6363
 5491TIP3    H240669   2.459   2.694   6.914 -1.1906 -2.5979  1.5405
 5492TIP3   OH240670   3.421   6.001   6.786  0.1235 -0.4716  0.0795
 5492TIP3    H140671   3.341   5.970   6.742  0.3457  0.7540 -1.2462
 5492TIP3    H240672   3.491   5.982   6.724  0.5880  0.3872  0.3351
 5493TIP3   OH240673   4.306   0.989   6.897  0.2527 -0.1091  0.4415
 5493TIP3    H140674   4.264   0.935   6.964 -1.4599 -0.0800 -0.5647
 5493TIP3    H240675   4.389   0.945   6.879  0.7958 -0.0801  2.6074
 5494TIP3   OH240676   6.640   5.563   9.536  0.1288  0.1631 -0.6429
 5494TIP3    H140677   6.654   5.599   9.448  0.6961  0.8194 -0.2973
 5494TIP3    H240678   6.573   5.496   9.524  1.6907 -1.2501 -1.9482
 5495TIP3   OH240679   4.851   4.395   6.739  0.0033  0.5989  0.1435
 5495TIP3    H140680   4.873   4.353   6.655 -0.2911  1.6097 -0.4574
 5495TIP3    H240681   4.934   4.400   6.786  0.3800  1.0146 -0.5517
 5496TIP3   OH240682   1.827   5.648   8.501 -0.0874  0.3109  0.1992
 5496TIP3    H140683   1.759   5.696   8.549  0.3303  2.9900 -1.6277
 5496TIP3    H240684   1.877   5.603   8.568 -2.3212  0.0408  1.7945
 5497TIP3   OH240685   4.544   5.913   8.416  0.0617  0.3724  0.1419
 5497TIP3    H140686   4.600   5.982   8.450  0.0490  0.6788 -0.4305
 5497TIP3    H240687   4.597   5.834   8.419 -0.4845  0.0470  2.3858
 5498TIP3   OH240688   3.635   6.008   7.880 -0.7847  0.3496  0.0105
 5498TIP3    H140689   3.636   5.973   7.791  3.1194  1.1956 -0.4506
 5498TIP3    H240690   3.685   5.945   7.931 -0.4425  1.3331  0.9266
 5499TIP3   OH240691   0.154   0.892   7.127  0.2476 -0.1896  0.5795
 5499TIP3    H140692   0.190   0.881   7.215  1.8680  0.9118  0.0833
 5499TIP3    H240693   0.172   0.983   7.104  0.3601 -0.5999 -1.1083
 5500TIP3   OH240694   1.861   1.155   7.140  0.0665 -0.9573 -0.2481
 5500TIP3    H140695   1.807   1.213   7.194  0.8982  1.1657 -1.5701
 5500TIP3    H240696   1.945   1.151   7.186  0.3145 -0.2921 -0.6190
 5501TIP3   OH240697   0.631   1.433   7.719 -0.6692 -0.3866  0.3680
 5501TIP3    H140698   0.677   1.384   7.787 -0.2405  0.4698  0.7251
 5501TIP3    H240699   0.538   1.426   7.742 -0.4928  0.3746  1.3975
 5502TIP3   OH240700   4.486   5.317   6.816 -0.1300  0.1752 -0.0251
 5502TIP3    H140701   4.554   5.309   6.748  0.1829 -2.2062  0.4586
 5502TIP3    H240702   4.486   5.231   6.859 -1.4876  1.0728  1.8907
 5503TIP3   OH240703   5.863   4.523   8.454  0.6096  0.1323 -0.0026
 5503TIP3    H140704   5.792   4.501   8.393  0.1421  2.1531 -0.2463
 5503TIP3    H240705   5.880   4.441   8.501 -1.3886 -0.5894 -0.4311
 5504TIP3   OH240706   4.959   4.847   9.447  0.8419  0.6364 -0.6304
 5504TIP3    H140707   5.038   4.814   9.489  0.6959  1.2689  0.1561
 5504TIP3    H240708   4.932   4.776   9.389  0.9895 -0.3055  0.4103
 5505TIP3   OH240709   2.984   2.254   6.063 -0.3943 -0.4100  0.7019
 5505TIP3    H140710   3.044   2.211   6.124  1.9739  1.7993  0.1267
 5505TIP3    H240711   3.020   2.233   5.976 -0.4986  0.8697  0.3352
 5506TIP3   OH240712   1.870   0.279   7.351 -0.0423 -0.7413 -0.1924
 5506TIP3    H140713   1.883   0.220   7.426 -0.0543 -0.1833  0.2614
 5506TIP3    H240714   1.831   0.224   7.283 -1.9390 -0.8264  0.9026
 5507TIP3   OH240715   4.471   5.750   5.792 -0.0288 -0.6005 -1.0035
 5507TIP3    H140716   4.541   5.816   5.795  0.3371 -0.9812  2.5640
 5507TIP3    H240717   4.517   5.666   5.799 -0.7073 -1.0803 -2.0672
 5508TIP3   OH240718   3.897   0.634   7.926 -0.1309 -0.2878  0.0682
 5508TIP3    H140719   3.908   0.729   7.923 -1.0813 -0.1353  0.7914
 5508TIP3    H240720   3.928   0.603   7.842 -3.0729  1.0348 -1.6747
 5509TIP3   OH240721   1.576   5.362   7.435 -0.1468  0.1604  0.2559
 5509TIP3    H140722   1.598   5.327   7.522 -1.4410  0.3270  0.6728
 5509TIP3    H240723   1.619   5.447   7.432  0.1835  0.0086  0.5959
 5510TIP3   OH240724   5.583   2.103   7.497  0.0934 -0.0644  0.2979
 5510TIP3    H140725   5.672   2.127   7.525  0.8185  1.7131 -3.1006
 5510TIP3    H240726   5.534   2.185   7.499 -0.3645 -0.2615 -1.4570
 5511TIP3   OH240727   5.711   5.888   8.016 -0.1603  0.6305  0.1774
 5511TIP3    H140728   5.673   5.976   8.015 -2.3192 -0.2376 -0.5956
 5511TIP3    H240729   5.772   5.888   7.942  1.0375  1.9033  1.1115
 5512TIP3   OH240730   0.629   2.659   7.915 -0.4866  0.3359 -0.9490
 5512TIP3    H140731   0.636   2.606   7.835 -1.6265 -0.1777 -0.7331
 5512TIP3    H240732   0.640   2.596   7.986 -2.5482  0.2163 -0.6755
 5513TIP3   OH240733   0.900   1.367   6.214  0.1530 -0.2695 -0.1383
 5513TIP3    H140734   0.993   1.388   6.217  0.6766 -2.2802 -0.3914
 5513TIP3    H240735   0.887   1.331   6.126 -0.7557 -0.3856  0.0356
 5514TIP3   OH240736   5.100   3.528   5.973  0.1668  0.4533 -0.1475
 5514TIP3    H140737   5.191   3.542   5.949 -0.2373  0.0472 -2.0580
 5514TIP3    H240738   5.073   3.451   5.924 -0.9296 -0.0705  1.1985
 5515TIP3   OH240739   3.238   4.309   8.726 -0.7865 -0.1443  0.2728
 5515TIP3    H140740   3.325   4.340   8.752 -1.3021  1.8441 -0.1790
 5515TIP3    H240741   3.212   4.367   8.654 -1.8645 -1.6803 -0.6269
 5516TIP3   OH240742   5.967   3.585   9.040  0.0339  0.0473 -0.2990
 5516TIP3    H140743   6.012   3.666   9.064  0.6081  0.2931 -2.0503
 5516TIP3    H240744   5.921   3.606   8.959 -0.3360 -1.1880 -0.4388
 5517TIP3   OH240745   2.924   5.341  15.962 -0.3229  0.2534 -0.1229
 5517TIP3    H140746   2.962   5.400  16.027  2.2211 -0.8476 -0.4966
 5517TIP3    H240747   2.895   5.399  15.891  0.0080  1.2139  0.5175
 5518TIP3   OH240748   0.900   4.554   7.436 -0.6671  0.7423  0.0088
 5518TIP3    H140749   0.881   4.481   7.376 -0.2679  0.6448  0.0024
 5518TIP3    H240750   0.833   4.619   7.415 -1.1873  0.2768  0.1917
 5519TIP3   OH240751   0.765   4.787   7.374 -0.2059  0.5542 -0.1554
 5519TIP3    H140752   0.769   4.879   7.399  2.7432  0.2508  0.7897
 5519TIP3    H240753   0.687   4.754   7.420  0.8540  1.7454  2.7355
 5520TIP3   OH240754   0.093   0.192   7.938 -0.7017  0.0288  0.2691
 5520TIP3    H140755   0.123   0.231   8.020 -0.5474 -0.4657  0.4517
 5520TIP3    H240756   0.078   0.266   7.880 -2.6915  0.5563  1.3448
 5521TIP3   OH240757   4.143   6.447   5.576 -0.3070  0.4566 -0.5561
 5521TIP3    H140758   4.157   6.535   5.611  0.5422 -0.0710  0.4956
 5521TIP3    H240759   4.151   6.458   5.481 -0.1395  1.4999 -0.4365
 5522TIP3   OH240760   2.750   1.483   7.716  0.2010 -0.6803  0.0142
 5522TIP3    H140761   2.798   1.536   7.779 -1.1129 -0.0405  0.4992
 5522TIP3    H240762   2.748   1.536   7.636 -1.5147  0.2745  0.6357
 5523TIP3   OH240763   5.941   1.855   6.791 -0.0595 -0.0279  0.1253
 5523TIP3    H140764   5.883   1.845   6.867  0.2524  0.9215  0.4935
 5523TIP3    H240765   5.893   1.914   6.732 -0.0350 -0.2888 -0.1644
 5524TIP3   OH240766   1.969   5.341   6.060 -0.2661 -0.8238 -0.5318
 5524TIP3    H140767   1.951   5.378   6.146 -3.0152 -0.6868 -1.0563
 5524TIP3    H240768   1.904   5.272   6.050  0.3443 -1.1904 -2.2901
 5525TIP3   OH240769   1.913   1.497   6.093 -0.2537 -0.4320  0.3758
 5525TIP3    H140770   1.858   1.531   6.022  0.3739  1.5353  0.7556
 5525TIP3    H240771   1.975   1.568   6.111  0.6279 -1.5116  1.8187
 5526TIP3   OH240772   3.046   1.043   7.093 -0.2155 -0.3117  0.0018
 5526TIP3    H140773   3.020   1.126   7.134 -2.5015  0.4230 -2.6523
 5526TIP3    H240774   2.988   0.978   7.131  0.0845 -0.3073  0.4780
 5527TIP3   OH240775   0.739   1.272   7.912  0.1345 -0.0858  0.0071
 5527TIP3    H140776   0.807   1.217   7.872 -0.1842 -0.9724  0.6478
 5527TIP3    H240777   0.679   1.210   7.953 -0.7423  0.7139 -0.0313
 5528TIP3   OH240778   3.951   2.550   8.561 -0.4150 -0.5051  0.4684
 5528TIP3    H140779   3.908   2.464   8.567 -1.1299 -0.1798  0.0867
 5528TIP3    H240780   3.992   2.562   8.647 -0.4903 -1.1338  0.6005
 5529TIP3   OH240781   5.173   3.412  14.832 -0.0003 -0.2552  0.8631
 5529TIP3    H140782   5.193   3.471  14.904 -3.3366  2.2954 -0.0348
 5529TIP3    H240783   5.088   3.373  14.855  0.4748 -2.0583 -0.1978
 5530TIP3   OH240784   3.427   0.609   7.275  0.2825  0.4922 -0.0829
 5530TIP3    H140785   3.373   0.675   7.319  0.6566  1.0389 -0.4329
 5530TIP3    H240786   3.428   0.636   7.183 -2.0772 -1.6653 -0.8662
 5531TIP3   OH240787   1.038   2.419   7.525 -0.0303 -0.0170 -0.1988
 5531TIP3    H140788   1.024   2.499   7.575 -1.2022 -1.1922  1.4374
 5531TIP3    H240789   1.117   2.379   7.563  0.6981  0.4360 -1.1734
 5532TIP3   OH240790   2.177   4.433   8.817 -0.1016  0.1943 -0.0168
 5532TIP3    H140791   2.241   4.363   8.801  0.2916  0.9468 -2.0690
 5532TIP3    H240792   2.227   4.501   8.862 -0.3340 -0.5569  1.4291
 5533TIP3   OH240793   3.026   4.901   5.940 -0.2740  0.0590 -0.3981
 5533TIP3    H140794   2.946   4.872   5.895  1.4359 -1.7586 -2.5453
 5533TIP3    H240795   3.050   4.826   5.995  0.8193 -0.0973 -1.0680
 5534TIP3   OH240796   0.348   2.541   7.375 -0.1222  0.0554 -0.0429
 5534TIP3    H140797   0.348   2.545   7.471 -0.0133 -0.1621 -0.0334
 5534TIP3    H240798   0.357   2.632   7.347  0.9882  0.0253  0.1588
 5535TIP3   OH240799   2.549   6.333   8.098 -0.4364  0.1951 -0.0143
 5535TIP3    H140800   2.521   6.389   8.171 -0.4261  0.6916 -0.3841
 5535TIP3    H240801   2.612   6.272   8.137 -0.4024  0.4797  0.3811
 5536TIP3   OH240802   2.371   6.093   7.097  0.5108 -0.3961  0.4846
 5536TIP3    H140803   2.333   6.163   7.151  0.8186 -1.6218  2.3872
 5536TIP3    H240804   2.328   6.103   7.011 -0.4100  1.2977  1.0931
 5537TIP3   OH240805   2.402   0.198   6.626 -0.3023 -0.5605  0.5671
 5537TIP3    H140806   2.454   0.267   6.584 -0.4235 -0.5600  0.4135
 5537TIP3    H240807   2.322   0.193   6.572 -0.5336 -0.4449  0.8977
 5538TIP3   OH240808   5.119   2.623   5.644  0.8234  0.7009  0.4204
 5538TIP3    H140809   5.153   2.580   5.723 -0.9406 -0.3878  0.6512
 5538TIP3    H240810   5.143   2.564   5.572  1.5643  1.1875  0.2644
 5539TIP3   OH240811   5.169   2.654   8.598  0.0018 -0.1004  0.1200
 5539TIP3    H140812   5.247   2.652   8.653 -0.1514 -0.4939  0.3251
 5539TIP3    H240813   5.130   2.568   8.608 -0.9671  0.3920  0.7373
 5540TIP3   OH240814   5.034   5.895   6.310  0.1123  0.4986  0.1491
 5540TIP3    H140815   4.943   5.867   6.302 -0.0226  0.9625  0.0198
 5540TIP3    H240816   5.082   5.816   6.336 -0.4477  0.4180  0.9888
 5541TIP3   OH240817   2.013   5.076   9.481  0.3763  0.0415 -0.5721
 5541TIP3    H140818   2.007   5.122   9.397  0.1599  0.3633 -0.3838
 5541TIP3    H240819   1.935   5.021   9.484 -0.9601  1.8921  0.5010
 5542TIP3   OH240820   3.897   5.110   9.042 -0.2521  0.3390  0.1956
 5542TIP3    H140821   3.879   5.200   9.013 -0.2592  0.1591 -0.3589
 5542TIP3    H240822   3.821   5.087   9.096 -0.0851  0.7912  0.6357
 5543TIP3   OH240823   0.413   1.109   7.242 -0.5924  0.3511 -0.1451
 5543TIP3    H140824   0.431   1.037   7.182  0.3038  0.3853  0.0743
 5543TIP3    H240825   0.389   1.182   7.184 -0.7493  0.0995 -0.4020
 5544TIP3   OH240826   4.644   5.970   9.227 -0.5618 -0.3787 -0.1918
 5544TIP3    H140827   4.559   5.941   9.194  0.1689 -2.1877 -0.5919
 5544TIP3    H240828   4.674   5.898   9.283  0.6637  0.2790  0.0381
 5545TIP3   OH240829   4.308   0.184   5.870 -0.2144 -0.7896 -0.0166
 5545TIP3    H140830   4.245   0.250   5.898 -0.0328 -0.0472 -1.2373
 5545TIP3    H240831   4.382   0.194   5.929 -0.9405 -1.1701  0.9692
 5546TIP3   OH240832   4.949   1.342   7.027 -0.2330  0.3556 -0.1034
 5546TIP3    H140833   5.035   1.339   7.069 -0.2282  1.8507  0.0451
 5546TIP3    H240834   4.930   1.250   7.005  1.2182 -0.0446  0.1965
 5547TIP3   OH240835   0.510   2.768   5.861 -0.0824  0.1608  0.2921
 5547TIP3    H140836   0.569   2.751   5.934 -0.6172  0.6589  0.8592
 5547TIP3    H240837   0.549   2.843   5.816 -1.1398  1.6648  1.7107
 5548TIP3   OH240838   4.920   5.840   7.516  0.2080  0.4171 -0.3010
 5548TIP3    H140839   5.001   5.853   7.565  0.6829  0.2738 -1.0221
 5548TIP3    H240840   4.887   5.755   7.544  0.5047  0.3117 -0.2727
 5549TIP3   OH240841   0.065   3.649   6.241  0.0193  0.0957  0.3266
 5549TIP3    H140842  -0.002   3.581   6.251  0.5993 -0.3323  1.4898
 5549TIP3    H240843   0.140   3.616   6.290  1.1221  0.5435 -0.9773
 5550TIP3   OH240844   1.242   0.401   7.118  0.2519  0.1927  0.1381
 5550TIP3    H140845   1.156   0.431   7.148 -0.4028 -0.9263 -0.5678
 5550TIP3    H240846   1.230   0.385   7.024  1.7563  1.8377 -0.3864
 5551TIP3   OH240847   4.931   3.590   7.456 -0.1501 -1.1531  0.4435
 5551TIP3    H140848   4.949   3.501   7.423  0.1254 -1.4110  1.2705
 5551TIP3    H240849   4.857   3.579   7.515  3.0624 -1.8809  4.8385
 5552TIP3   OH240850   0.911   4.769   8.790 -0.3649 -0.0211 -0.0824
 5552TIP3    H140851   0.841   4.715   8.753  0.6290 -0.2995 -1.6398
 5552TIP3    H240852   0.873   4.857   8.796 -1.5291 -0.5637  1.1507
 5553TIP3   OH240853   1.390   2.617   5.766 -0.4252 -0.0925 -0.4323
 5553TIP3    H140854   1.312   2.609   5.822 -0.7014 -0.2648 -0.8389
 5553TIP3    H240855   1.386   2.542   5.708  0.3879 -0.4491 -0.0470
 5554TIP3   OH240856   4.148   5.263   5.843  0.4535  0.3445  0.6355
 5554TIP3    H140857   4.066   5.304   5.871  0.1594 -1.2214  2.2490
 5554TIP3    H240858   4.127   5.170   5.836  2.0754 -0.0770  1.0303
 5555TIP3   OH240859   2.224   2.465   7.311 -0.5482 -0.5414 -0.5937
 5555TIP3    H140860   2.229   2.427   7.224  3.4189  2.7207 -2.1683
 5555TIP3    H240861   2.286   2.414   7.363 -1.0573 -0.9548 -0.3848
 5556TIP3   OH240862   2.661   3.606   6.631 -0.1237 -0.2572 -0.4706
 5556TIP3    H140863   2.664   3.616   6.535  0.3755  2.2522 -0.2767
 5556TIP3    H240864   2.618   3.522   6.645 -0.1946 -0.7102 -2.8996
 5557TIP3   OH240865   1.430   3.930   8.906  0.2641 -0.3775 -0.3171
 5557TIP3    H140866   1.487   3.862   8.941  2.0203  0.6294 -1.0813
 5557TIP3    H240867   1.439   4.003   8.967 -0.5955 -0.3591 -0.1979
 5558TIP3   OH240868   6.212   2.166   6.624 -0.2585  0.4240  0.1305
 5558TIP3    H140869   6.289   2.215   6.654 -0.8562  1.0470  0.6773
 5558TIP3    H240870   6.201   2.192   6.532  0.1002  0.4410  0.0926
 5559TIP3   OH240871   4.334   4.366   7.793 -0.2490  0.3474 -0.0133
 5559TIP3    H140872   4.356   4.295   7.853 -0.7260  0.6507  0.5319
 5559TIP3    H240873   4.263   4.332   7.739  0.0284  0.1541 -0.2631
 5560TIP3   OH240874   1.275   5.850   6.415  0.2712 -0.5119 -0.1758
 5560TIP3    H140875   1.362   5.832   6.453  1.2893 -0.3324 -2.2979
 5560TIP3    H240876   1.279   5.942   6.389 -0.3507 -0.6592 -0.8103
 5561TIP3   OH240877   1.885   1.897   7.850 -0.2691 -0.1475  0.2055
 5561TIP3    H140878   1.849   1.940   7.773 -0.7584  1.1844  1.1541
 5561TIP3    H240879   1.808   1.867   7.899 -0.0249  0.5052  1.0018
 5562TIP3   OH240880   6.632   5.388   8.483  0.1208  0.1507 -0.0528
 5562TIP3    H140881   6.622   5.293   8.483  0.8367  0.0530 -1.2410
 5562TIP3    H240882   6.551   5.421   8.521 -0.9573 -0.8726 -1.3609
 5563TIP3   OH240883   5.812   5.327   6.314 -0.2423  0.2008 -0.4186
 5563TIP3    H140884   5.764   5.321   6.396 -0.3896  3.7566 -0.1212
 5563TIP3    H240885   5.746   5.315   6.246 -0.8429  1.1274 -0.0045
 5564TIP3   OH240886   4.787   1.540   6.329 -0.0314 -0.0338 -0.4823
 5564TIP3    H140887   4.834   1.618   6.301  1.9171 -1.7457 -2.3647
 5564TIP3    H240888   4.840   1.505   6.401 -0.5486  0.0448 -0.0622
 5565TIP3   OH240889   3.846   6.138   9.290  0.1871  0.5968 -0.3615
 5565TIP3    H140890   3.774   6.099   9.240  0.0339  2.1164 -1.3931
 5565TIP3    H240891   3.803   6.202   9.347  0.5149 -0.1011  0.7000
 5566TIP3   OH240892   0.266   2.878   7.518  0.1678 -0.5264 -0.3259
 5566TIP3    H140893   0.202   2.827   7.566  0.0372  0.8809  1.0550
 5566TIP3    H240894   0.332   2.902   7.583 -0.5740  2.3476 -0.5107
 5567TIP3   OH240895   1.700   6.318   8.131 -0.1815 -0.0696 -0.0933
 5567TIP3    H140896   1.660   6.279   8.054  1.2005  0.5948 -1.1768
 5567TIP3    H240897   1.710   6.411   8.109  0.8269  0.0079  0.6059
 5568TIP3   OH240898   3.039   3.994   5.388  0.0111 -0.3861 -0.6707
 5568TIP3    H140899   2.956   3.991   5.435  0.6763  0.4082  0.5876
 5568TIP3    H240900   3.021   3.946   5.306 -1.3362 -1.2479  0.0833
 5569TIP3   OH240901   4.466   4.652   7.162 -0.2700  0.1200  0.4835
 5569TIP3    H140902   4.408   4.635   7.236  0.6472  0.4956  1.3095
 5569TIP3    H240903   4.430   4.600   7.091 -1.1126 -0.3318  1.2213
 5570TIP3   OH240904   5.181   2.506   7.271  0.1683  0.2740 -0.2050
 5570TIP3    H140905   5.129   2.585   7.281  0.5677  0.7321 -1.5390
 5570TIP3    H240906   5.260   2.523   7.321 -0.9471 -0.4624  1.9076
 5571TIP3   OH240907   0.602   3.076   5.909  0.4996 -0.4383  0.6057
 5571TIP3    H140908   0.527   3.114   5.864 -0.7334 -0.5289  2.4622
 5571TIP3    H240909   0.651   3.151   5.944  0.4694 -0.4203  0.6092
 5572TIP3   OH240910   4.552   4.531   7.866  0.2403  0.2193 -0.3450
 5572TIP3    H140911   4.621   4.510   7.930  0.1294  1.8939  0.3830
 5572TIP3    H240912   4.485   4.464   7.881  0.3006  0.4621  1.1916
 5573TIP3   OH240913   4.944   6.368   6.269  0.8215 -0.5022  0.8493
 5573TIP3    H140914   4.932   6.396   6.360  0.5919 -0.2399  0.7399
 5573TIP3    H240915   4.918   6.276   6.268  0.0121 -0.2848  0.8789
 5574TIP3   OH240916   2.090   4.688   6.418  0.2087 -0.2630 -0.2615
 5574TIP3    H140917   2.007   4.725   6.449  1.6802  2.1004  1.2137
 5574TIP3    H240918   2.119   4.748   6.350  0.4113 -1.4542 -1.2462
 5575TIP3   OH240919   3.041   4.449   6.974 -0.4401  0.0083  0.1542
 5575TIP3    H140920   3.118   4.395   6.991  0.9563  1.4549 -1.2172
 5575TIP3    H240921   2.999   4.460   7.059  0.6419 -1.1449  0.8573
 5576TIP3   OH240922   2.708   2.928   8.242 -0.2166 -0.2662  0.5962
 5576TIP3    H140923   2.673   3.007   8.283  2.5105  1.0646  0.5782
 5576TIP3    H240924   2.689   2.939   8.149  0.2906  0.5015  0.5699
 5577TIP3   OH240925   6.608   3.362   7.858 -0.3047  0.0815  0.4960
 5577TIP3    H140926   6.556   3.309   7.798  1.6503 -1.9953  0.4905
 5577TIP3    H240927   6.617   3.307   7.937  1.9243  0.2427  0.4399
 5578TIP3   OH240928   2.265   2.160   5.778 -0.6296  0.2439 -0.0647
 5578TIP3    H140929   2.277   2.200   5.864  1.0598  0.9513 -0.5923
 5578TIP3    H240930   2.352   2.128   5.753 -0.9119  0.7444 -1.8446
 5579TIP3   OH240931   1.142   4.150   5.744  0.1497  0.9622 -0.2141
 5579TIP3    H140932   1.080   4.155   5.816 -0.1857 -0.2822 -0.3918
 5579TIP3    H240933   1.118   4.221   5.685 -1.9796 -0.2641 -0.9374
 5580TIP3   OH240934   1.636   4.165   7.487 -0.2988 -0.3945 -0.2226
 5580TIP3    H140935   1.714   4.169   7.432  0.5845  0.0224  1.0274
 5580TIP3    H240936   1.666   4.128   7.569 -1.1703  0.7579  0.6593
 5581TIP3   OH240937   3.299   1.183   6.738 -0.1449  0.1261  0.5073
 5581TIP3    H140938   3.212   1.214   6.762 -0.2666 -0.3760  0.7354
 5581TIP3    H240939   3.288   1.142   6.653 -0.0497  0.4062  0.3573
 5582TIP3   OH240940   0.435   0.772   6.073 -0.3738  0.0623  0.0846
 5582TIP3    H140941   0.404   0.706   6.011  0.0517 -0.7297  0.6920
 5582TIP3    H240942   0.478   0.838   6.018  1.4828 -1.4403 -0.3896
 5583TIP3   OH240943   3.183   2.608   6.243  0.1384  0.3014  1.0403
 5583TIP3    H140944   3.123   2.603   6.169  0.9135  0.1936  0.4046
 5583TIP3    H240945   3.163   2.691   6.285 -1.2190 -0.2398  1.5169
 5584TIP3   OH240946   3.070   4.534   7.319  0.1975 -0.3395 -0.0648
 5584TIP3    H140947   3.119   4.547   7.238 -1.0872  1.5551 -0.6127
 5584TIP3    H240948   3.031   4.448   7.310 -0.2049 -0.0193 -1.6588
 5585TIP3   OH240949   0.072   4.243   8.685  0.1225  0.6136 -0.5902
 5585TIP3    H140950  -0.003   4.293   8.653 -0.6183 -0.1427 -0.0784
 5585TIP3    H240951   0.120   4.220   8.606 -0.8786  0.0478 -1.0620
 5586TIP3   OH240952   2.825   4.597   7.893  0.3374 -0.1039  0.2947
 5586TIP3    H140953   2.816   4.624   7.985  0.5134  1.9864 -0.2693
 5586TIP3    H240954   2.876   4.666   7.852 -1.1062 -0.1698 -1.7614
 5587TIP3   OH240955   0.216   5.858   7.311 -0.3659 -0.3428  0.2853
 5587TIP3    H140956   0.280   5.889   7.246 -1.1224 -0.2443 -0.4292
 5587TIP3    H240957   0.139   5.835   7.259 -0.9028 -0.4858  1.1333
 5588TIP3   OH240958   1.862   4.068   5.606  0.5914  0.6875 -0.6107
 5588TIP3    H140959   1.892   4.112   5.686  0.6083  1.4181 -1.0137
 5588TIP3    H240960   1.942   4.052   5.556  0.4298  1.6937 -1.2107
 5589TIP3   OH240961   4.136   0.861   7.987  0.0987 -0.3049 -0.3959
 5589TIP3    H140962   4.058   0.844   8.039 -1.9268  3.9143 -1.6592
 5589TIP3    H240963   4.205   0.876   8.052 -1.3972  0.8914  1.0086
 5590TIP3   OH240964   6.132   0.879   6.321 -0.6580  0.1511  0.6182
 5590TIP3    H140965   6.082   0.949   6.279 -3.2392 -1.0095  1.4855
 5590TIP3    H240966   6.170   0.830   6.249  0.8231  2.1163 -0.0143
 5591TIP3   OH240967   4.732   0.587   7.927 -0.1604  0.5169  0.8155
 5591TIP3    H140968   4.680   0.507   7.925  0.5623 -0.0623 -2.6535
 5591TIP3    H240969   4.670   0.655   7.954 -1.8563 -0.6658  0.1004
 5592TIP3   OH240970   3.326   3.823   9.721  0.4738  0.2877  0.1775
 5592TIP3    H140971   3.306   3.905   9.675  0.0315  1.7183  2.7195
 5592TIP3    H240972   3.263   3.760   9.687  1.4296  0.6849 -2.5147
 5593TIP3   OH240973   5.170   0.969   7.704  0.2464  0.3225  0.1390
 5593TIP3    H140974   5.220   0.973   7.623 -0.0017  1.5536  0.0376
 5593TIP3    H240975   5.187   0.881   7.738  0.3654 -0.2066 -1.2286
 5594TIP3   OH240976   6.123   1.026   6.697  0.2612 -1.0123  0.0490
 5594TIP3    H140977   6.119   1.115   6.732  0.1261 -0.8316 -0.4145
 5594TIP3    H240978   6.180   1.033   6.620 -0.8014 -1.0624 -0.7530
 5595TIP3   OH240979   4.519   0.585   6.630  0.0017  0.0283  0.2383
 5595TIP3    H140980   4.488   0.517   6.571 -1.5878  0.5334  0.4505
 5595TIP3    H240981   4.532   0.540   6.714 -0.3526 -0.1558  0.1962
 5596TIP3   OH240982   2.273   3.750   6.091 -0.2506 -0.1342  0.3579
 5596TIP3    H140983   2.367   3.752   6.069 -0.0858 -1.0249  0.9676
 5596TIP3    H240984   2.265   3.813   6.163 -0.5657  1.7936 -1.2793
 5597TIP3   OH240985   5.937   5.711   6.385  0.6457  0.1248  0.0902
 5597TIP3    H140986   5.844   5.698   6.368  0.6626 -0.1478  0.1919
 5597TIP3    H240987   5.970   5.623   6.403  1.0445  0.1355 -0.5456
 5598TIP3   OH240988   5.159   3.722   7.082 -0.4786  0.0259  0.0185
 5598TIP3    H140989   5.113   3.782   7.141 -0.8980  0.4738 -0.7393
 5598TIP3    H240990   5.233   3.774   7.049 -2.0256  0.9295 -2.2803
 5599TIP3   OH240991   4.618   5.106   7.191  0.2829 -0.1064  0.2419
 5599TIP3    H140992   4.631   5.017   7.157  1.0670 -0.0925  0.4822
 5599TIP3    H240993   4.620   5.162   7.113  3.4209  0.0770  0.3341
 5600TIP3   OH240994   0.879   6.248   9.039 -0.5621 -0.6552  0.2182
 5600TIP3    H140995   0.909   6.172   8.989  1.8795  1.1978 -1.3407
 5600TIP3    H240996   0.950   6.266   9.100 -1.8405 -0.5595  1.7298
 5601TIP3   OH240997   1.941   0.897   5.357  0.4405 -0.2309 -0.2103
 5601TIP3    H140998   2.036   0.891   5.369  0.3644  0.3931  0.8483
 5601TIP3    H240999   1.907   0.815   5.393  0.3080  1.1538  3.1671
 5602TIP3   OH241000   1.540   6.117   7.059  0.2714 -0.2993 -0.2785
 5602TIP3    H141001   1.477   6.116   7.131  0.5970  1.3303  0.0735
 5602TIP3    H241002   1.625   6.118   7.102  0.4595  1.8832 -0.6015
 5603TIP3   OH241003   4.912   5.423   8.255 -0.4891 -0.0768  0.0507
 5603TIP3    H141004   4.877   5.334   8.249  0.8368 -0.5257 -2.5359
 5603TIP3    H241005   4.946   5.441   8.167  2.3881  1.6859  1.3808
 5604TIP3   OH241006   4.268   3.622   8.392  0.4099  0.5158 -0.1848
 5604TIP3    H141007   4.214   3.552   8.353 -2.7949  0.7958  3.0881
 5604TIP3    H241008   4.226   3.703   8.364 -0.0832  0.7922  1.2348
 5605TIP3   OH241009   4.585   5.641   8.155 -0.2543  0.7106 -0.3258
 5605TIP3    H141010   4.606   5.557   8.114  0.9806  0.0984  1.4674
 5605TIP3    H241011   4.511   5.622   8.213  0.6418  0.5874  0.8197
 5606TIP3   OH241012   4.317   5.068   9.033  0.1685 -0.2401  0.3584
 5606TIP3    H141013   4.361   5.152   9.045 -2.1301  1.2378 -0.7310
 5606TIP3    H241014   4.387   5.003   9.039  2.1056  1.7616  0.8452
 5607TIP3   OH241015   4.329   1.364   8.965 -0.2783 -0.1436  0.6544
 5607TIP3    H141016   4.285   1.399   8.888 -1.2273  0.0447  1.2715
 5607TIP3    H241017   4.262   1.362   9.033 -0.3001 -3.1057  0.6914
 5608TIP3   OH241018   2.957   3.288   5.865  0.3972  0.1540 -0.2069
 5608TIP3    H141019   2.891   3.226   5.898  1.7568 -0.3525  1.7150
 5608TIP3    H241020   2.935   3.371   5.910  0.4972  0.2368 -0.3124
 5609TIP3   OH241021   2.077   4.796   8.860  0.4044  0.4963 -0.1097
 5609TIP3    H141022   2.045   4.779   8.771  1.2063  1.6203 -0.6346
 5609TIP3    H241023   2.005   4.767   8.916 -0.7654  1.1568 -1.1845
 5610TIP3   OH241024   1.969   0.293   7.970 -0.1189  0.0497 -0.4359
 5610TIP3    H141025   1.998   0.315   7.881  0.4781  1.4335  0.0832
 5610TIP3    H241026   1.985   0.372   8.021 -0.3069 -0.7787  0.9518
 5611TIP3   OH241027   5.593   5.270   6.778 -0.6793  0.4779 -0.1090
 5611TIP3    H141028   5.589   5.177   6.758  0.7065  0.3109  0.2697
 5611TIP3    H241029   5.503   5.295   6.796 -1.0054 -0.9107  0.2969
 5612TIP3   OH241030   6.026   3.651   5.424 -0.3161 -0.1382 -0.3555
 5612TIP3    H141031   6.010   3.726   5.482  0.0561 -1.3728  1.4242
 5612TIP3    H241032   5.942   3.606   5.419  0.0844 -1.0552  0.7795
 5613TIP3   OH241033   3.158   0.291   7.730  0.1084  0.3986 -0.0788
 5613TIP3    H141034   3.191   0.239   7.803  0.2582 -0.0918 -0.4911
 5613TIP3    H241035   3.146   0.228   7.659 -1.4135  0.6164 -0.0414
 5614TIP3   OH241036   1.269   3.264   7.537  0.1963 -0.0977  0.3955
 5614TIP3    H141037   1.191   3.255   7.591 -1.0976  0.7762 -1.2552
 5614TIP3    H241038   1.340   3.280   7.600 -0.8089 -1.4570  1.9687
 5615TIP3   OH241039   0.506   5.020   6.863 -0.3138  0.9092 -0.1200
 5615TIP3    H141040   0.413   5.003   6.881  0.0193 -0.6462  0.2214
 5615TIP3    H241041   0.542   5.046   6.947 -0.2426  0.6418 -0.0702
 5616TIP3   OH241042   4.970   0.459   7.464 -0.5684 -0.1275  0.2810
 5616TIP3    H141043   4.884   0.496   7.482 -1.0068 -1.1213  0.2688
 5616TIP3    H241044   5.028   0.535   7.460 -1.5057  0.5839 -0.1064
 5617TIP3   OH241045   3.047   4.259   8.427  0.7753 -0.6124 -0.9741
 5617TIP3    H141046   2.966   4.308   8.413  1.7205  1.0494 -0.8926
 5617TIP3    H241047   3.027   4.200   8.499  0.0053  0.6955 -0.0674
 5618TIP3   OH241048   1.176   3.333   6.931  0.1741  0.1097  0.2580
 5618TIP3    H141049   1.164   3.379   7.014  1.9966  1.6371 -0.2769
 5618TIP3    H241050   1.270   3.335   6.915 -0.0752 -0.6549 -1.5880
 5619TIP3   OH241051   1.077   4.433   6.461 -0.3004 -0.0023  0.0021
 5619TIP3    H141052   1.133   4.482   6.521 -1.0161  0.6146  0.1744
 5619TIP3    H241053   0.988   4.447   6.494 -0.5869 -0.7504 -0.4263
 5620TIP3   OH241054   6.091   1.580   5.640  0.4330  0.0151  0.6483
 5620TIP3    H141055   6.142   1.552   5.716 -0.5195  0.8136  1.6171
 5620TIP3    H241056   6.009   1.612   5.677 -0.6679 -0.9327 -0.8328
 5621TIP3   OH241057   3.510   3.972   8.686 -0.2720 -0.0033 -0.2255
 5621TIP3    H141058   3.509   3.953   8.779 -1.0599 -1.6384 -0.5421
 5621TIP3    H241059   3.520   3.887   8.643  0.5288  0.7543 -1.6345
 5622TIP3   OH241060   5.204   6.367   8.765 -0.6895 -0.1712  0.2038
 5622TIP3    H141061   5.262   6.441   8.746 -1.1023  0.3563  0.9773
 5622TIP3    H241062   5.247   6.292   8.723  0.0115  0.4040 -0.1268
 5623TIP3   OH241063   3.893   1.963   6.871 -0.4700  0.1258 -0.5118
 5623TIP3    H141064   3.861   2.020   6.801 -0.9781 -0.8235 -1.0719
 5623TIP3    H241065   3.943   2.021   6.928 -0.5477  1.0319 -1.3393
 5624TIP3   OH241066   2.068   0.867   7.055 -0.0310 -0.3446 -0.5498
 5624TIP3    H141067   2.125   0.940   7.078  1.5236 -1.9645  0.9726
 5624TIP3    H241068   2.082   0.854   6.961  2.0761 -0.6317 -0.2400
 5625TIP3   OH241069   1.097   3.510   8.362 -0.4346 -0.0312 -0.1170
 5625TIP3    H141070   1.084   3.484   8.453  0.1994  0.4136  0.1107
 5625TIP3    H241071   1.010   3.508   8.324 -0.5235 -1.5345  0.1349
 5626TIP3   OH241072   5.605   0.292   6.970  1.2586 -0.3145 -1.1873
 5626TIP3    H141073   5.607   0.348   6.893  2.4319 -1.1955 -1.8247
 5626TIP3    H241074   5.515   0.259   6.973  1.0173  0.2602 -1.7743
 5627TIP3   OH241075   3.258   3.398   8.361 -0.3939 -0.0893  0.0651
 5627TIP3    H141076   3.346   3.386   8.395  0.5276 -0.0146 -2.1324
 5627TIP3    H241077   3.209   3.437   8.433  1.4467  0.1978  1.2101
 5628TIP3   OH241078   1.737   2.181   6.959  0.1874  0.0670 -0.0568
 5628TIP3    H141079   1.647   2.166   6.990  0.1663  0.7064  0.1976
 5628TIP3    H241080   1.729   2.189   6.864  0.0638 -0.5029 -0.0997
 5629TIP3   OH241081   6.316   3.491   6.068  0.0186  0.2879 -0.0639
 5629TIP3    H141082   6.349   3.407   6.101 -0.1031 -0.0493 -0.7884
 5629TIP3    H241083   6.275   3.469   5.985 -1.4553  0.8030  0.4917
 5630TIP3   OH241084   4.065   0.476   8.926 -0.0241 -0.1193  0.3287
 5630TIP3    H141085   4.132   0.424   8.970 -0.1660 -0.7865 -0.2250
 5630TIP3    H241086   3.999   0.492   8.993 -0.1263 -0.9196  0.4216
 5631TIP3   OH241087   2.373   2.680   6.648  0.1292 -0.4086 -0.1012
 5631TIP3    H141088   2.331   2.752   6.694  1.6782  1.2497 -1.1535
 5631TIP3    H241089   2.345   2.602   6.696  0.1386  1.0350  2.4339
 5632TIP3   OH241090   3.366   5.640   7.757 -0.0351  0.0990  0.2057
 5632TIP3    H141091   3.363   5.708   7.825 -0.6828  0.3489 -0.0610
 5632TIP3    H241092   3.287   5.656   7.705 -0.3678 -1.0721  0.3374
 5633TIP3   OH241093   1.293   2.221   6.396 -0.2880 -0.0625 -0.0158
 5633TIP3    H141094   1.243   2.164   6.338 -2.4443  1.5492  0.1397
 5633TIP3    H241095   1.229   2.282   6.432  1.3138  0.3101  2.4995
 5634TIP3   OH241096   3.228   3.114   7.517  0.0931 -0.7260 -0.2971
 5634TIP3    H141097   3.228   3.082   7.607  0.9612 -0.4852 -0.2098
 5634TIP3    H241098   3.200   3.205   7.524  0.6582 -0.5559 -0.2116
 5635TIP3   OH241099   4.413   1.462   5.575  0.5474  0.0424  0.2447
 5635TIP3    H141100   4.418   1.411   5.656  0.1188 -0.1629  0.1466
 5635TIP3    H241101   4.357   1.537   5.597  0.5545  0.0664  0.1816
 5636TIP3   OH241102   1.436   0.016   6.931  0.4121  0.0019 -0.1284
 5636TIP3    H141103   1.432  -0.067   6.882 -0.4877  0.3576 -0.6687
 5636TIP3    H241104   1.350   0.055   6.920 -0.3137 -0.5158  2.8606
 5637TIP3   OH241105   5.487   2.361   6.080  0.3847  0.4847  0.1772
 5637TIP3    H141106   5.523   2.423   6.143  0.9864 -0.1667  0.4837
 5637TIP3    H241107   5.556   2.349   6.015  0.9424 -1.1112  1.0118
 5638TIP3   OH241108   3.999   1.440   6.019 -0.3288  0.0234 -0.1188
 5638TIP3    H141109   3.955   1.444   6.103  0.3896  1.5368  0.2090
 5638TIP3    H241110   3.930   1.454   5.954 -0.5862  0.7678  0.3125
 5639TIP3   OH241111   5.049   3.923   5.618 -0.4465 -0.6138 -0.9066
 5639TIP3    H141112   4.982   3.982   5.584  0.5851  1.8075  0.9115
 5639TIP3    H241113   5.034   3.920   5.713  1.3114 -0.8777 -0.5851
 5640TIP3   OH241114   1.858   3.654   7.836 -0.3781 -0.4981  0.2176
 5640TIP3    H141115   1.899   3.707   7.768 -0.4141 -0.1863  0.4352
 5640TIP3    H241116   1.775   3.625   7.798 -0.0124 -1.0411 -0.1836
 5641TIP3   OH241117   6.545   2.561   5.932  0.0925  0.5030 -0.1104
 5641TIP3    H141118   6.565   2.493   5.867  1.9988  1.2085 -0.3279
 5641TIP3    H241119   6.500   2.514   6.003  0.1608 -0.7296 -0.8489
 5642TIP3   OH241120   2.834   2.244   6.828  0.1205 -0.3435  0.3265
 5642TIP3    H141121   2.844   2.339   6.835  2.2236 -0.5932  1.5069
 5642TIP3    H241122   2.866   2.223   6.740 -1.8912  0.1468 -0.5854
 5643TIP3   OH241123   6.433   0.475   7.207 -0.0483 -0.7963  0.0632
 5643TIP3    H141124   6.431   0.469   7.303 -1.2576 -1.1455  0.0321
 5643TIP3    H241125   6.418   0.568   7.189 -0.4342 -0.8268  0.2097
 5644TIP3   OH241126   3.857   1.555   7.141  0.0499  0.2395  0.2804
 5644TIP3    H141127   3.811   1.533   7.222  1.0576  0.8223  1.0287
 5644TIP3    H241128   3.938   1.597   7.170  1.1399 -0.8880 -0.9862
 5645TIP3   OH241129   4.662   4.240   7.922 -0.0417  0.1621  0.6871
 5645TIP3    H141130   4.638   4.206   8.009 -0.2748 -1.3146  0.0727
 5645TIP3    H241131   4.595   4.205   7.863  2.1701 -2.0674 -0.7009
 5646TIP3   OH241132   6.086   5.067   6.290  0.1318 -0.0262 -0.4737
 5646TIP3    H141133   6.022   5.006   6.254  0.4430 -0.2913 -0.5884
 5646TIP3    H241134   6.079   5.145   6.236 -0.3195  0.0650 -0.2817
 5647TIP3   OH241135   1.680   1.970   7.336  0.3987 -0.2288 -0.0367
 5647TIP3    H141136   1.725   2.051   7.311 -0.2336  0.1023 -0.1069
 5647TIP3    H241137   1.645   1.935   7.255  0.3876 -0.4015  0.0421
 5648TIP3   OH241138   2.071   4.743   8.375  0.0459  0.2066  0.3473
 5648TIP3    H141139   2.022   4.756   8.456 -0.9330  1.4877 -0.4147
 5648TIP3    H241140   2.015   4.686   8.322  0.1301  0.3454  0.1084
 5649TIP3   OH241141   5.556   3.756   9.417  0.6371  0.3774 -0.3771
 5649TIP3    H141142   5.548   3.672   9.371  1.1438  0.5386 -0.7661
 5649TIP3    H241143   5.650   3.770   9.426  0.5972 -0.5064  2.3387
 5650TIP3   OH241144   0.134   5.905   5.878  0.5149 -0.2463 -0.2409
 5650TIP3    H141145   0.088   5.822   5.885 -0.2719  0.3235  2.2354
 5650TIP3    H241146   0.227   5.881   5.876  0.2655 -1.2256 -1.5077
 5651TIP3   OH241147   5.752   3.431   6.035  0.9227 -0.4110 -0.4966
 5651TIP3    H141148   5.769   3.525   6.042  1.0647 -0.5568  2.2248
 5651TIP3    H241149   5.674   3.417   6.090  0.0216 -1.7027 -2.0395
 5652TIP3   OH241150   4.428   5.355   9.058  0.4020 -0.2670 -0.5295
 5652TIP3    H141151   4.402   5.431   9.110 -0.4945 -0.8076 -0.1786
 5652TIP3    H241152   4.502   5.387   9.006  0.5559  0.6162  0.1987
 5653TIP3   OH241153   4.764   6.073   8.419  0.1134 -0.6158 -0.2579
 5653TIP3    H141154   4.777   6.072   8.514 -0.5524 -0.9364 -0.1582
 5653TIP3    H241155   4.829   6.011   8.385  0.9719  0.1825 -0.1085
 5654TIP3   OH241156   0.251   3.339   5.727 -0.3756 -0.5099  0.8961
 5654TIP3    H141157   0.278   3.305   5.812  1.5268  0.1690  0.6082
 5654TIP3    H241158   0.299   3.286   5.664  1.9162  1.9691  0.4167
 5655TIP3   OH241159   3.284   3.625   6.001  0.0978  0.3449 -0.1753
 5655TIP3    H141160   3.247   3.550   5.954 -0.1290 -1.3474  2.4707
 5655TIP3    H241161   3.232   3.630   6.081  1.9811  1.5091  1.0308
 5656TIP3   OH241162   4.876   6.249   8.114  0.2991 -0.3093 -0.2085
 5656TIP3    H141163   4.827   6.297   8.180  0.8150  0.6301 -0.4898
 5656TIP3    H241164   4.948   6.307   8.090  2.1926 -2.0667  0.9497
 5657TIP3   OH241165   5.254   2.756   6.965 -0.5883 -0.0178  0.2173
 5657TIP3    H141166   5.325   2.700   6.934  0.4438  0.4838  1.5806
 5657TIP3    H241167   5.197   2.698   7.015 -0.9726 -0.3516 -0.5891
 5658TIP3   OH241168   3.870   5.044   5.924 -0.0377 -0.1641 -0.3143
 5658TIP3    H141169   3.883   5.082   6.011 -1.0084 -1.6448  0.5211
 5658TIP3    H241170   3.956   5.011   5.898 -0.0797 -1.3105  0.9059
 5659TIP3   OH241171   3.913   3.739   5.874  0.3548 -0.6628  0.2690
 5659TIP3    H141172   3.966   3.783   5.807 -0.0122 -0.9532 -0.2182
 5659TIP3    H241173   3.823   3.750   5.843 -0.2744  2.7793  2.7359
 5660TIP3   OH241174   5.484   0.031   5.905  0.0742 -0.0053 -0.1519
 5660TIP3    H141175   5.430   0.097   5.947  1.7430  2.0749 -1.1141
 5660TIP3    H241176   5.438   0.010   5.823 -0.3630  0.1195  0.0639
 5661TIP3   OH241177   0.568   0.885   7.687 -0.2993  0.9659  0.2018
 5661TIP3    H141178   0.524   0.895   7.772  0.7329  1.5717  0.6910
 5661TIP3    H241179   0.553   0.967   7.642 -0.7022  0.7088 -0.1315
 5662TIP3   OH241180   1.224   0.123   6.526  0.0039  0.2754 -0.2044
 5662TIP3    H141181   1.173   0.044   6.509 -0.2905  0.3551  0.2952
 5662TIP3    H241182   1.264   0.144   6.441  0.8251 -0.9173 -0.1431
 5663TIP3   OH241183   1.516   4.174   7.140  0.1904  0.0596 -0.0773
 5663TIP3    H141184   1.493   4.096   7.088 -1.1148  0.8754 -0.7822
 5663TIP3    H241185   1.478   4.157   7.227 -2.8870  1.1236 -1.0509
 5664TIP3   OH241186   5.139   3.874   7.523  0.4768  0.5586  0.6543
 5664TIP3    H141187   5.195   3.806   7.562 -0.7457 -0.4416  0.7430
 5664TIP3    H241188   5.195   3.917   7.459  1.1331 -0.9855  0.1246
 5665TIP3   OH241189   1.089   2.959   5.400 -0.1235 -0.0809 -0.2366
 5665TIP3    H141190   1.005   2.980   5.441  1.3076  0.7214  2.4907
 5665TIP3    H241191   1.092   3.016   5.323 -1.5131  0.8597  0.3460
 5666TIP3   OH241192   0.787   4.193   9.763  0.1240  0.0496 -0.0700
 5666TIP3    H141193   0.782   4.274   9.712 -0.0884  0.0412 -0.0657
 5666TIP3    H241194   0.798   4.124   9.698 -2.5535 -0.2289 -0.3390
 5667TIP3   OH241195   1.704   3.584   6.003 -0.1682 -0.6027  0.7616
 5667TIP3    H141196   1.666   3.522   6.065 -1.1651  0.4290  1.2294
 5667TIP3    H241197   1.783   3.617   6.046 -0.9203  0.1998  1.5692
 5668TIP3   OH241198   6.229   2.053   5.879  0.3445 -0.5786 -0.3929
 5668TIP3    H141199   6.225   2.106   5.959  1.9553 -0.6940 -0.1976
 5668TIP3    H241200   6.215   1.963   5.909  1.5684 -0.6971 -0.1157
 5669TIP3   OH241201   4.723   4.432   5.883 -0.2180  0.1090 -0.2421
 5669TIP3    H141202   4.725   4.398   5.973  1.4170 -0.5018 -0.4557
 5669TIP3    H241203   4.808   4.474   5.872 -0.1896 -0.2695 -1.6570
 5670TIP3   OH241204   6.288   0.365   7.861 -0.8050 -0.4896 -0.0219
 5670TIP3    H141205   6.260   0.275   7.877 -0.7554 -0.7462 -1.2533
 5670TIP3    H241206   6.207   0.411   7.837 -0.7891 -0.2596  0.3567
 5671TIP3   OH241207   5.070   2.388   6.765  0.3692 -0.1021 -0.1770
 5671TIP3    H141208   4.995   2.444   6.745 -1.1495 -1.3827  1.5900
 5671TIP3    H241209   5.108   2.426   6.844  1.1655  0.1070 -0.6454
 5672TIP3   OH241210   0.740   4.802   5.738 -0.1072 -0.3720 -0.4394
 5672TIP3    H141211   0.814   4.862   5.729 -0.9434  0.6757 -0.4222
 5672TIP3    H241212   0.709   4.816   5.828  0.3148 -1.5770 -0.0868
 5673TIP3   OH241213   2.269   4.783   9.315  0.5167 -0.5512  0.2979
 5673TIP3    H141214   2.214   4.735   9.254  1.3983 -0.4297 -0.6195
 5673TIP3    H241215   2.282   4.869   9.274  0.9419 -0.3929  0.7492
 5674TIP3   OH241216   2.272   5.110   8.119  0.0456 -1.3438  0.9822
 5674TIP3    H141217   2.322   5.030   8.128  0.1295 -1.4392 -0.1743
 5674TIP3    H241218   2.311   5.155   8.043 -1.0290 -0.9987  0.6066
 5675TIP3   OH241219   5.393   0.391   8.079 -0.1704 -0.0133 -0.4319
 5675TIP3    H141220   5.335   0.407   8.154  1.5388  0.9137  0.7776
 5675TIP3    H241221   5.379   0.298   8.058  0.4189 -0.7645  2.0922
 5676TIP3   OH241222   5.465   1.939   8.338  0.0028 -0.0403  0.4000
 5676TIP3    H141223   5.429   1.882   8.270 -0.3547 -0.8427  1.2370
 5676TIP3    H241224   5.556   1.910   8.348  0.1114  0.2034  0.1455
 5677TIP3   OH241225   4.363   6.553   7.950  0.0070  0.4517  0.0095
 5677TIP3    H141226   4.432   6.576   8.013  2.3384  0.8569 -2.5087
 5677TIP3    H241227   4.287   6.603   7.980  0.1320 -1.3027  3.9083
 5678TIP3   OH241228   0.477   1.611   6.077  0.3392  0.0038  0.4499
 5678TIP3    H141229   0.489   1.652   5.991  0.1310 -0.1829  0.3294
 5678TIP3    H241230   0.493   1.518   6.061 -0.0116 -0.0753  0.5456
 5679TIP3   OH241231   3.444   4.411   6.690  0.2925 -0.4395 -0.0417
 5679TIP3    H141232   3.434   4.319   6.717  0.2522 -0.3113  0.3934
 5679TIP3    H241233   3.354   4.442   6.679  0.3102 -0.5035 -0.3697
 5680TIP3   OH241234   1.304   0.220   6.256 -0.1801  0.1376  0.2328
 5680TIP3    H141235   1.224   0.204   6.206  0.5357  1.1583 -1.3188
 5680TIP3    H241236   1.342   0.299   6.216  0.7750  0.6133  1.9782
 5681TIP3   OH241237   1.780   3.115   7.893  0.4802  0.0138 -0.3185
 5681TIP3    H141238   1.784   3.024   7.865 -1.7829 -0.1846 -0.2163
 5681TIP3    H241239   1.759   3.164   7.813 -1.1653  0.0440  0.0916
 5682TIP3   OH241240   0.055   6.165   7.100 -0.3245  0.1160  1.1290
 5682TIP3    H141241   0.069   6.072   7.081  0.4353  0.2964  0.7900
 5682TIP3    H241242   0.012   6.199   7.021 -1.2222 -0.0785  1.5153
 5683TIP3   OH241243   5.449   5.943   8.235  0.1306  0.0487 -0.2233
 5683TIP3    H141244   5.527   5.907   8.192  0.2261 -0.7743  0.5889
 5683TIP3    H241245   5.483   6.013   8.291  0.1166  0.5429 -0.8298
 5684TIP3   OH241246   0.585   4.544   6.014 -0.3863 -0.7072  0.0974
 5684TIP3    H141247   0.503   4.565   5.970  0.6156  0.5883 -1.2520
 5684TIP3    H241248   0.559   4.521   6.104 -2.3777 -2.2196 -0.7781
 5685TIP3   OH241249   1.690   1.907   6.746 -0.1082 -0.1481  0.2268
 5685TIP3    H141250   1.782   1.922   6.725  0.1820 -1.1414  0.7515
 5685TIP3    H241251   1.681   1.812   6.754 -1.2145 -0.0797  0.0344
 5686TIP3   OH241252   5.499   1.616   8.457  0.0425 -0.4401  0.9766
 5686TIP3    H141253   5.451   1.654   8.383 -1.4107 -0.4943  1.8522
 5686TIP3    H241254   5.431   1.584   8.516  1.1576 -0.0055  2.5628
 5687TIP3   OH241255   1.895   1.442   6.740 -0.6608  0.5652  0.4660
 5687TIP3    H141256   1.908   1.384   6.815  1.7095  1.2887  0.6863
 5687TIP3    H241257   1.899   1.383   6.664  3.6072  0.4274  0.5445
 5688TIP3   OH241258   5.691   4.182   8.547  0.2502 -0.8269  0.3163
 5688TIP3    H141259   5.772   4.161   8.500 -0.1124 -0.6686 -0.4038
 5688TIP3    H241260   5.720   4.224   8.628  0.8815  2.0759 -1.2729
 5689TIP3   OH241261   5.268   1.904   7.864  0.1321  0.0821 -0.3937
 5689TIP3    H141262   5.239   1.812   7.863  0.2551 -0.0497  1.9590
 5689TIP3    H241263   5.324   1.912   7.788  0.8851 -2.0827 -0.1541
 5690TIP3   OH241264   0.155   1.721   6.776 -0.1846 -0.4515 -1.2024
 5690TIP3    H141265   0.102   1.799   6.762  1.9478  1.0327 -1.4073
 5690TIP3    H241266   0.192   1.701   6.690  1.8299  0.2812 -0.5473
 5691TIP3   OH241267   1.849   0.441   6.878 -0.0974  0.1501  0.2391
 5691TIP3    H141268   1.787   0.513   6.888  0.2559  0.3660  0.9481
 5691TIP3    H241269   1.924   0.481   6.833 -0.2226  0.0279 -0.0858
 5692TIP3   OH241270   2.408   1.229   8.246 -0.0690 -0.0630 -0.3169
 5692TIP3    H141271   2.319   1.200   8.262  0.3001  0.2516  3.1438
 5692TIP3    H241272   2.404   1.324   8.253  0.8546 -0.1327  3.0068
 5693TIP3   OH241273   2.149   5.065   7.528  0.1872  0.2152  0.1237
 5693TIP3    H141274   2.181   5.118   7.455  0.9724  1.3500  1.2492
 5693TIP3    H241275   2.069   5.110   7.557 -1.7217 -1.7589 -1.7072
 5694TIP3   OH241276   3.452   3.082   7.367  0.0828 -0.5314  0.7338
 5694TIP3    H141277   3.442   3.130   7.285  0.3722 -1.8764 -0.1104
 5694TIP3    H241278   3.380   3.113   7.422  0.4082  1.0371  0.3185
 5695TIP3   OH241279   6.093   6.338   8.508  0.0159  0.2408 -0.0738
 5695TIP3    H141280   6.137   6.303   8.585 -1.4223 -1.8587 -0.1059
 5695TIP3    H241281   6.024   6.394   8.542 -0.1903 -0.1507  0.1614
 5696TIP3   OH241282   6.436   3.945   5.668 -0.0404  0.0541  0.1305
 5696TIP3    H141283   6.360   3.890   5.687  0.7117 -0.7600  0.8696
 5696TIP3    H241284   6.404   4.035   5.679 -1.2446 -0.2100 -0.9403
 5697TIP3   OH241285   0.731   1.236   5.907 -0.1828  0.3746  0.0231
 5697TIP3    H141286   0.721   1.302   5.838 -0.8790 -1.3634 -1.6418
 5697TIP3    H241287   0.825   1.231   5.923  0.1449 -0.0219 -1.7444
 5698TIP3   OH241288   2.169   3.254   6.947  0.4923  0.1516 -0.4928
 5698TIP3    H141289   2.187   3.232   6.855  0.5376 -1.3114 -0.1533
 5698TIP3    H241290   2.118   3.335   6.943 -0.2416 -0.3628 -1.8383
 5699TIP3   OH241291   4.878   1.980   5.837  0.2691  0.2790 -0.2378
 5699TIP3    H141292   4.797   2.015   5.875 -0.4797  0.2274 -1.6880
 5699TIP3    H241293   4.947   2.038   5.868 -0.3941  0.6214  0.6408
 5700TIP3   OH241294   0.320   0.009   7.909 -0.2975 -0.9158  0.1926
 5700TIP3    H141295   0.234   0.051   7.902 -0.2307 -0.4809  1.6578
 5700TIP3    H241296   0.337  -0.026   7.822 -0.8001  1.2359 -0.8293
 5701TIP3   OH241297   3.595   4.965   7.958 -0.2282 -0.4241  0.2301
 5701TIP3    H141298   3.620   4.898   8.021 -2.2323 -1.7109 -0.2831
 5701TIP3    H241299   3.635   4.937   7.875 -0.7304 -0.7566  0.1027
 5702TIP3   OH241300   5.085   4.365   6.873 -0.0859  0.0941 -0.0279
 5702TIP3    H141301   5.095   4.270   6.867 -0.2109  0.0341  0.6716
 5702TIP3    H241302   5.169   4.396   6.908 -0.2113  0.1987  0.1793
 5703TIP3   OH241303   0.571   1.903   7.290 -0.0862  0.3129  0.0136
 5703TIP3    H141304   0.475   1.907   7.282 -0.0497 -0.5077 -1.1297
 5703TIP3    H241305   0.596   1.827   7.237  1.0719 -0.4993  1.6535
 5704TIP3   OH241306   0.058   0.032   8.246 -0.1429 -0.1079 -0.7056
 5704TIP3    H141307   0.088   0.100   8.185  1.8141 -0.8030 -0.6097
 5704TIP3    H241308   0.005   0.079   8.310 -0.5168  0.9775 -1.7674
 5705TIP3   OH241309   0.129   1.588   5.743  0.1619 -0.1720 -0.0783
 5705TIP3    H141310   0.087   1.587   5.829 -0.6843  2.7682 -0.3368
 5705TIP3    H241311   0.088   1.662   5.698  1.0125 -1.2603 -2.8116
 5706TIP3   OH241312   3.197   3.848   6.298  0.0812 -0.7689  0.3695
 5706TIP3    H141313   3.212   3.794   6.376 -0.4829 -1.6859 -0.1415
 5706TIP3    H241314   3.213   3.938   6.328 -0.9101 -1.0239  1.7506
 5707TIP3   OH241315   4.201   5.513   8.296  0.8478  0.1525  0.6107
 5707TIP3    H141316   4.186   5.607   8.311  1.1224  0.5368 -1.2664
 5707TIP3    H241317   4.293   5.500   8.319  0.2936 -0.1479  2.8809
 5708TIP3   OH241318   2.610   1.264   6.442  0.2916  0.2218 -0.2312
 5708TIP3    H141319   2.568   1.272   6.527  2.4358 -0.3847  0.9556
 5708TIP3    H241320   2.579   1.181   6.407  0.3611 -0.1241  0.5252
 5709TIP3   OH241321   3.927   4.582   6.000 -0.3630  0.1679  0.4794
 5709TIP3    H141322   3.948   4.587   5.907  0.9019  0.1298  0.7436
 5709TIP3    H241323   3.863   4.510   6.007  0.1252 -0.3486 -0.2620
 5710TIP3   OH241324   4.948   4.351   6.473  0.6171  0.2125  0.1547
 5710TIP3    H141325   4.974   4.427   6.420 -0.7211  1.1044  0.7121
 5710TIP3    H241326   5.029   4.322   6.515  1.1469  1.4021 -0.0001
 5711TIP3   OH241327   5.176   0.395   5.793 -0.0458  0.5801 -0.1552
 5711TIP3    H141328   5.202   0.469   5.848 -0.1622  0.1863  0.4332
 5711TIP3    H241329   5.093   0.423   5.753 -0.6200  0.3758  0.8591
 5712TIP3   OH241330   4.206   1.614   6.067  0.0523  0.1717 -0.2888
 5712TIP3    H141331   4.139   1.552   6.039 -0.5922 -0.7128  2.8068
 5712TIP3    H241332   4.283   1.560   6.083  0.6729  0.7742 -1.1357
 5713TIP3   OH241333   0.307   5.055   8.807 -0.9018 -0.1161 -1.0061
 5713TIP3    H141334   0.214   5.076   8.804 -0.7319  1.6364  2.0028
 5713TIP3    H241335   0.334   5.078   8.896  2.5795  0.1078 -1.9665
 5714TIP3   OH241336   4.320   4.199   6.982  0.1314  0.2481  0.1293
 5714TIP3    H141337   4.334   4.166   6.893  2.7386 -0.8018  0.8265
 5714TIP3    H241338   4.255   4.139   7.020 -1.2156  0.8811 -1.1084
 5715TIP3   OH241339   2.973   2.609   6.046 -0.4686  1.0606 -0.1867
 5715TIP3    H141340   2.905   2.663   6.086 -1.7232 -2.4641  3.0062
 5715TIP3    H241341   2.936   2.521   6.044  3.4227 -0.8004  0.4179
 5716TIP3   OH241342   2.745   5.303   8.098  0.1774  0.2132 -0.1927
 5716TIP3    H141343   2.783   5.289   8.185 -0.7348 -0.6444  0.0773
 5716TIP3    H241344   2.804   5.256   8.038  2.4582  3.1051 -0.4688
 5717TIP3   OH241345   1.322   1.417   8.092 -0.4667 -0.0228  0.5494
 5717TIP3    H141346   1.295   1.414   8.184  3.4237 -0.2783  1.9014
 5717TIP3    H241347   1.351   1.327   8.074  0.9746  0.5527 -0.1199
 5718TIP3   OH241348   0.607   2.437   7.735  0.1171 -0.6688 -0.3619
 5718TIP3    H141349   0.678   2.386   7.775  0.3907  1.4997  2.2001
 5718TIP3    H241350   0.610   2.413   7.642  1.4678 -3.7375  0.3448
 5719TIP3   OH241351   4.124   2.825   6.296  0.4302 -0.0651 -0.2120
 5719TIP3    H141352   4.080   2.762   6.354  0.0299 -1.5546 -2.0144
 5719TIP3    H241353   4.088   2.910   6.321 -2.1999 -1.0145 -0.3768
 5720TIP3   OH241354   0.554   5.878   6.709 -0.4166  0.5009  0.1875
 5720TIP3    H141355   0.619   5.901   6.642  0.7356 -1.0298  0.7247
 5720TIP3    H241356   0.606   5.867   6.789 -1.3364 -0.7019  0.6450
 5721TIP3   OH241357   1.908   5.769   5.861  0.3420 -0.1987 -0.0991
 5721TIP3    H141358   1.912   5.716   5.781  1.0998  2.0547 -1.6366
 5721TIP3    H241359   1.819   5.803   5.864  0.9699  1.7507 -1.4647
 5722TIP3   OH241360   2.737   0.280   7.499 -0.6430  0.0311  0.3157
 5722TIP3    H141361   2.800   0.208   7.512 -0.8219  0.1689  2.3378
 5722TIP3    H241362   2.789   0.359   7.508 -0.8838  0.1394  0.8228
 5723TIP3   OH241363   6.372   4.285   7.713 -0.1675  0.0673 -0.2816
 5723TIP3    H141364   6.395   4.217   7.650  0.7178 -0.2159  0.3296
 5723TIP3    H241365   6.445   4.347   7.709 -1.3564  1.4609 -1.4532
 5724TIP3   OH241366   0.091   6.322   7.794  0.3276 -0.3064 -0.3942
 5724TIP3    H141367   0.067   6.263   7.865 -0.8562  0.0233 -0.5051
 5724TIP3    H241368   0.072   6.409   7.827  1.8140  0.0260 -0.3333
 5725TIP3   OH241369   3.140   6.351   7.397  0.1666  0.0663  0.2793
 5725TIP3    H141370   3.234   6.362   7.382  0.4265 -0.4448  1.4025
 5725TIP3    H241371   3.102   6.435   7.371  0.6367 -0.4068 -2.1996
 5726TIP3   OH241372   2.963   5.978   7.473 -0.2036  0.4439 -0.3857
 5726TIP3    H141373   2.926   5.890   7.474 -0.0922  0.3976 -0.2757
 5726TIP3    H241374   2.889   6.035   7.493 -0.2115  0.3499 -0.1436
 5727TIP3   OH241375   4.155   3.381   8.239 -0.0876 -0.0443  0.7165
 5727TIP3    H141376   4.071   3.342   8.258 -0.1408 -1.3745 -1.7679
 5727TIP3    H241377   4.219   3.317   8.270 -0.1259 -0.9469 -0.9542
 5728TIP3   OH241378   4.579   1.588   8.109 -0.0928 -0.2094 -0.1224
 5728TIP3    H141379   4.638   1.540   8.050 -1.4053 -0.8225 -0.9987
 5728TIP3    H241380   4.561   1.670   8.063 -0.3627 -0.2718 -0.1295
 5729TIP3   OH241381   1.044   2.344   5.837  0.3304  0.3834 -0.7153
 5729TIP3    H141382   1.064   2.437   5.822  0.2835  0.3953 -0.7041
 5729TIP3    H241383   0.999   2.342   5.921 -0.9319  0.5201 -1.3723
 5730TIP3   OH241384   1.339   0.616   6.024  0.4353 -0.0078  0.1105
 5730TIP3    H141385   1.375   0.530   6.043 -1.0184 -0.9457 -1.1566
 5730TIP3    H241386   1.301   0.645   6.107  0.9360 -0.5920  0.5480
 5731TIP3   OH241387   2.806   0.354   8.240 -0.0250 -0.1926  0.0590
 5731TIP3    H141388   2.737   0.327   8.179 -0.1630  0.5133 -0.1044
 5731TIP3    H241389   2.835   0.439   8.207  0.1655  0.0177  0.7516
 5732TIP3   OH241390   1.812   2.835   6.692  0.0154  0.3472 -0.0075
 5732TIP3    H141391   1.737   2.869   6.742  0.0936  0.0211  0.3251
 5732TIP3    H241392   1.809   2.741   6.704 -0.8981  0.0828 -1.8894
 5733TIP3   OH241393   3.837   5.852   7.979 -0.0471  0.2982 -0.0111
 5733TIP3    H141394   3.871   5.784   7.921  1.8655  0.8285  0.4455
 5733TIP3    H241395   3.839   5.812   8.066 -0.8510  0.2620  0.0015
 5734TIP3   OH241396   2.527   1.597   5.514 -0.6891  0.3762 -0.2242
 5734TIP3    H141397   2.539   1.672   5.572  2.8119  1.2529 -1.8182
 5734TIP3    H241398   2.486   1.634   5.435  0.1233  0.4252 -0.6274
 5735TIP3   OH241399   1.788   5.208   7.890 -0.0481  0.0512 -0.2396
 5735TIP3    H141400   1.697   5.180   7.885 -0.3724  0.9691  0.3874
 5735TIP3    H241401   1.825   5.157   7.963 -0.3892  0.5454  0.2889
 5736TIP3   OH241402   2.501   0.377   8.396 -0.1182 -0.3925 -0.2301
 5736TIP3    H141403   2.418   0.414   8.428 -0.2778 -0.4800 -0.5378
 5736TIP3    H241404   2.567   0.411   8.456 -0.4641 -0.9047  0.4711
 5737TIP3   OH241405   1.228   2.722   7.700  0.1354  0.0356  0.5719
 5737TIP3    H141406   1.224   2.672   7.781 -0.1097  1.3570  1.4107
 5737TIP3    H241407   1.172   2.798   7.716 -0.5429 -0.0602 -1.1163
 5738TIP3   OH241408   5.453   3.790   7.832  0.2314  0.4152  0.3093
 5738TIP3    H141409   5.424   3.768   7.743  1.0826  0.7733 -0.0673
 5738TIP3    H241410   5.382   3.760   7.888  0.2044 -0.8829 -0.3904
 5739TIP3   OH241411   1.204   1.740   6.993 -0.0730  0.0021  0.1722
 5739TIP3    H141412   1.234   1.742   6.902 -0.7635 -1.6719 -0.1160
 5739TIP3    H241413   1.163   1.655   7.003 -0.4414  0.3550  1.9337
 5740TIP3   OH241414   5.535   4.461   7.775  0.0343  0.0422 -0.4759
 5740TIP3    H141415   5.442   4.443   7.789  0.4162 -0.9700  0.9520
 5740TIP3    H241416   5.536   4.541   7.722 -1.6439  0.2640 -0.2299
 5741TIP3   OH241417   0.828   2.909   5.888 -0.0542 -0.0782 -0.2271
 5741TIP3    H141418   0.766   2.982   5.885  1.5999  1.4523  0.7233
 5741TIP3    H241419   0.897   2.934   5.826  0.1753 -1.2237 -0.4608
 5742TIP3   OH241420   1.220   6.476   7.809 -0.5047  0.3004 -0.0653
 5742TIP3    H141421   1.268   6.550   7.771  1.6683 -2.0636 -2.2938
 5742TIP3    H241422   1.143   6.466   7.753  0.0426 -0.0827 -0.7583
 5743TIP3   OH241423   6.717   0.929  14.768 -0.6791  0.0556 -0.1874
 5743TIP3    H141424   6.665   0.865  14.816 -0.6614 -0.6263 -1.0424
 5743TIP3    H241425   6.721   0.895  14.679  1.4391 -0.0612 -0.1047
 5744TIP3   OH241426   0.384   3.837   7.848  0.2419  0.1090 -0.1541
 5744TIP3    H141427   0.334   3.800   7.776 -0.7714  1.9916 -0.4855
 5744TIP3    H241428   0.318   3.865   7.912  1.0349  0.0914  0.6969
 5745TIP3   OH241429   0.076   4.729   7.221  0.1180  0.3644 -0.5671
 5745TIP3    H141430   0.027   4.749   7.300 -0.1157  1.6422 -1.0056
 5745TIP3    H241431   0.168   4.742   7.246  0.0378  0.8828 -0.5246
 5746TIP3   OH241432   0.739   5.483   8.545 -0.0271 -0.0841  0.0909
 5746TIP3    H141433   0.733   5.545   8.473 -1.9950  0.2563  0.4736
 5746TIP3    H241434   0.789   5.410   8.509  2.1533  1.5811 -0.4284
 5747TIP3   OH241435   3.621   0.689   8.375  0.4423  0.4680  0.0065
 5747TIP3    H141436   3.669   0.771   8.369 -0.9003  1.2233 -1.0093
 5747TIP3    H241437   3.592   0.685   8.466 -0.3959  1.6971 -0.1752
 5748TIP3   OH241438   0.222   5.956   6.903 -0.8079 -0.0564 -0.5752
 5748TIP3    H141439   0.194   6.000   6.823 -1.3874  0.7287  0.0408
 5748TIP3    H241440   0.294   6.010   6.936 -0.3978 -0.5201 -0.6827
 5749TIP3   OH241441   0.080   5.071   7.591 -0.3864 -0.1525  0.1691
 5749TIP3    H141442   0.034   5.045   7.672 -1.3029  0.7860 -0.0342
 5749TIP3    H241443   0.146   5.134   7.620  0.0071 -0.6168  0.3076
 5750TIP3   OH241444   5.280   5.852   6.513  0.5820  1.2321  0.0521
 5750TIP3    H141445   5.373   5.867   6.497  0.5565 -0.0992 -1.5306
 5750TIP3    H241446   5.235   5.905   6.447  0.1746  1.8385  0.7838
 5751TIP3   OH241447   3.532   1.957   8.606  0.1280 -0.0277  0.2945
 5751TIP3    H141448   3.586   1.995   8.537  0.8029  1.9535  1.8159
 5751TIP3    H241449   3.572   1.871   8.622  1.7529  0.6703  0.1648
 5752TIP3   OH241450   2.278   0.324   7.282 -0.2598 -0.2133  0.2701
 5752TIP3    H141451   2.239   0.242   7.312  1.8639 -1.0115  0.9929
 5752TIP3    H241452   2.341   0.297   7.215 -0.8031  1.0338 -0.8004
 5753TIP3   OH241453   4.987   2.299   7.319 -0.2632 -0.2860 -0.1473
 5753TIP3    H141454   5.021   2.260   7.400  2.5340 -0.5292 -1.3405
 5753TIP3    H241455   5.042   2.376   7.304 -2.1962  1.0703 -0.6965
 5754TIP3   OH241456   5.135   1.336   5.536  0.3696  0.0804 -0.1544
 5754TIP3    H141457   5.169   1.250   5.558  2.1765  0.5722 -0.7924
 5754TIP3    H241458   5.059   1.348   5.593  0.5887 -1.5683  0.5392
 5755TIP3   OH241459   1.777   5.260   7.008  0.1000 -0.2636 -0.4640
 5755TIP3    H141460   1.709   5.236   6.944 -0.2626  0.0477 -0.1986
 5755TIP3    H241461   1.762   5.201   7.082 -0.3524  0.2955 -0.0999
 5756TIP3   OH241462   3.981   5.543   9.129  0.0351  0.6659  0.2917
 5756TIP3    H141463   3.931   5.607   9.078  1.1003  1.2890 -0.0269
 5756TIP3    H241464   4.038   5.597   9.184 -0.2040 -0.0144  1.2193
 5757TIP3   OH241465   0.866   0.339   7.421  0.3160  0.1710 -0.3849
 5757TIP3    H141466   0.889   0.429   7.444  1.2574 -0.1937  0.1410
 5757TIP3    H241467   0.780   0.326   7.462  0.8237  0.3670  0.8039
 5758TIP3   OH241468   6.074   6.259   8.257 -0.1438  0.0632  0.6215
 5758TIP3    H141469   6.091   6.285   8.347 -1.0819  1.4185  0.4463
 5758TIP3    H241470   5.984   6.224   8.259 -0.2512  0.3026  0.1828
 5759TIP3   OH241471   2.243   3.881   6.345 -0.1071 -0.3011 -0.5442
 5759TIP3    H141472   2.328   3.923   6.362 -0.1941  0.0460 -0.9352
 5759TIP3    H241473   2.243   3.803   6.400  1.0018 -1.0035 -1.4814
 5760TIP3   OH241474   3.421   6.270   6.779  0.7512 -0.0316  0.1229
 5760TIP3    H141475   3.417   6.182   6.818 -3.0581 -0.3909 -0.7099
 5760TIP3    H241476   3.466   6.258   6.696  0.2487 -1.2245  0.0092
 5761TIP3   OH241477   5.344   2.536   7.982  0.4089 -0.0538 -0.2415
 5761TIP3    H141478   5.278   2.472   7.956  1.0236  0.0753 -2.2446
 5761TIP3    H241479   5.296   2.600   8.034 -0.7112 -0.8078 -0.3148
 5762TIP3   OH241480   5.752   0.890   8.557  0.3318 -0.2982  0.0700
 5762TIP3    H141481   5.702   0.811   8.578 -1.5441  0.8627  0.1929
 5762TIP3    H241482   5.687   0.960   8.556  1.6431  0.9861 -1.7956
 5763TIP3   OH241483   5.508   2.170   6.791 -0.1973 -0.2584 -0.1733
 5763TIP3    H141484   5.515   2.092   6.847 -0.0776 -0.2416 -0.1659
 5763TIP3    H241485   5.435   2.150   6.732  0.2806 -0.6721 -0.6415
 5764TIP3   OH241486   1.736   5.614   6.386  0.1036  0.7689  0.1429
 5764TIP3    H141487   1.767   5.690   6.338 -0.9167  0.6043 -0.8282
 5764TIP3    H241488   1.647   5.600   6.353 -1.1735  1.4122  2.9730
 5765TIP3   OH241489   5.101   6.408   8.323  0.3342 -0.0071 -0.2757
 5765TIP3    H141490   5.119   6.501   8.306  2.4708 -0.6768 -2.3163
 5765TIP3    H241491   5.144   6.362   8.250 -0.1571 -2.6432  0.9779
 5766TIP3   OH241492   1.443   0.432   7.303 -0.7800  0.0862  0.0214
 5766TIP3    H141493   1.377   0.433   7.233 -0.6049  1.5087 -0.1417
 5766TIP3    H241494   1.523   0.400   7.260 -0.8870  0.1557 -0.2295
 5767TIP3   OH241495   0.135   0.666   8.216 -0.3967  0.3631 -0.4474
 5767TIP3    H141496   0.115   0.760   8.208 -1.3589  0.2865  0.7368
 5767TIP3    H241497   0.058   0.622   8.179 -0.3670  0.0495 -0.1389
 5768TIP3   OH241498   2.652   1.503   7.214 -0.2889 -0.3986  0.1453
 5768TIP3    H141499   2.615   1.418   7.192 -3.2461  0.7413  0.3066
 5768TIP3    H241500   2.596   1.566   7.168  2.3644  1.4892 -0.7512
 5769TIP3   OH241501   4.161   0.932   8.736 -0.3748  0.1008 -0.1230
 5769TIP3    H141502   4.256   0.932   8.738 -0.3714  1.1850  0.0209
 5769TIP3    H241503   4.138   0.841   8.715  0.6898 -0.0295 -0.8067
 5770TIP3   OH241504   0.883   2.287   7.711 -0.5548 -0.4534  0.8730
 5770TIP3    H141505   0.929   2.294   7.628  0.2849 -1.0671  1.2808
 5770TIP3    H241506   0.872   2.378   7.740  0.7324 -0.3046  0.9453
 5771TIP3   OH241507   6.466   5.703   6.905 -0.2935 -0.3880  0.4355
 5771TIP3    H141508   6.400   5.693   6.974 -0.4692  1.0052  0.4976
 5771TIP3    H241509   6.417   5.733   6.829  0.3277  1.5180  0.7277
 5772TIP3   OH241510   0.159   1.355   6.086  0.6754  0.1231  0.0233
 5772TIP3    H141511   0.167   1.422   6.018 -0.6146  0.0267 -0.2392
 5772TIP3    H241512   0.095   1.390   6.147  1.4841  0.0031  0.9793
 5773TIP3   OH241513   1.511   5.190   7.970 -0.6065 -0.7957 -0.1387
 5773TIP3    H141514   1.450   5.148   8.030 -0.6577  0.1624  0.5028
 5773TIP3    H241515   1.525   5.277   8.007 -0.6255 -0.1795 -1.5081
 5774TIP3   OH241516   4.536   0.974   7.894  0.0951 -0.5523 -0.4262
 5774TIP3    H141517   4.566   1.022   7.817  0.7052 -0.5451 -0.1897
 5774TIP3    H241518   4.505   0.890   7.860  1.0699 -0.8543 -0.6032
 5775TIP3   OH241519   4.682   0.926   5.932 -0.1556 -0.1894 -0.2108
 5775TIP3    H141520   4.726   0.882   6.004  1.9466  0.1939 -1.1783
 5775TIP3    H241521   4.727   1.011   5.924 -3.6704  2.0048  1.2142
 5776TIP3   OH241522   0.463   4.001   8.339  0.5453 -0.0157  0.5320
 5776TIP3    H141523   0.373   4.026   8.317  0.2711 -0.7727  0.7463
 5776TIP3    H241524   0.457   3.969   8.429  0.4285 -2.8186 -0.3717
 5777TIP3   OH241525   3.674   3.694   9.781 -0.0318  0.4822  0.3088
 5777TIP3    H141526   3.598   3.652   9.820 -0.1992  0.6494  0.1686
 5777TIP3    H241527   3.637   3.765   9.728  0.0922 -0.3783 -1.0029
 5778TIP3   OH241528   0.025   4.853   6.124  0.0104  0.3504 -0.1640
 5778TIP3    H141529  -0.034   4.852   6.199 -0.1065  2.1396 -0.2008
 5778TIP3    H241530   0.069   4.938   6.128  1.5509 -0.3534 -0.9509
 5779TIP3   OH241531   4.645   6.340   8.757 -0.1364  0.2964 -0.4027
 5779TIP3    H141532   4.739   6.323   8.762 -0.1172  0.7397  3.9266
 5779TIP3    H241533   4.605   6.253   8.763 -0.1431  0.0672 -2.6420
 5780TIP3   OH241534   4.529   1.576   6.352 -0.0763 -0.3977 -0.8917
 5780TIP3    H141535   4.619   1.547   6.341  0.0939 -0.2304 -0.0277
 5780TIP3    H241536   4.524   1.660   6.308  0.2766 -0.2604 -0.6679
 5781TIP3   OH241537   4.715   2.266   5.866  0.1263  0.0550 -0.5700
 5781TIP3    H141538   4.805   2.288   5.890  0.1914 -0.5876 -0.2141
 5781TIP3    H241539   4.666   2.274   5.948 -0.4942  2.1050 -1.0727
 5782TIP3   OH241540   1.081   3.805   8.240 -0.0245  0.0591 -0.2917
 5782TIP3    H141541   1.146   3.812   8.170 -0.8882  1.2047 -1.0185
 5782TIP3    H241542   1.035   3.723   8.222  0.6626 -0.3342 -0.2665
 5783TIP3   OH241543   5.123   5.804   8.854 -0.1657  0.2175 -0.0824
 5783TIP3    H141544   5.113   5.893   8.818  2.3159 -0.1854 -1.9987
 5783TIP3    H241545   5.149   5.751   8.779 -0.0238 -1.8263  1.3551
 5784TIP3   OH241546   3.196   1.650   5.758  0.5177 -0.4016  0.1439
 5784TIP3    H141547   3.103   1.629   5.752  0.5264 -0.9766  1.6311
 5784TIP3    H241548   3.239   1.565   5.765  1.0898 -0.1049  0.2644
 5785TIP3   OH241549   5.286   6.087   6.320 -0.4004  0.1616 -0.2092
 5785TIP3    H141550   5.225   6.080   6.247 -1.2023  4.9121 -0.2821
 5785TIP3    H241551   5.235   6.129   6.390  1.1926 -1.4160  2.0609
 5786TIP3   OH241552   1.289   3.603   5.502  0.1134 -0.4233  0.6083
 5786TIP3    H141553   1.236   3.655   5.562  1.6043  1.3132  0.4909
 5786TIP3    H241554   1.349   3.665   5.462  1.2869 -2.0752 -0.3311
 5787TIP3   OH241555   5.021   6.506   7.643  0.2653 -0.8610  0.0069
 5787TIP3    H141556   5.117   6.509   7.639  0.1984  1.7192 -1.7799
 5787TIP3    H241557   4.993   6.514   7.552 -1.6485 -0.1205  0.6146
 5788TIP3   OH241558   3.920   4.836   6.921 -0.5270  0.5422 -0.0487
 5788TIP3    H141559   3.958   4.749   6.930 -0.5896  0.5551  0.3769
 5788TIP3    H241560   3.857   4.828   6.850  1.2420  0.8537 -1.7419
 5789TIP3   OH241561   6.152   2.635   7.551  0.0137 -0.6134 -0.2427
 5789TIP3    H141562   6.070   2.600   7.517 -0.3558  0.4988 -0.5446
 5789TIP3    H241563   6.217   2.568   7.530 -0.8890 -1.7525  0.4868
 5790TIP3   OH241564   3.689   6.137   6.159  0.2223 -0.3222 -0.3563
 5790TIP3    H141565   3.692   6.137   6.255 -0.2985  1.7444 -0.3013
 5790TIP3    H241566   3.774   6.173   6.133  0.5686 -1.3614 -0.7128
 5791TIP3   OH241567   2.831   0.618   6.545 -0.2758 -0.2110 -0.4853
 5791TIP3    H141568   2.902   0.654   6.492  0.2013  1.0190  0.9138
 5791TIP3    H241569   2.755   0.672   6.521 -0.0543  0.3635  0.0835
 5792TIP3   OH241570   2.591   1.787   5.701 -0.1157 -0.8134  0.3262
 5792TIP3    H141571   2.685   1.774   5.711  0.0446 -0.3696 -0.5112
 5792TIP3    H241572   2.561   1.808   5.789  0.9271  1.1419  0.2781
 5793TIP3   OH241573   3.726   6.664   7.924 -0.5184  0.0268 -0.1723
 5793TIP3    H141574   3.762   6.712   7.850 -2.2522  0.4804 -0.7730
 5793TIP3    H241575   3.732   6.572   7.899 -1.6822  0.2066 -1.1990
 5794TIP3   OH241576   0.161   0.493   6.000 -0.0439 -0.0038  0.5088
 5794TIP3    H141577   0.112   0.442   5.936 -2.0731  0.4224  1.6183
 5794TIP3    H241578   0.252   0.483   5.975 -0.4760 -2.9365 -0.1930
 5795TIP3   OH241579   5.101   0.761   7.009 -0.1425 -0.4297 -0.1011
 5795TIP3    H141580   5.133   0.693   6.950  0.2048 -0.3504 -0.0100
 5795TIP3    H241581   5.171   0.770   7.075 -0.4007 -0.3222  0.1587
 5796TIP3   OH241582   0.942   4.358   7.679 -0.1528 -0.7937  0.4940
 5796TIP3    H141583   0.931   4.414   7.602  0.5609  0.0673  0.9882
 5796TIP3    H241584   0.938   4.418   7.753  1.0706 -1.3158  1.0206
 5797TIP3   OH241585   0.305   4.941   7.514 -0.4711  0.1333  0.6029
 5797TIP3    H141586   0.370   4.981   7.571 -0.2533 -3.2761  3.0513
 5797TIP3    H241587   0.222   4.979   7.542 -0.0253  1.0503  0.7278
 5798TIP3   OH241588   3.847   2.975   5.505 -0.1554  0.4791 -0.3727
 5798TIP3    H141589   3.833   2.937   5.419 -1.6513  1.9584 -0.8314
 5798TIP3    H241590   3.939   3.003   5.504  0.0272 -0.1145 -1.2253
 5799TIP3   OH241591   5.154   0.082   7.744 -0.5450  0.4595  0.0172
 5799TIP3    H141592   5.205   0.019   7.694  2.0365  2.9567 -0.8253
 5799TIP3    H241593   5.153   0.047   7.833  1.3154 -0.4986 -0.2898
 5800TIP3   OH241594   3.202   4.029   7.125  0.3567  0.4089  0.8917
 5800TIP3    H141595   3.229   3.944   7.089  0.4073  1.1825 -1.0047
 5800TIP3    H241596   3.178   4.010   7.216  0.1541 -1.6775  0.4484
 5801TIP3   OH241597   4.240   3.512   9.149  0.3603 -0.0838  0.1861
 5801TIP3    H141598   4.217   3.575   9.218  1.2438 -0.2463  0.6473
 5801TIP3    H241599   4.336   3.512   9.148  0.4198 -2.0281  0.7859
 5802TIP3   OH241600   4.086   2.170   6.698  0.1541  0.2486  0.3076
 5802TIP3    H141601   4.155   2.126   6.748 -1.0477 -0.1051  1.7136
 5802TIP3    H241602   4.054   2.104   6.638  0.7769  0.3048 -0.0981
 5803TIP3   OH241603   0.523   3.914   6.545 -0.0565  0.0395 -0.2167
 5803TIP3    H141604   0.427   3.909   6.544 -0.0323 -0.4424 -0.6466
 5803TIP3    H241605   0.543   4.002   6.513 -0.3683  0.4915  0.7822
 5804TIP3   OH241606   2.658   3.973   9.690  0.1442 -0.6765  0.1891
 5804TIP3    H141607   2.622   3.990   9.603 -1.0336  0.9169  0.9424
 5804TIP3    H241608   2.582   3.969   9.747  0.8883 -1.8361  1.1619
 5805TIP3   OH241609   2.828   2.693   7.280 -0.2346 -0.4637  0.1411
 5805TIP3    H141610   2.778   2.658   7.206  0.7921 -0.4576 -0.5674
 5805TIP3    H241611   2.918   2.696   7.250  0.0281  0.7599  0.9401
 5806TIP3   OH241612   6.678   1.587   7.391  0.0518 -0.2167 -0.6308
 5806TIP3    H141613   6.767   1.613   7.369 -0.0871  1.8051  0.9417
 5806TIP3    H241614   6.639   1.665   7.430 -1.7683 -1.6332  0.5423
 5807TIP3   OH241615   5.700   4.289   8.110 -0.1329  0.0007  0.0030
 5807TIP3    H141616   5.714   4.201   8.145 -2.9069 -0.0492  1.2726
 5807TIP3    H241617   5.691   4.344   8.188  0.1051  1.1707 -0.7697
 5808TIP3   OH241618   2.180   4.228   6.072  0.0585  0.3490  0.0242
 5808TIP3    H141619   2.125   4.226   6.150 -0.8258 -0.2579 -0.6089
 5808TIP3    H241620   2.162   4.146   6.027 -0.1166  1.0894 -1.2874
 5809TIP3   OH241621   2.346   2.854   7.593 -0.2884  0.2424 -0.0036
 5809TIP3    H141622   2.342   2.943   7.558  0.8377  0.3774  0.1559
 5809TIP3    H241623   2.417   2.813   7.543  0.7586  0.1616  1.4906
 5810TIP3   OH241624   5.272   0.845   7.208 -0.2748  0.1474 -0.0316
 5810TIP3    H141625   5.338   0.886   7.152  0.7495 -0.5064  0.6613
 5810TIP3    H241626   5.307   0.758   7.226 -0.3225  0.5047  2.0148
 5811TIP3   OH241627   0.321   0.449   6.508 -0.5353  0.0235 -0.3152
 5811TIP3    H141628   0.284   0.526   6.551  0.3033 -1.0469  2.5612
 5811TIP3    H241629   0.276   0.375   6.549  1.5618 -1.1259  0.0458
 5812TIP3   OH241630   0.782   5.603   8.309 -0.6289 -0.1548  0.2855
 5812TIP3    H141631   0.874   5.605   8.283 -0.7268 -0.1119 -0.0627
 5812TIP3    H241632   0.743   5.679   8.267 -0.3011  1.3270  2.4857
 5813TIP3   OH241633   6.625   3.650   5.849  0.1698 -0.1932  1.0613
 5813TIP3    H141634   6.710   3.627   5.812 -0.0170  0.8399 -0.1000
 5813TIP3    H241635   6.564   3.586   5.811  0.1656  0.1578  0.4504
 5814TIP3   OH241636   4.352   2.753   7.424 -0.8084  0.0359 -0.1656
 5814TIP3    H141637   4.432   2.749   7.477 -0.6905 -2.2202 -0.3887
 5814TIP3    H241638   4.384   2.761   7.334 -0.9474  1.6244 -0.1017
 5815TIP3   OH241639   5.646   1.723   8.172 -0.0853 -0.1510  0.2751
 5815TIP3    H141640   5.631   1.760   8.085 -0.9411 -0.9792  0.0472
 5815TIP3    H241641   5.724   1.768   8.204 -0.3399  0.9020 -0.5017
 5816TIP3   OH241642   0.342   1.714   7.518  0.4962 -0.1408 -0.0222
 5816TIP3    H141643   0.339   1.622   7.493  1.0413  0.0543 -0.8540
 5816TIP3    H241644   0.349   1.762   7.435  3.5718  0.4745  0.4549
 5817TIP3   OH241645   4.300   0.022   6.622  0.2204 -0.4016  0.3777
 5817TIP3    H141646   4.376  -0.012   6.574 -0.0278 -1.5988  0.7873
 5817TIP3    H241647   4.322   0.006   6.714 -1.4149 -2.8174  0.4338
 5818TIP3   OH241648   0.316   2.607   6.610  0.2366 -0.2480  0.4869
 5818TIP3    H141649   0.377   2.586   6.539  1.0839  1.6693  0.5673
 5818TIP3    H241650   0.279   2.523   6.636  1.1382 -1.1938 -1.1126
 5819TIP3   OH241651   1.136   5.438   7.772  0.2471 -0.0332  0.5194
 5819TIP3    H141652   1.229   5.417   7.763  0.2557  0.5248 -0.8478
 5819TIP3    H241653   1.101   5.432   7.683 -0.4915  2.1678  0.5978
 5820TIP3   OH241654   5.540   4.069   7.924  0.6349 -0.5635  0.0184
 5820TIP3    H141655   5.588   4.147   7.896 -0.9467  0.3680 -0.2344
 5820TIP3    H241656   5.543   4.010   7.849  0.3213  0.0133 -0.4588
 5821TIP3   OH241657   5.398   4.500   6.514 -0.1143 -0.3260  0.2399
 5821TIP3    H141658   5.461   4.539   6.574  0.3740 -0.8999  0.1170
 5821TIP3    H241659   5.343   4.573   6.486 -0.2083 -0.0067  1.1990
 5822TIP3   OH241660   5.678   5.614   6.444 -0.1649 -0.6850  0.3883
 5822TIP3    H141661   5.598   5.583   6.403 -0.1860 -0.8414  0.5490
 5822TIP3    H241662   5.697   5.551   6.513 -0.8302  0.2479  1.4641
 5823TIP3   OH241663   5.978   5.129   8.702  0.2237  0.3256 -0.8222
 5823TIP3    H141664   5.892   5.087   8.697 -0.3168  1.3460 -0.3210
 5823TIP3    H241665   5.970   5.193   8.772  0.8411  1.6805 -1.9368
 5824TIP3   OH241666   2.509   0.703   6.924 -0.7311 -0.3507  0.2583
 5824TIP3    H141667   2.546   0.732   7.007 -1.2494  1.5987 -0.1610
 5824TIP3    H241668   2.560   0.625   6.902  1.9502  1.1735  0.5901
 5825TIP3   OH241669   0.348   2.533   7.652 -0.0403 -0.3030  0.1108
 5825TIP3    H141670   0.400   2.456   7.674  0.4641 -0.0550 -0.1703
 5825TIP3    H241671   0.345   2.585   7.732  0.4908 -0.1337  0.0301
 5826TIP3   OH241672   1.484   1.528   5.876  0.2923  0.4910 -0.1572
 5826TIP3    H141673   1.397   1.509   5.842  1.6448 -2.8254 -2.1940
 5826TIP3    H241674   1.495   1.469   5.950  0.5613  1.5197  0.6574
 5827TIP3   OH241675   1.945   5.507   6.570 -0.1380 -0.5431 -0.3025
 5827TIP3    H141676   1.868   5.543   6.527 -1.1280 -2.1105  0.0539
 5827TIP3    H241677   1.914   5.480   6.657  0.9864 -0.5730  0.1169
 5828TIP3   OH241678   1.722   5.023   8.715  0.0389  0.8012  0.1337
 5828TIP3    H141679   1.703   4.960   8.645 -0.0600  1.4641 -0.4545
 5828TIP3    H241680   1.636   5.049   8.748  0.0566  1.0778 -0.0373
 5829TIP3   OH241681   2.645   4.772   8.656 -0.2698 -0.4664  0.0914
 5829TIP3    H141682   2.588   4.699   8.680  1.5792 -1.9282  0.2402
 5829TIP3    H241683   2.627   4.788   8.563 -1.0319 -0.7576  0.1799
 5830TIP3   OH241684   6.292   4.224   6.072  0.1408  0.2801  0.5161
 5830TIP3    H141685   6.384   4.229   6.044  0.4218 -0.2552  1.3135
 5830TIP3    H241686   6.274   4.130   6.079  0.2671  0.3682  2.6365
 5831TIP3   OH241687   1.530   5.968   5.825  0.1589  0.4022  0.0015
 5831TIP3    H141688   1.483   5.952   5.907 -0.8431  2.4498 -0.1232
 5831TIP3    H241689   1.516   5.888   5.774 -3.8160  1.0786 -0.2704
 5832TIP3   OH241690   6.116   4.014   5.833 -0.3615 -0.2030 -0.1398
 5832TIP3    H141691   6.156   3.931   5.809 -0.2982  0.2308 -1.6360
 5832TIP3    H241692   6.179   4.080   5.805 -1.1064  0.3980 -0.4214
 5833TIP3   OH241693   0.454   3.747   5.899  0.2325  0.2797 -0.0618
 5833TIP3    H141694   0.507   3.728   5.977  0.3552 -1.0193 -0.4476
 5833TIP3    H241695   0.363   3.741   5.930  0.2889  0.5645  0.1605
 5834TIP3   OH241696   3.181   5.887   6.665 -0.2577 -0.0322  0.8583
 5834TIP3    H141697   3.089   5.897   6.689 -1.3550 -0.6117 -2.5592
 5834TIP3    H241698   3.186   5.801   6.625  1.8572 -0.0887  1.1436
 5835TIP3   OH241699   2.293   6.394   7.871 -0.3987 -0.2493  0.3007
 5835TIP3    H141700   2.285   6.486   7.894  0.0982 -0.1480  0.0883
 5835TIP3    H241701   2.382   6.386   7.836  0.6144 -1.3475  2.8498
 5836TIP3   OH241702   2.489   2.909   9.369  0.0621 -0.5629 -0.2852
 5836TIP3    H141703   2.488   2.813   9.365 -0.6617 -0.5107 -1.6382
 5836TIP3    H241704   2.405   2.936   9.334  0.7497  0.6020 -1.1097
 5837TIP3   OH241705   4.330   5.728   6.540 -0.1384 -0.1431  0.0384
 5837TIP3    H141706   4.341   5.661   6.608 -0.7766  0.3903  0.6869
 5837TIP3    H241707   4.344   5.681   6.458  0.7263 -0.7911  0.5297
 5838TIP3   OH241708   4.659   2.591   6.253  0.1627 -0.3017 -0.5583
 5838TIP3    H141709   4.648   2.672   6.302  0.0999 -0.7934  0.2589
 5838TIP3    H241710   4.582   2.539   6.277  0.7203 -1.0039 -0.2819
 5839TIP3   OH241711   0.966   3.212   8.168  0.3352 -0.2043 -0.4082
 5839TIP3    H141712   0.889   3.242   8.120  0.0390 -3.1975 -2.0244
 5839TIP3    H241713   0.941   3.218   8.260 -1.4485 -0.1250 -0.8593
 5840TIP3   OH241714   0.303   3.930   6.184  0.1431  0.0474  0.0882
 5840TIP3    H141715   0.392   3.963   6.170  0.1619  0.7485  1.6400
 5840TIP3    H241716   0.299   3.848   6.135  1.3364  0.4727 -0.7627
 5841TIP3   OH241717   5.940   2.290   7.767  0.0788  0.0905  0.2472
 5841TIP3    H141718   5.845   2.304   7.769  0.0354 -0.2618  1.9269
 5841TIP3    H241719   5.976   2.363   7.817  0.5450 -0.7060  1.1049
 5842TIP3   OH241720   1.108   0.646   6.532 -0.4658  0.4456  0.0570
 5842TIP3    H141721   1.175   0.665   6.466  1.4761  0.7888  2.0412
 5842TIP3    H241722   1.100   0.551   6.530 -0.0720  0.4148 -0.3543
 5843TIP3   OH241723   4.020   0.605   6.174 -0.1441  0.2283 -0.1828
 5843TIP3    H141724   3.945   0.556   6.141 -0.6555  0.4380  0.6461
 5843TIP3    H241725   3.991   0.641   6.258  1.0177 -0.0305  0.3537
 5844TIP3   OH241726   3.589   4.560   9.160 -0.0342  0.0139 -0.1399
 5844TIP3    H141727   3.518   4.588   9.102 -0.0834  0.3253  0.0714
 5844TIP3    H241728   3.623   4.641   9.198 -0.8006 -0.2762  1.2110
 5845TIP3   OH241729   5.658   0.451   8.606 -0.1311  0.1335  0.6109
 5845TIP3    H141730   5.726   0.434   8.671 -0.9172 -2.8447  0.7953
 5845TIP3    H241731   5.635   0.365   8.572 -2.8005  1.1783 -0.5075
 5846TIP3   OH241732   2.152   1.902   5.753 -0.4702  0.6205  0.1092
 5846TIP3    H141733   2.211   1.871   5.822 -1.1652  0.8603  0.8274
 5846TIP3    H241734   2.177   1.994   5.740 -0.5600  0.6690  0.2777
 5847TIP3   OH241735   4.523   3.601   8.085 -0.0010 -0.8227  0.3011
 5847TIP3    H141736   4.533   3.591   8.180 -0.8662  0.5235  0.5689
 5847TIP3    H241737   4.608   3.636   8.056 -0.6193  1.5188  1.0717
 5848TIP3   OH241738   4.899   4.970   7.147 -0.1605  0.6195 -0.1284
 5848TIP3    H141739   4.842   4.893   7.138 -0.3850  0.7099  0.4824
 5848TIP3    H241740   4.871   5.011   7.229  0.2217  1.1366 -0.2522
 5849TIP3   OH241741   3.619   4.961   8.676  0.4766 -0.8017  0.4308
 5849TIP3    H141742   3.610   5.040   8.623 -0.2902 -0.5789  0.8711
 5849TIP3    H241743   3.634   4.891   8.613  0.5555 -0.3915 -0.0104
 5850TIP3   OH241744   5.868   3.720   6.104 -0.1098  0.3958 -0.1134
 5850TIP3    H141745   5.900   3.805   6.073 -0.3178 -0.4185 -2.7611
 5850TIP3    H241746   5.944   3.680   6.146 -0.2064  2.1303  1.8763
 5851TIP3   OH241747   1.426   4.420   7.181 -0.3315  0.1922 -0.5308
 5851TIP3    H141748   1.353   4.361   7.161  0.1635 -0.8379  0.5345
 5851TIP3    H241749   1.502   4.377   7.143  0.3737 -1.0224  2.0389
 5852TIP3   OH241750   4.318   0.061   8.764  0.6327  0.2959 -0.0505
 5852TIP3    H141751   4.266   0.137   8.740 -0.4721  0.3515  2.3054
 5852TIP3    H241752   4.401   0.073   8.716 -0.8589  0.9922 -2.6536
 5853TIP3   OH241753   4.238   3.920   8.536  0.1634 -0.0006 -0.5838
 5853TIP3    H141754   4.163   3.979   8.538  0.7671  0.7772 -0.1998
 5853TIP3    H241755   4.220   3.861   8.463 -0.6263  0.4298 -0.7522
 5854TIP3   OH241756   4.097   1.128   7.909 -0.2981 -0.2101 -0.3845
 5854TIP3    H141757   4.091   1.036   7.935  0.3876 -0.0486  0.3926
 5854TIP3    H241758   4.010   1.149   7.874 -1.4922 -0.3376  2.2333
 5855TIP3   OH241759   1.865   0.454   5.991  0.0928  0.4631  0.1707
 5855TIP3    H141760   1.848   0.526   6.052  1.3275  1.4188 -0.5563
 5855TIP3    H241761   1.908   0.387   6.044 -2.1570 -0.3076  1.1292
 5856TIP3   OH241762   6.570   2.258   6.293  0.1526  0.6224 -0.1021
 5856TIP3    H141763   6.568   2.310   6.213  0.6364  2.6098  1.1224
 5856TIP3    H241764   6.658   2.271   6.328  0.2966 -1.0656  0.2631
 5857TIP3   OH241765   3.273   2.353   7.358 -0.2818 -0.0058 -0.1090
 5857TIP3    H141766   3.292   2.298   7.435 -0.2239  1.6326  1.1033
 5857TIP3    H241767   3.320   2.434   7.375 -1.3943  0.9067 -1.2249
 5858TIP3   OH241768   5.764   0.535   6.945 -0.0143 -0.6226  0.4577
 5858TIP3    H141769   5.814   0.617   6.951 -0.2153 -0.4313 -0.3870
 5858TIP3    H241770   5.678   0.562   6.914  0.2054 -1.2466 -0.7542
 5859TIP3   OH241771   2.480   3.548   8.545  0.6333 -0.2238  0.3864
 5859TIP3    H141772   2.458   3.608   8.616 -2.0273  0.2948 -0.7525
 5859TIP3    H241773   2.534   3.480   8.587 -1.5049 -0.4149  3.1054
 5860TIP3   OH241774   2.710   6.226   6.694  0.0744  0.0823  0.1940
 5860TIP3    H141775   2.756   6.217   6.777 -0.8254  1.1454  0.8360
 5860TIP3    H241776   2.677   6.316   6.694 -1.8511 -0.5701 -0.2941
 5861TIP3   OH241777   0.083   2.159   7.672 -0.2059 -0.1469 -0.3256
 5861TIP3    H141778  -0.011   2.138   7.667  0.1121 -1.6681 -0.4082
 5861TIP3    H241779   0.126   2.083   7.634  1.0349  1.1446 -1.6010
 5862TIP3   OH241780   4.360   3.611   6.712  0.4069 -0.0548 -0.3913
 5862TIP3    H141781   4.370   3.631   6.805  0.0988 -1.5115 -0.0109
 5862TIP3    H241782   4.420   3.671   6.668  1.5272 -0.2165  0.8497
 5863TIP3   OH241783   3.255   0.394   7.114  0.0817  0.0242  0.1982
 5863TIP3    H141784   3.247   0.336   7.038  1.5976 -1.1404  0.8632
 5863TIP3    H241785   3.270   0.481   7.077  1.4311 -0.6248 -0.8688
 5864TIP3   OH241786   6.732   2.677   8.913 -0.5503  0.0054 -1.0495
 5864TIP3    H141787   6.736   2.745   8.845  0.5401 -1.0554 -2.1086
 5864TIP3    H241788   6.759   2.722   8.993 -0.0669  0.8918 -1.6831
 5865TIP3   OH241789   2.103   3.656   8.501 -0.5568 -0.4170  0.0988
 5865TIP3    H141790   2.012   3.652   8.529 -0.4897  1.4544  0.7118
 5865TIP3    H241791   2.114   3.581   8.443 -2.6240 -0.3756 -0.4052
 5866TIP3   OH241792   2.335   3.876   7.732  0.0709  0.0293  0.0551
 5866TIP3    H141793   2.399   3.923   7.786  0.2841  1.3675 -1.2925
 5866TIP3    H241794   2.284   3.945   7.690  0.9818 -0.8824 -2.7196
 5867TIP3   OH241795   1.625   4.584   7.894  0.9584  0.0410  0.3967
 5867TIP3    H141796   1.609   4.641   7.818 -1.5279  0.7735  1.3786
 5867TIP3    H241797   1.575   4.505   7.875  1.2159 -0.2254  0.8188
 5868TIP3   OH241798   2.524   5.452   8.042 -0.6989 -0.3078  0.8818
 5868TIP3    H141799   2.596   5.406   8.085  1.4800 -0.9519 -2.9769
 5868TIP3    H241800   2.557   5.540   8.027 -0.3791 -0.7696 -1.4342
 5869TIP3   OH241801   5.554   4.100   5.515  0.4370  0.3786 -0.6667
 5869TIP3    H141802   5.459   4.102   5.503  0.2695  1.5710  0.5783
 5869TIP3    H241803   5.585   4.180   5.473  0.7772  0.4730 -0.2375
 5870TIP3   OH241804   6.750   3.530   6.494 -0.0093 -0.2535 -0.0677
 5870TIP3    H141805   6.781   3.443   6.468 -0.1100  0.3904 -2.5112
 5870TIP3    H241806   6.776   3.537   6.586  1.5093 -2.1878 -0.2692
 5871TIP3   OH241807   1.914   2.044   5.998 -0.0864 -0.1875 -0.0046
 5871TIP3    H141808   1.882   2.015   6.083 -2.0262 -0.6181 -0.8147
 5871TIP3    H241809   1.884   1.976   5.937 -1.9364  1.8150 -1.5193
 5872TIP3   OH241810   3.176   6.657   8.008  0.0564  0.5876 -0.2202
 5872TIP3    H141811   3.154   6.641   7.916  0.1515 -1.4506  0.0548
 5872TIP3    H241812   3.113   6.603   8.056  0.2295  1.3670  0.9020
 5873TIP3   OH241813   6.464   5.513   9.160  0.2505  0.6830 -0.5506
 5873TIP3    H141814   6.525   5.587   9.165  1.1387  0.3606 -3.9938
 5873TIP3    H241815   6.404   5.536   9.088 -0.6449 -1.1236 -0.4451
 5874TIP3   OH241816   4.717   3.209   6.981 -0.2530 -0.0908  0.2987
 5874TIP3    H141817   4.677   3.288   6.944 -1.6557 -0.9268 -0.0518
 5874TIP3    H241818   4.798   3.197   6.932 -0.7020  0.3799 -0.5811
 5875TIP3   OH241819   0.132   2.015   5.845  0.0438  0.1251 -0.8707
 5875TIP3    H141820   0.072   2.071   5.796 -0.6496 -0.7489 -1.0424
 5875TIP3    H241821   0.081   1.936   5.863  0.3715  0.2990  1.0156
 5876TIP3   OH241822   2.107   0.774   8.716  0.1541 -0.1571 -0.0986
 5876TIP3    H141823   2.104   0.795   8.623  0.6550 -1.8932 -0.5489
 5876TIP3    H241824   2.190   0.812   8.746  0.9289 -1.2130 -0.8235
 5877TIP3   OH241825   6.620   2.252   7.863 -0.3657  0.0886  0.2820
 5877TIP3    H141826   6.695   2.306   7.887 -0.7831  0.2875  1.1286
 5877TIP3    H241827   6.658   2.165   7.848  0.2393  0.4937 -0.6904
 5878TIP3   OH241828   4.767   6.402   9.006  0.1433  0.1877  0.0928
 5878TIP3    H141829   4.777   6.389   9.101  1.5075 -0.5124 -0.1227
 5878TIP3    H241830   4.698   6.340   8.981 -0.6672  0.8107  0.6996
 5879TIP3   OH241831   3.203   6.270   8.634 -0.0348  0.4711  0.2700
 5879TIP3    H141832   3.244   6.190   8.601  0.1184  0.5301  0.3159
 5879TIP3    H241833   3.117   6.242   8.665 -0.4945  0.5590 -0.9000
 5880TIP3   OH241834   2.674   4.452   5.790  0.4158 -0.1277  0.2018
 5880TIP3    H141835   2.598   4.469   5.845  1.0074  0.0121  0.9955
 5880TIP3    H241836   2.653   4.494   5.706 -1.2142 -1.7798 -0.2808
 5881TIP3   OH241837   5.797   2.169   8.205 -0.3820 -0.5223 -0.6019
 5881TIP3    H141838   5.703   2.151   8.206 -0.0037 -2.7970 -0.3253
 5881TIP3    H241839   5.834   2.096   8.156  1.3992 -0.5831  0.7712
 5882TIP3   OH241840   5.901   4.881   6.219 -0.5736  0.1321  0.1768
 5882TIP3    H141841   5.831   4.836   6.172  0.9232 -0.8341 -1.2296
 5882TIP3    H241842   5.954   4.810   6.256 -0.4050  0.8460  1.3448
 5883TIP3   OH241843   6.000   6.615   8.951 -0.4804  0.2945 -0.1267
 5883TIP3    H141844   5.939   6.548   8.981  0.0429  0.2172  0.8032
 5883TIP3    H241845   5.969   6.696   8.992 -0.4321  0.4065 -0.3080
 5884TIP3   OH241846   2.436   4.917   7.947 -0.0652 -0.1808 -0.3385
 5884TIP3    H141847   2.478   4.991   7.904  2.4429 -0.7624  0.9256
 5884TIP3    H241848   2.367   4.890   7.886  0.1838  1.9773 -1.6807
 5885TIP3   OH241849   2.707   0.767   6.010  0.2513  0.1307  0.1256
 5885TIP3    H141850   2.710   0.673   6.030 -3.1125 -0.4562 -1.3937
 5885TIP3    H241851   2.787   0.783   5.961 -0.2322 -2.6068 -1.7978
 5886TIP3   OH241852   0.522   0.231   7.166  0.2321 -0.5407 -0.1218
 5886TIP3    H141853   0.614   0.206   7.155  0.7248  0.2541  1.7632
 5886TIP3    H241854   0.521   0.326   7.149 -0.2514 -0.5568 -0.1979
 5887TIP3   OH241855   5.828   3.635   8.806 -0.1039 -0.0577 -0.0052
 5887TIP3    H141856   5.815   3.629   8.711 -2.8540  0.2961  0.2590
 5887TIP3    H241857   5.826   3.729   8.825 -0.7678 -0.1694  0.5118
 5888TIP3   OH241858   1.553   5.455   8.091  0.6455  0.0795 -0.0577
 5888TIP3    H141859   1.602   5.476   8.171  2.2965 -1.3550 -0.6453
 5888TIP3    H241860   1.462   5.450   8.121  1.0032  1.2168  1.3857
 5889TIP3   OH241861   6.631   5.704   9.287 -0.0526 -0.1053  0.2256
 5889TIP3    H141862   6.650   5.748   9.204 -2.9600  0.4059 -0.2936
 5889TIP3    H241863   6.584   5.769   9.339 -1.6949 -1.5558  0.6790
 5890TIP3   OH241864   4.590   2.254   6.722  0.1906 -0.0500 -0.1842
 5890TIP3    H141865   4.544   2.175   6.748  0.0293  0.5957  1.6765
 5890TIP3    H241866   4.649   2.226   6.653  0.4269 -1.8946  0.7073
 5891TIP3   OH241867   4.752   6.173   5.811  0.0327  0.2363 -0.0495
 5891TIP3    H141868   4.687   6.203   5.748  1.2156  0.3660 -1.2405
 5891TIP3    H241869   4.821   6.239   5.808  0.1141  0.2596  1.4217
 5892TIP3   OH241870   5.874   3.787   8.346 -0.2421  0.3350 -0.1178
 5892TIP3    H141871   5.938   3.839   8.298  0.3282  1.0040  1.3069
 5892TIP3    H241872   5.888   3.697   8.316 -1.1097  0.9194 -2.4739
 5893TIP3   OH241873   3.488   5.441   5.758 -0.8025  0.2347  0.1674
 5893TIP3    H141874   3.409   5.487   5.786 -1.3888 -0.9752  0.5930
 5893TIP3    H241875   3.455   5.365   5.709  0.0506 -0.7667  1.0875
 5894TIP3   OH241876   1.308   6.080   8.027 -0.2514  0.0996 -0.6957
 5894TIP3    H141877   1.308   6.175   8.015 -0.9285  0.0345 -1.2677
 5894TIP3    H241878   1.222   6.052   7.996 -0.7773 -0.5050  1.1757
 5895TIP3   OH241879   6.444   3.442   6.650 -0.1758 -0.1708  0.1997
 5895TIP3    H141880   6.418   3.521   6.697 -3.3232  0.1511 -1.7668
 5895TIP3    H241881   6.515   3.405   6.701 -0.2349  2.6310  2.5112
 5896TIP3   OH241882   3.116   1.667   7.159  0.0034  0.7541 -0.3592
 5896TIP3    H141883   3.168   1.701   7.086 -0.4220 -0.1079 -1.0853
 5896TIP3    H241884   3.146   1.577   7.170  0.9901  1.2460  1.4179
 5897TIP3   OH241885   6.464   5.086   6.805  0.4799 -0.2985 -0.4291
 5897TIP3    H141886   6.558   5.073   6.818  0.7279  0.5895 -1.1407
 5897TIP3    H241887   6.458   5.174   6.766 -0.5308 -0.8689 -1.6247
 5898TIP3   OH241888   1.114   5.511   6.360  0.0142 -0.1774  0.1643
 5898TIP3    H141889   1.085   5.603   6.360  1.3169  0.2441  0.0223
 5898TIP3    H241890   1.072   5.473   6.283  0.1293  0.5231 -0.2583
 5899TIP3   OH241891   1.569   1.041   8.541 -0.7591  0.2195 -0.3097
 5899TIP3    H141892   1.543   1.100   8.470  2.3900  1.5736 -0.5071
 5899TIP3    H241893   1.633   0.983   8.500 -0.8282 -0.6979  0.8538
 5900TIP3   OH241894   6.524   3.591   8.048 -0.0086 -0.4160 -0.4858
 5900TIP3    H141895   6.560   3.504   8.066 -1.2532 -1.2912 -1.9910
 5900TIP3    H241896   6.595   3.638   8.005  1.0438 -0.2692  1.3095
 5901TIP3   OH241897   2.535   3.176   5.889  0.0907 -0.0256 -0.4046
 5901TIP3    H141898   2.452   3.177   5.842  1.5676  1.9058 -3.2150
 5901TIP3    H241899   2.535   3.093   5.936 -3.4164 -0.0492 -0.1895
 5902TIP3   OH241900   1.818   4.658   9.353  0.2603 -0.4296 -0.7125
 5902TIP3    H141901   1.842   4.637   9.444  0.0729  0.7989 -0.3595
 5902TIP3    H241902   1.843   4.581   9.303  1.1366 -0.7993  0.2652
 5903TIP3   OH241903   2.678   0.127   8.385 -0.1063 -0.1400  0.0772
 5903TIP3    H141904   2.664   0.208   8.336 -0.4234 -0.1648  0.1255
 5903TIP3    H241905   2.707   0.064   8.319  0.3343  0.0658  0.0734
 5904TIP3   OH241906   1.109   1.611   8.345 -0.1376  0.5024 -0.1239
 5904TIP3    H141907   1.034   1.568   8.385 -0.0717  0.2082 -0.3072
 5904TIP3    H241908   1.177   1.543   8.344 -0.6464 -0.0552 -2.2493
 5905TIP3   OH241909   0.315   3.602   6.377  0.2011 -0.3912  0.1424
 5905TIP3    H141910   0.300   3.515   6.340 -0.5245  0.3896 -1.5024
 5905TIP3    H241911   0.404   3.625   6.351  0.8546 -1.1241  1.6515
 5906TIP3   OH241912   4.425   0.583   8.158 -0.4307  0.0998 -0.3321
 5906TIP3    H141913   4.393   0.552   8.243  1.3944 -1.3620 -0.1086
 5906TIP3    H241914   4.500   0.638   8.180 -0.3503  0.2555 -0.9826
 5907TIP3   OH241915   1.655   6.111   6.629  0.3319 -0.3118  0.5295
 5907TIP3    H141916   1.728   6.093   6.689  2.0295 -1.1392 -1.6363
 5907TIP3    H241917   1.690   6.175   6.567 -0.9782 -0.2834 -0.2137
 5908TIP3   OH241918   5.257   6.139   6.608  0.6278 -0.2667 -0.0027
 5908TIP3    H141919   5.289   6.067   6.663  0.5934 -1.0599 -0.9870
 5908TIP3    H241920   5.239   6.210   6.669  1.0412 -0.9651  0.9515
 5909TIP3   OH241921   0.885   0.975   6.316  0.1777  0.3671  0.0124
 5909TIP3    H141922   0.794   0.995   6.298  0.6658  1.5058 -1.3624
 5909TIP3    H241923   0.886   0.948   6.408 -1.8979 -2.0845 -0.5523
 5910TIP3   OH241924   0.557   5.636   7.617  0.1734 -0.3072 -0.1251
 5910TIP3    H141925   0.513   5.579   7.680  1.2387  0.0445  0.9874
 5910TIP3    H241926   0.487   5.672   7.564 -0.7775 -0.5539  0.9254
 5911TIP3   OH241927   4.982   5.622   8.425  0.2081  0.2376 -0.0456
 5911TIP3    H141928   4.905   5.678   8.424 -0.0643  0.1370 -4.3879
 5911TIP3    H241929   4.961   5.551   8.364  2.8192 -1.2325  0.5885
 5912TIP3   OH241930   5.674   3.806   6.289 -0.0561 -0.3044  0.0642
 5912TIP3    H141931   5.723   3.768   6.216 -0.9582 -1.2446 -0.0705
 5912TIP3    H241932   5.598   3.749   6.299 -0.6871  0.6465  0.8169
 5913TIP3   OH241933   4.540   5.628   9.435  1.0506 -0.7600 -0.4234
 5913TIP3    H141934   4.532   5.602   9.527 -0.0021  0.8005 -0.0362
 5913TIP3    H241935   4.620   5.681   9.431  1.2538 -1.0652 -0.4842
 5914TIP3   OH241936   6.478   2.711   7.660  0.1239  0.3083  0.2883
 5914TIP3    H141937   6.547   2.646   7.675  0.0906  0.0529 -0.5673
 5914TIP3    H241938   6.401   2.659   7.637 -0.3114  0.5995  1.0680
 5915TIP3   OH241939   4.360   3.166   5.566 -0.1257 -0.6821  0.0569
 5915TIP3    H141940   4.436   3.108   5.557  0.7925  0.4872 -0.1597
 5915TIP3    H241941   4.399   3.254   5.574 -1.4683 -0.0468 -0.1380
 5916TIP3   OH241942   3.344   4.101   6.403  0.4330  0.1838 -0.2154
 5916TIP3    H141943   3.425   4.055   6.423  0.6759  0.5661 -0.3059
 5916TIP3    H241944   3.372   4.182   6.360 -0.0557 -0.3369 -1.5592
 5917TIP3   OH241945   5.713   3.091   7.647 -0.3509  0.0441  0.1296
 5917TIP3    H141946   5.748   3.002   7.647  0.1293  0.1801 -1.8905
 5917TIP3    H241947   5.743   3.128   7.730 -0.1463 -1.5134  0.7851
 5918TIP3   OH241948   1.780   3.158   6.679 -0.3091 -0.0690 -0.0095
 5918TIP3    H141949   1.860   3.124   6.639 -0.9906  0.5127 -1.9717
 5918TIP3    H241950   1.725   3.184   6.605 -1.5844  1.2219  1.3287
 5919TIP3   OH241951   2.517   4.075   7.215  0.3093 -1.1070 -0.3811
 5919TIP3    H141952   2.477   4.159   7.240 -0.0772 -1.1568 -0.8169
 5919TIP3    H241953   2.605   4.079   7.251  1.1522  0.5072 -2.4039
 5920TIP3   OH241954   1.381   6.616   8.361  0.4256 -0.5130  0.1386
 5920TIP3    H141955   1.321   6.643   8.292  1.2272 -2.1642 -1.3111
 5920TIP3    H241956   1.342   6.536   8.397  0.3051  0.0197  1.2146
 5921TIP3   OH241957   4.751   4.886   7.613 -0.4634 -0.0534 -0.2759
 5921TIP3    H141958   4.729   4.809   7.665 -1.7605  0.4966  0.0196
 5921TIP3    H241959   4.680   4.894   7.550 -0.2545  0.8006 -0.4173
 5922TIP3   OH241960   2.866   2.995   6.809  0.4924  0.5317 -0.4099
 5922TIP3    H141961   2.951   2.969   6.845  0.3528  0.0847 -0.4071
 5922TIP3    H241962   2.815   3.022   6.886 -0.1064 -1.2426 -0.1327
 5923TIP3   OH241963   1.810   1.762   8.825  0.0698  0.1710  0.5353
 5923TIP3    H141964   1.892   1.714   8.839  0.2684  0.3919  0.1293
 5923TIP3    H241965   1.774   1.726   8.744  1.8263  2.8647 -1.6317
 5924TIP3   OH241966   5.477   1.450   6.619  0.5297  0.1596  0.4388
 5924TIP3    H141967   5.482   1.511   6.693 -1.4978 -1.1755  1.7745
 5924TIP3    H241968   5.424   1.378   6.651 -2.4209  0.5040 -3.0274
 5925TIP3   OH241969   6.413   5.545   8.552 -0.2766  0.3745  0.3991
 5925TIP3    H141970   6.348   5.481   8.581  0.8783 -1.7632 -1.4315
 5925TIP3    H241971   6.375   5.583   8.473  0.2254 -0.0919 -0.0698
 5926TIP3   OH241972   1.322   5.098   6.715 -0.6329 -0.6356 -0.2229
 5926TIP3    H141973   1.260   5.114   6.786 -0.5847  1.7104 -0.6436
 5926TIP3    H241974   1.313   5.173   6.658 -0.8744 -2.5657 -2.9252
 5927TIP3   OH241975   2.982   0.646   6.072 -0.7532  0.0525 -0.0108
 5927TIP3    H141976   2.994   0.732   6.112  0.7627  0.5508 -1.4485
 5927TIP3    H241977   2.954   0.590   6.145 -1.3737  1.6402  1.0365
 5928TIP3   OH241978   4.406   1.178   7.078  0.2261 -0.6719 -0.4733
 5928TIP3    H141979   4.377   1.261   7.039  1.0034 -0.9031 -1.6014
 5928TIP3    H241980   4.373   1.111   7.019  0.7875 -1.0843 -0.3304
 5929TIP3   OH241981   6.210   4.686   7.945  0.1670  0.4602 -0.5447
 5929TIP3    H141982   6.211   4.772   7.904 -0.4148 -0.2612 -2.1650
 5929TIP3    H241983   6.142   4.638   7.898  1.0818 -1.1735 -0.2770
 5930TIP3   OH241984   5.841   5.281   7.441  0.5008  0.1305 -0.0070
 5930TIP3    H141985   5.875   5.369   7.424 -1.3149  1.0697  0.9184
 5930TIP3    H241986   5.796   5.257   7.360  0.8929  0.0736 -0.2156
 5931TIP3   OH241987   5.905   0.132   6.811  0.0397  0.5557  0.4986
 5931TIP3    H141988   5.837   0.106   6.874 -0.1726  1.3499  0.6001
 5931TIP3    H241989   5.882   0.086   6.731 -1.2816  1.6974  0.1940
 5932TIP3   OH241990   5.704   0.986   6.133  0.1027 -0.2408 -0.2721
 5932TIP3    H141991   5.774   0.920   6.137 -0.9000 -1.3139  0.1606
 5932TIP3    H241992   5.624   0.935   6.120 -0.6062  0.9711 -0.8036
 5933TIP3   OH241993   0.555   4.248   7.807 -0.6689 -0.2249  0.1317
 5933TIP3    H141994   0.476   4.253   7.861 -0.1609 -0.5107  0.9004
 5933TIP3    H241995   0.521   4.234   7.718 -1.4631 -1.6709  0.6323
 5934TIP3   OH241996   3.897   0.945   5.858  0.3372 -0.3755  0.1970
 5934TIP3    H141997   3.922   1.038   5.863 -1.9366  0.3485 -0.5352
 5934TIP3    H241998   3.899   0.915   5.948 -1.8219  1.2965  0.8864
 5935TIP3   OH241999   3.067   2.468   9.013 -0.1269 -0.1350 -1.0945
 5935TIP3    H142000   3.023   2.454   9.097  3.1295  1.3021  1.0628
 5935TIP3    H242001   3.054   2.561   8.994 -0.7051 -0.4140 -2.1466
 5936TIP3   OH242002   0.262   2.822   5.671  0.2039  0.9012 -0.8038
 5936TIP3    H142003   0.170   2.833   5.697  0.2074  1.0902 -0.8685
 5936TIP3    H242004   0.299   2.767   5.740 -0.3475 -0.5418 -1.6218
 5937TIP3   OH242005   5.331   4.381   7.408  0.2632 -0.4144  0.0637
 5937TIP3    H142006   5.384   4.390   7.329 -0.1789 -0.4897 -0.2442
 5937TIP3    H242007   5.379   4.432   7.474  0.8871 -0.7526 -0.1195
 5938TIP3   OH242008   3.216   1.405   7.206  0.2738  0.9402 -0.0194
 5938TIP3    H142009   3.141   1.359   7.244  1.3040  1.3199  2.6767
 5938TIP3    H242010   3.251   1.344   7.141 -0.1433 -0.8567  1.3632
 5939TIP3   OH242011   6.048   2.330   6.866 -0.2975  0.2426 -0.2965
 5939TIP3    H142012   5.977   2.287   6.819  0.1798 -0.2022 -0.6283
 5939TIP3    H242013   6.008   2.363   6.947 -1.1061  0.9277 -0.9619
 5940TIP3   OH242014   6.555   3.143   5.697  0.8364 -0.0425  0.4912
 5940TIP3    H142015   6.611   3.094   5.636 -0.6233 -0.5984 -0.4636
 5940TIP3    H242016   6.569   3.235   5.675  0.3789 -0.2374 -0.6820
 5941TIP3   OH242017   1.250   5.202   7.545  0.3122 -0.8639 -0.0721
 5941TIP3    H142018   1.211   5.147   7.612 -0.9369  0.9696  0.7785
 5941TIP3    H242019   1.337   5.224   7.579 -0.3113  0.0481  0.9765
 5942TIP3   OH242020   4.990   3.099   7.109 -0.8661 -0.0991  0.3709
 5942TIP3    H142021   5.010   3.181   7.154  0.8059 -0.6181  0.6082
 5942TIP3    H242022   4.908   3.070   7.149 -0.5235  0.5305  1.5829
 5943TIP3   OH242023   1.623   2.001   8.163  0.1814  0.3574  0.4488
 5943TIP3    H142024   1.669   1.985   8.245  0.5173  1.7346  0.5419
 5943TIP3    H242025   1.671   2.071   8.121 -1.5941  1.6087  0.3908
 5944TIP3   OH242026   6.114   5.908   6.277  0.5255  0.2480  0.1502
 5944TIP3    H142027   6.169   5.845   6.231  1.3426 -0.1709  1.6288
 5944TIP3    H242028   6.043   5.855   6.314 -1.1757  0.8454 -2.0972
 5945TIP3   OH242029   3.620   5.878   7.636  0.5792 -0.3188  0.0165
 5945TIP3    H142030   3.648   5.787   7.650  1.1203 -0.1541  0.0037
 5945TIP3    H242031   3.536   5.870   7.591  0.2911 -0.8229  0.6157
 5946TIP3   OH242032   5.245   6.385   6.414 -0.0749 -0.2500  0.1275
 5946TIP3    H142033   5.283   6.299   6.432 -0.3467  0.0303  2.3322
 5946TIP3    H242034   5.181   6.398   6.483 -1.9697  0.6359 -1.6871
 5947TIP3   OH242035   5.201   2.491   5.413 -0.3102  0.4782  0.1836
 5947TIP3    H142036   5.243   2.570   5.378  0.6572  0.8045  1.9596
 5947TIP3    H242037   5.244   2.419   5.366 -0.6784  0.9547 -0.9217
 5948TIP3   OH242038   0.053   2.448   7.937 -0.4432  0.3479 -0.4252
 5948TIP3    H142039   0.138   2.408   7.956 -0.6687 -0.0307 -0.1847
 5948TIP3    H242040   0.048   2.523   7.996 -1.5853 -1.4292  1.9168
 5949TIP3   OH242041   5.391   0.582   7.252 -0.3595 -0.1164  0.6105
 5949TIP3    H142042   5.377   0.528   7.330  1.6239  1.0825  1.9154
 5949TIP3    H242043   5.486   0.576   7.236 -0.8290 -1.0859 -2.3374
 5950TIP3   OH242044   4.556   6.563   8.152  0.3912  0.0895 -0.1302
 5950TIP3    H142045   4.562   6.539   8.245 -2.2486  1.6784  0.5673
 5950TIP3    H242046   4.641   6.600   8.131  0.8811  0.1963  1.8312
 5951TIP3   OH242047   5.985   5.584   8.224 -0.3579  0.0849  0.0630
 5951TIP3    H142048   6.019   5.496   8.206 -0.0015  0.1927  0.2061
 5951TIP3    H242049   6.053   5.643   8.193  1.5436  0.2890  3.9913
 5952TIP3   OH242050   4.569   0.584   6.118 -0.3215 -0.2212  0.2467
 5952TIP3    H142051   4.636   0.538   6.168  0.4749 -0.2218 -0.8030
 5952TIP3    H242052   4.534   0.649   6.179  1.5200  0.6431  0.4477
 5953TIP3   OH242053   1.015   1.273   7.218 -0.1825 -0.2374 -0.0185
 5953TIP3    H142054   0.935   1.227   7.194 -0.8289  1.0565 -0.4510
 5953TIP3    H242055   1.002   1.296   7.310 -0.1021 -0.4185  0.0394
 5954TIP3   OH242056   6.584   0.219   7.155 -0.6626  0.1247  0.5856
 5954TIP3    H142057   6.518   0.288   7.166 -1.0068 -0.1426  0.2190
 5954TIP3    H242058   6.535   0.142   7.127  0.0784  0.6697 -2.5440
 5955TIP3   OH242059   6.463   2.982   6.443  0.2604  0.0980 -0.7709
 5955TIP3    H142060   6.433   3.055   6.498 -0.9331 -1.0413  0.1522
 5955TIP3    H242061   6.466   3.018   6.355 -0.1474  1.3031 -0.3139
 5956TIP3   OH242062   5.239   4.843  15.254  0.6273 -0.1334  0.1362
 5956TIP3    H142063   5.231   4.913  15.188  0.7429  0.2782  0.5539
 5956TIP3    H242064   5.229   4.888  15.338  3.4650 -0.1210  0.5574
 5957TIP3   OH242065   0.437   0.908   5.631  0.4460 -0.2286 -0.3275
 5957TIP3    H142066   0.390   0.966   5.691  0.9425 -0.4148  0.2482
 5957TIP3    H242067   0.432   0.952   5.546 -2.1144 -0.9639 -0.6447
 5958TIP3   OH242068   4.542   3.731   6.543  0.0639  0.4443 -0.0599
 5958TIP3    H142069   4.486   3.806   6.563 -0.0103  0.0795  1.2051
 5958TIP3    H242070   4.593   3.758   6.467 -2.2118  0.5680 -1.6305
 5959TIP3   OH242071   1.506   2.260   8.828 -0.1421 -0.0374  0.7858
 5959TIP3    H142072   1.549   2.282   8.745  0.3047  1.0532  1.2848
 5959TIP3    H242073   1.548   2.179   8.856  0.9869  0.5378  0.8192
 5960TIP3   OH242074   3.127   3.934   8.117  0.9086 -0.5862  0.3001
 5960TIP3    H142075   3.082   4.018   8.104 -0.4516 -1.3157  0.0645
 5960TIP3    H242076   3.119   3.916   8.211 -0.1297 -1.1414  0.1215
 5961TIP3   OH242077   6.076   1.936   7.513  0.0906 -0.0503  0.3573
 5961TIP3    H142078   6.095   1.846   7.487 -0.2755 -0.3670  1.1552
 5961TIP3    H242079   6.125   1.990   7.451  0.0337 -0.7935 -0.3456
 5962TIP3   OH242080   3.082   5.310   5.691 -0.0419  0.0023  0.0004
 5962TIP3    H142081   3.170   5.277   5.676  0.0699  0.3740 -0.1701
 5962TIP3    H242082   3.027   5.232   5.692  0.0226 -0.0934 -1.7419
 5963TIP3   OH242083   2.818   1.289   5.698  0.1572  0.5828 -0.1314
 5963TIP3    H142084   2.880   1.243   5.754 -1.5442  0.3817  1.6841
 5963TIP3    H242085   2.869   1.359   5.658  1.0064  2.3474  3.6223
 5964TIP3   OH242086   4.884   5.472   6.259 -0.1454  0.0496  0.3116
 5964TIP3    H142087   4.950   5.473   6.189  0.4576 -0.3173  0.8658
 5964TIP3    H242088   4.934   5.482   6.339 -0.8273  0.3603  0.7049
 5965TIP3   OH242089   0.780   5.951   6.183  0.8560  0.3802  0.3715
 5965TIP3    H142090   0.842   6.006   6.135  0.7201 -1.2027 -1.7169
 5965TIP3    H242091   0.717   6.013   6.220  1.7515  1.7565 -0.3405
 5966TIP3   OH242092   1.524   4.131   8.458  0.3220 -0.7294 -0.0951
 5966TIP3    H142093   1.485   4.089   8.382 -0.1012  1.1962 -1.0075
 5966TIP3    H242094   1.605   4.171   8.425  1.5650 -2.1100  1.0991
 5967TIP3   OH242095   2.293   4.210   8.039 -0.1884  0.1594 -0.0572
 5967TIP3    H142096   2.379   4.248   8.023 -0.0778 -0.6618 -1.6920
 5967TIP3    H242097   2.254   4.202   7.951 -1.2559 -1.0140  0.4913
 5968TIP3   OH242098   0.271   3.677   6.908  0.3083 -0.3207  0.3338
 5968TIP3    H142099   0.238   3.591   6.931 -0.4909 -0.2297 -0.4378
 5968TIP3    H242100   0.278   3.676   6.813  1.9645 -0.1180  0.4178
 5969TIP3   OH242101   1.950   1.173   8.087  0.3060 -0.4574  0.3229
 5969TIP3    H142102   2.041   1.169   8.058  0.2630  0.4427  0.0164
 5969TIP3    H242103   1.902   1.118   8.025  0.3931  0.4792 -0.6020
 5970TIP3   OH242104   4.146   4.054   7.143 -0.1114  0.2624 -0.2266
 5970TIP3    H142105   4.120   4.069   7.233  0.6401 -0.2656  0.0977
 5970TIP3    H242106   4.070   4.014   7.101 -0.5930  0.8715  0.0666
 5971TIP3   OH242107   6.499   4.164   7.480  0.3768 -0.1311  0.3857
 5971TIP3    H142108   6.550   4.096   7.523 -0.7017 -1.8797 -0.9555
 5971TIP3    H242109   6.437   4.116   7.424 -0.8482  1.9403 -0.1527
 5972TIP3   OH242110   2.300   3.815   8.553 -0.0150 -0.2358  0.2639
 5972TIP3    H142111   2.229   3.756   8.527 -1.0488  0.4459  1.4375
 5972TIP3    H242112   2.348   3.767   8.620  1.4691 -1.2162 -1.4300
 5973TIP3   OH242113   5.679   5.143   5.881  0.4310 -0.5144 -0.9995
 5973TIP3    H142114   5.592   5.144   5.839 -0.6601  0.8233  1.1228
 5973TIP3    H242115   5.700   5.051   5.891 -0.6745 -0.8589 -1.6790
 5974TIP3   OH242116   1.457   5.107   8.814  0.4862  0.0619  0.1056
 5974TIP3    H142117   1.405   5.186   8.802  0.7044  0.2781  0.5540
 5974TIP3    H242118   1.440   5.055   8.735  0.5974  0.6951 -0.3451
 5975TIP3   OH242119   3.085   5.420   6.434 -0.1940  0.2557 -0.7736
 5975TIP3    H142120   3.156   5.358   6.450 -1.3634 -0.5586  1.7182
 5975TIP3    H242121   3.041   5.386   6.356  1.1129 -0.1709 -1.3559
 5976TIP3   OH242122   6.724   4.230   7.168 -0.1898  0.0064  0.5400
 5976TIP3    H142123   6.686   4.265   7.249 -0.4463  0.7469  0.1052
 5976TIP3    H242124   6.653   4.232   7.104  0.3601  0.6623 -0.0640
 5977TIP3   OH242125   4.982   5.431   8.795 -0.3673  0.4337  0.0296
 5977TIP3    H142126   5.069   5.401   8.768 -0.9321 -0.1276 -1.2727
 5977TIP3    H242127   4.949   5.360   8.851 -0.1282  0.4922  0.2481
 5978TIP3   OH242128   4.778   6.004   8.696  0.4200  0.3271 -0.4890
 5978TIP3    H142129   4.683   6.008   8.698  0.3695 -0.6538 -0.6455
 5978TIP3    H242130   4.801   5.945   8.768  0.9287  0.7513 -0.2933
 5979TIP3   OH242131   3.212   0.109   5.928  0.2331 -0.6295 -0.0464
 5979TIP3    H142132   3.291   0.123   5.980  0.1957 -1.9268  0.3763
 5979TIP3    H242133   3.166   0.193   5.932  1.3248 -0.0174  0.1324
 5980TIP3   OH242134   6.146   6.114   7.052  0.0680 -0.0738  0.1654
 5980TIP3    H142135   6.235   6.129   7.084  0.3817 -0.8751 -0.2891
 5980TIP3    H242136   6.147   6.150   6.963  0.5836 -1.8731 -0.6240
 5981TIP3   OH242137   4.115   6.716   8.576  0.6474  0.0086 -0.1799
 5981TIP3    H142138   4.040   6.726   8.634  1.4471  1.3769  0.6578
 5981TIP3    H242139   4.191   6.742   8.628  1.1335  4.3655 -2.5600
 5982TIP3   OH242140   2.799   4.707   8.172  0.2519 -0.3038 -0.1023
 5982TIP3    H142141   2.704   4.707   8.175  0.2489  0.4274  3.3799
 5982TIP3    H242142   2.825   4.792   8.208  2.2296 -0.8359 -0.1398
 5983TIP3   OH242143   1.362   2.527   6.643 -0.3560 -0.3095 -0.4070
 5983TIP3    H142144   1.403   2.605   6.678  0.0829  0.1131 -1.7849
 5983TIP3    H242145   1.278   2.558   6.607 -0.6358 -0.6573 -0.0622
 5984TIP3   OH242146   4.622   1.923   7.947  0.1101 -0.0901 -0.2000
 5984TIP3    H142147   4.688   1.931   8.016  0.7597  0.7092 -0.8904
 5984TIP3    H242148   4.546   1.971   7.982  0.0532 -0.5804  0.3806
 5985TIP3   OH242149   6.664   5.955   7.832 -0.0226  0.2751 -0.2731
 5985TIP3    H142150   6.697   6.035   7.875 -0.5421 -0.0811  0.8450
 5985TIP3    H242151   6.582   5.936   7.878 -0.6963 -0.0508 -1.5587
 5986TIP3   OH242152   0.555   3.710   6.299  1.0099 -0.3893 -0.0324
 5986TIP3    H142153   0.615   3.726   6.371  1.5973 -0.2256 -0.5533
 5986TIP3    H242154   0.547   3.794   6.255  1.6916 -0.7811 -0.9417
 5987TIP3   OH242155   1.061   6.323   8.129  0.3426 -0.1338  0.1068
 5987TIP3    H142156   1.155   6.340   8.134  0.3880 -0.4153  0.2717
 5987TIP3    H242157   1.021   6.409   8.115  0.5899  0.0494  0.5041
 5988TIP3   OH242158   0.026   4.471   6.465 -0.7983  0.1248  0.6946
 5988TIP3    H142159  -0.049   4.497   6.412  0.1641  1.0870 -0.2319
 5988TIP3    H242160   0.096   4.454   6.402 -0.1712 -0.5877  1.5452
 5989TIP3   OH242161   5.622   2.709   6.998  0.6211 -0.4182 -0.1966
 5989TIP3    H142162   5.640   2.692   7.090 -0.8628  0.9937  0.3865
 5989TIP3    H242163   5.595   2.624   6.962 -0.1084 -0.7085  0.9967
 5990TIP3   OH242164   6.415   6.465   6.371  0.4306 -0.7044  0.5527
 5990TIP3    H142165   6.489   6.525   6.372  0.4460 -0.7189  1.4395
 5990TIP3    H242166   6.399   6.446   6.464 -2.0139  0.9541  0.5547
 5991TIP3   OH242167   0.694   0.719   8.080  0.3602 -0.2390  0.2273
 5991TIP3    H142168   0.759   0.761   8.024  0.7863 -1.7772 -0.4598
 5991TIP3    H242169   0.742   0.691   8.157 -0.3101  2.2972  1.6958
 5992TIP3   OH242170   3.492   5.963   7.035  0.0603 -0.6895  0.1032
 5992TIP3    H142171   3.518   6.053   7.060 -1.4238 -0.5699  1.3753
 5992TIP3    H242172   3.462   5.971   6.945  3.0128 -0.5877 -1.0004
 5993TIP3   OH242173   5.749   3.174   7.393  0.2450 -0.1579  0.1945
 5993TIP3    H142174   5.755   3.137   7.481  1.0192  0.4155  0.3874
 5993TIP3    H242175   5.758   3.099   7.334 -2.6487 -0.9283  0.5676
 5994TIP3   OH242176   4.692   3.721   5.971  0.3236 -0.7810 -0.1218
 5994TIP3    H142177   4.676   3.807   5.931  0.5803 -0.9682 -0.6430
 5994TIP3    H242178   4.697   3.661   5.897  1.2757 -1.0662  0.1546
 5995TIP3   OH242179   1.307   0.932   7.612 -0.2989  0.7011 -0.1726
 5995TIP3    H142180   1.270   1.011   7.571  0.9142  1.0264 -0.6897
 5995TIP3    H242181   1.391   0.961   7.646 -0.4242 -0.0668  0.8162
 5996TIP3   OH242182   0.807   1.114   8.213 -0.1324  0.5542  0.0922
 5996TIP3    H142183   0.744   1.094   8.143  1.2382  0.1978 -1.0980
 5996TIP3    H242184   0.755   1.158   8.280 -1.5693  0.6181 -1.0021
 5997TIP3   OH242185   0.062   2.669   6.144  0.1838  0.2855 -0.1002
 5997TIP3    H142186  -0.007   2.676   6.209  0.3204 -1.0303  0.2141
 5997TIP3    H242187   0.131   2.727   6.176 -0.1589  0.4285  0.3898
 5998TIP3   OH242188   1.183   4.596   6.647  0.6569 -0.4676  0.0498
 5998TIP3    H142189   1.140   4.602   6.732  0.9963  0.3903  0.1699
 5998TIP3    H242190   1.177   4.684   6.611 -2.1333 -1.4333 -2.1718
 5999TIP3   OH242191   5.583   0.429   6.136  0.1111  0.1146 -0.5093
 5999TIP3    H142192   5.600   0.339   6.166  1.1772  0.6121  0.4190
 5999TIP3    H242193   5.554   0.475   6.214  1.1503  0.9809 -0.6251
 6000TIP3   OH242194   1.351   0.986   7.118  0.0282  0.0076 -0.1639
 6000TIP3    H142195   1.408   0.938   7.178  0.5587  0.0680 -0.6104
 6000TIP3    H242196   1.389   0.971   7.031 -0.7261 -0.0772 -0.4894
 6001TIP3   OH242197   0.796   6.672   6.669  0.2498 -0.0004  1.0551
 6001TIP3    H142198   0.729   6.681   6.602  0.3242 -1.2640  0.7856
 6001TIP3    H242199   0.848   6.752   6.663  3.5518 -1.9830 -4.0466
 6002TIP3   OH242200   4.434   2.845   7.038  0.0234  0.1443  0.3715
 6002TIP3    H142201   4.340   2.846   7.057  0.2496 -1.6371  1.8226
 6002TIP3    H242202   4.465   2.930   7.067 -1.1744  0.9069 -0.4780
 6003TIP3   OH242203   4.753   3.968   7.203 -0.2318 -0.5139  0.3168
 6003TIP3    H142204   4.793   3.939   7.285 -0.4667 -2.3365 -0.1722
 6003TIP3    H242205   4.661   3.984   7.225 -0.2462 -0.7795  0.4494
 6004TIP3   OH242206   1.841   6.270   8.641 -0.2702  0.5974 -0.0425
 6004TIP3    H142207   1.885   6.353   8.659 -2.3454  2.4939 -2.7594
 6004TIP3    H242208   1.749   6.288   8.661 -0.7837 -1.0192 -0.8137
 6005TIP3   OH242209   0.466   0.936   7.030 -0.1434 -0.7051  0.6017
 6005TIP3    H142210   0.415   0.887   6.966 -1.9867  1.3262  0.3822
 6005TIP3    H242211   0.555   0.939   6.993 -0.8897 -0.5627 -1.3099
 6006TIP3   OH242212   0.305   1.082   6.090 -0.5802 -0.0259  0.0665
 6006TIP3    H142213   0.262   1.145   6.032 -0.1306 -1.3713 -1.8148
 6006TIP3    H242214   0.257   1.000   6.077  0.8445 -0.8866 -0.0350
 6007TIP3   OH242215   1.312   2.166   6.018 -0.0391 -0.7963 -0.0905
 6007TIP3    H142216   1.351   2.091   6.063 -0.7951 -0.0689  1.8948
 6007TIP3    H242217   1.228   2.133   5.985 -0.1800 -0.9286  0.4016
 6008TIP3   OH242218   0.420   4.225   6.983  0.3032  0.0175  0.8277
 6008TIP3    H142219   0.466   4.142   6.973  1.2420  0.1831  3.1371
 6008TIP3    H242220   0.434   4.271   6.901  0.6820 -1.6462 -0.0799
 6009TIP3   OH242221   4.094   3.997   6.064 -0.1252  0.2508  0.3830
 6009TIP3    H142222   4.130   3.941   5.995 -2.4776  1.2592 -1.7980
 6009TIP3    H242223   4.017   3.949   6.096  1.1052 -0.3561  2.6642
 6010TIP3   OH242224   3.173   1.616   8.389 -0.0524 -0.1053 -0.4468
 6010TIP3    H142225   3.153   1.552   8.457  1.8999 -1.0570 -0.7161
 6010TIP3    H242226   3.198   1.695   8.438  1.1078 -0.7089 -0.0233
 6011TIP3   OH242227   1.235   0.315   5.899  0.3675  0.0536 -0.7321
 6011TIP3    H142228   1.165   0.380   5.894 -0.3313 -0.4941  1.0049
 6011TIP3    H242229   1.314   0.365   5.918 -0.3057  0.3903  1.4607
 6012TIP3   OH242230   5.778   2.658   7.229  0.2280  0.3695  0.4544
 6012TIP3    H142231   5.833   2.709   7.170  1.3257 -1.2894 -0.0271
 6012TIP3    H242232   5.768   2.573   7.186  0.1480 -0.5246  2.1275
 6013TIP3   OH242233   1.509   4.807   5.926  0.0183  0.5515 -0.6161
 6013TIP3    H142234   1.493   4.721   5.886  0.8969 -0.0602  0.2868
 6013TIP3    H242235   1.604   4.813   5.934 -0.0878  0.0934  2.4000
 6014TIP3   OH242236   5.258   1.547   6.430 -0.2674 -0.2916 -0.5283
 6014TIP3    H142237   5.280   1.471   6.376  0.2031  0.0654 -0.8389
 6014TIP3    H242238   5.239   1.510   6.516  0.7769 -0.6783 -0.4554
 6015TIP3   OH242239   4.537   3.024   5.775 -0.3963 -0.1370  0.7682
 6015TIP3    H142240   4.459   2.980   5.810 -0.8917  0.4122  0.3603
 6015TIP3    H242241   4.598   3.026   5.848 -0.5997 -0.9590  0.9696
 6016TIP3   OH242242   2.038   6.361   7.450 -0.4923 -0.2732  0.2627
 6016TIP3    H142243   2.031   6.327   7.539 -1.5429  2.4796  1.3319
 6016TIP3    H242244   1.960   6.329   7.405 -0.4009 -0.9555  0.5887
 6017TIP3   OH242245   5.892   1.646   6.356  0.1713  0.5264  0.3048
 6017TIP3    H142246   5.934   1.575   6.405 -0.5803  0.0299  0.2543
 6017TIP3    H242247   5.839   1.692   6.421 -2.5939 -1.4686 -0.3316
 6018TIP3   OH242248   3.199   6.244   5.992 -0.4457 -0.0261 -0.5115
 6018TIP3    H142249   3.116   6.286   5.968 -0.6382  0.7715  1.3897
 6018TIP3    H242250   3.253   6.316   6.026  0.4043 -0.8088 -0.1852
 6019TIP3   OH242251   0.205   5.112   9.923  0.0909 -0.3759  0.4582
 6019TIP3    H142252   0.272   5.076   9.981 -0.2651 -1.5447  0.1690
 6019TIP3    H242253   0.227   5.075   9.837  0.0940  0.6308  0.0150
 6020TIP3   OH242254   0.767   3.208   5.220 -0.1132  0.5455 -0.0896
 6020TIP3    H142255   0.854   3.190   5.184  0.3553  1.3955  0.5866
 6020TIP3    H242256   0.734   3.280   5.166 -0.1045  0.6851  0.0897
 6021TIP3   OH242257   4.792   4.772   5.817 -0.2385  0.1246  0.1276
 6021TIP3    H142258   4.717   4.735   5.770 -0.2947 -0.3178  0.5618
 6021TIP3    H242259   4.839   4.822   5.750 -2.0206  2.1339  0.2542
 6022TIP3   OH242260   6.287   5.709   7.111 -0.5800  0.6280 -0.1633
 6022TIP3    H142261   6.288   5.773   7.182 -0.3648  1.2055 -0.6823
 6022TIP3    H242262   6.202   5.721   7.069 -1.0145 -0.2176  0.4361
 6023TIP3   OH242263   4.281   2.337   6.093  0.4539 -0.1445 -0.0543
 6023TIP3    H142264   4.217   2.391   6.139  0.2047  0.6991 -1.3530
 6023TIP3    H242265   4.362   2.348   6.143  0.1050  0.4750  0.3891
 6024TIP3   OH242266   4.913   2.583   8.024 -0.3715 -0.1441  0.0228
 6024TIP3    H142267   4.946   2.629   7.946  0.0455 -0.7138 -0.1400
 6024TIP3    H242268   4.821   2.568   8.005 -0.1895 -0.5984 -0.5183
 6025TIP3   OH242269   4.106   4.570   8.456 -0.0810  0.5423 -0.3716
 6025TIP3    H142270   4.063   4.523   8.384  0.4694 -0.7088  0.0905
 6025TIP3    H242271   4.180   4.515   8.480  0.6400  1.7081  0.1473
 6026TIP3   OH242272   2.670   5.259   7.177  0.0948 -0.1526 -0.8405
 6026TIP3    H142273   2.631   5.297   7.255  0.8218 -0.0316 -0.5279
 6026TIP3    H242274   2.597   5.250   7.115 -0.3285  0.5202 -0.4476
 6027TIP3   OH242275   3.531   2.685   6.383  0.2262 -0.2104  0.1302
 6027TIP3    H142276   3.532   2.705   6.289 -1.3478  2.0117  0.5171
 6027TIP3    H242277   3.476   2.607   6.390 -0.4896  0.1968 -0.7212
 6028TIP3   OH242278   3.961   4.691   8.080 -0.1646 -0.0339 -0.1192
 6028TIP3    H142279   3.909   4.771   8.086 -1.2490 -0.6508 -0.9915
 6028TIP3    H242280   4.050   4.718   8.104 -0.6848  1.2469  0.4142
 6029TIP3   OH242281   5.226   2.571   7.637  0.6623  0.4940 -0.5768
 6029TIP3    H142282   5.176   2.651   7.619 -0.6606  0.7034  3.1126
 6029TIP3    H242283   5.297   2.600   7.695 -0.7238 -1.0278  2.1091
 6030TIP3   OH242284   6.547   3.593   8.797  0.1039  0.0258  0.1763
 6030TIP3    H142285   6.558   3.581   8.892 -0.6398 -0.6705  0.1785
 6030TIP3    H242286   6.591   3.676   8.779 -0.1776  0.4160  1.2102
 6031TIP3   OH242287   1.754   1.591   5.872 -0.0129  0.0431  0.5367
 6031TIP3    H142288   1.786   1.557   5.789  0.7842 -1.2635  1.3593
 6031TIP3    H242289   1.660   1.571   5.872 -0.1322  0.5692 -0.2777
 6032TIP3   OH242290   2.310   1.016   7.159 -0.1065 -0.2595 -0.2562
 6032TIP3    H142291   2.333   1.040   7.248 -0.9145 -0.7745  0.1004
 6032TIP3    H242292   2.347   0.928   7.147 -1.1925 -0.7800  0.0667
 6033TIP3   OH242293   1.361   6.105   7.267  0.0475 -0.2251  0.4742
 6033TIP3    H142294   1.366   6.200   7.270 -1.2629 -0.0677 -1.1003
 6033TIP3    H242295   1.268   6.086   7.257  0.2387 -1.7059  1.1903
 6034TIP3   OH242296   4.832   5.631   7.223  0.1538  0.2800 -0.3692
 6034TIP3    H142297   4.896   5.685   7.269  1.0697  0.0732 -1.3627
 6034TIP3    H242298   4.753   5.685   7.220 -0.2875 -0.0861  2.2854
 6035TIP3   OH242299   0.432   3.336   6.582 -0.0090 -0.5597 -0.2695
 6035TIP3    H142300   0.416   3.291   6.665  0.0172 -1.3982 -0.7076
 6035TIP3    H242301   0.419   3.269   6.515  1.3224 -0.2617 -0.8720
 6036TIP3   OH242302   0.734   6.370   8.250 -0.1254 -0.2912 -0.4877
 6036TIP3    H142303   0.715   6.345   8.159 -0.9654 -0.9784 -0.1360
 6036TIP3    H242304   0.796   6.442   8.242  0.0536 -0.5455 -1.6050
 6037TIP3   OH242305   6.664   2.011   6.654 -0.0579  0.1017 -0.3326
 6037TIP3    H142306   6.656   1.923   6.618  1.2918 -0.2801  0.2044
 6037TIP3    H242307   6.706   2.062   6.584 -0.8841  0.3369 -0.6614
 6038TIP3   OH242308   2.794   4.936   5.509 -0.5269  0.2685  0.3469
 6038TIP3    H142309   2.783   4.846   5.477 -0.4246  0.2640  0.3235
 6038TIP3    H242310   2.705   4.970   5.516 -0.5265  1.3707 -3.0114
 6039TIP3   OH242311   4.967   0.524   8.082  0.0875  0.0805  0.2137
 6039TIP3    H142312   4.937   0.474   8.157 -1.3895  2.0805  1.0313
 6039TIP3    H242313   4.896   0.586   8.064  0.3044 -0.4319 -2.9636
 6040TIP3   OH242314   6.150   2.255   6.363 -0.7002 -0.0612 -0.6685
 6040TIP3    H142315   6.055   2.269   6.359 -0.5807  1.1026  0.2726
 6040TIP3    H242316   6.187   2.340   6.384  0.5457 -0.5761 -0.6636
 6041TIP3   OH242317   3.524   3.818   7.983 -0.4572  0.0358 -0.0900
 6041TIP3    H142318   3.440   3.826   7.938 -0.8278  1.5929  0.8037
 6041TIP3    H242319   3.504   3.772   8.064 -0.5353  0.7312  0.2941
 6042TIP3   OH242320   3.028   4.836   7.437 -0.0009  0.1170 -0.6102
 6042TIP3    H142321   3.031   4.746   7.405 -1.6697  0.3546 -1.5387
 6042TIP3    H242322   2.945   4.870   7.405 -0.6604  1.1714  1.9511
 6043TIP3   OH242323   4.995   6.006   8.218  0.2397  0.1011 -0.4441
 6043TIP3    H142324   4.931   6.049   8.162  0.5430  0.1256 -0.7682
 6043TIP3    H242325   5.080   6.041   8.191  0.5308 -0.9482 -0.9577
 6044TIP3   OH242326   1.786   2.797   5.765  0.0587 -0.4636 -0.5078
 6044TIP3    H142327   1.868   2.817   5.809 -0.1493 -0.1448 -0.2558
 6044TIP3    H242328   1.811   2.742   5.691  0.3453 -1.5981  0.3967
 6045TIP3   OH242329   0.392   6.678   6.143  0.0843 -0.4628 -0.3155
 6045TIP3    H142330   0.417   6.747   6.081 -0.5341 -0.0537 -0.1100
 6045TIP3    H242331   0.387   6.599   6.089  2.8166 -0.8009 -0.2134
 6046TIP3   OH242332   2.765   5.039   7.712  0.2759 -0.5963 -0.6524
 6046TIP3    H142333   2.789   4.947   7.717 -1.0079 -0.8920  0.8350
 6046TIP3    H242334   2.673   5.042   7.738  0.2224  1.0759 -0.9010
 6047TIP3   OH242335   1.596   1.641   7.255 -0.1025 -0.2428  0.0674
 6047TIP3    H142336   1.570   1.621   7.165  0.2639  1.2864 -0.4108
 6047TIP3    H242337   1.690   1.623   7.256  0.2702  1.5230 -0.4248
 6048TIP3   OH242338   6.610   6.147   6.285  0.4189 -0.3283  0.0755
 6048TIP3    H142339   6.608   6.156   6.380  0.6578 -1.7964  0.2452
 6048TIP3    H242340   6.676   6.079   6.269 -1.0213 -1.5258 -1.0081
 6049TIP3   OH242341   0.645   1.442   7.178 -0.0556  0.5934 -0.7025
 6049TIP3    H142342   0.637   1.536   7.167  0.5334  0.7488  0.0712
 6049TIP3    H242343   0.720   1.417   7.124  0.3826  0.7238 -0.1575
 6050TIP3   OH242344   2.956   4.530   8.874 -0.4896 -0.2408  0.2931
 6050TIP3    H142345   2.866   4.538   8.907 -0.5135  0.6038  0.0371
 6050TIP3    H242346   2.947   4.481   8.792 -0.7605  0.1266  0.0995
 6051TIP3   OH242347   4.081   4.986   9.319 -0.1910 -0.0005  0.4788
 6051TIP3    H142348   4.036   4.901   9.315 -0.9440  0.4088 -0.1806
 6051TIP3    H242349   4.016   5.045   9.358  0.3296  0.2763  0.9366
 6052TIP3   OH242350   5.305   1.317   5.986 -0.6831  0.3037 -0.0600
 6052TIP3    H142351   5.238   1.382   5.966  0.6025  1.3837 -1.0722
 6052TIP3    H242352   5.337   1.341   6.072 -0.5868  0.6946 -0.2025
 6053TIP3   OH242353   0.878   2.189   6.505  0.6125  0.1031 -0.1892
 6053TIP3    H142354   0.856   2.170   6.596 -1.2816 -0.3773 -0.6978
 6053TIP3    H242355   0.904   2.105   6.468  0.6659  0.1513 -0.2622
 6054TIP3   OH242356   5.189   3.030   6.899 -0.6496  0.4648 -0.1685
 6054TIP3    H142357   5.142   3.059   6.977  0.1656  2.2870 -0.3020
 6054TIP3    H242358   5.206   2.937   6.915 -0.5614  0.7672  1.7967
 6055TIP3   OH242359   0.587   0.201   7.858 -0.1959  0.0886  0.3128
 6055TIP3    H142360   0.532   0.278   7.844 -1.6906 -0.7805  1.1490
 6055TIP3    H242361   0.622   0.212   7.946  0.9216  0.5789 -0.1714
 6056TIP3   OH242362   4.740   0.869   5.678 -0.1625 -0.5196  0.3487
 6056TIP3    H142363   4.720   0.875   5.772 -1.6685  0.5302 -0.0035
 6056TIP3    H242364   4.734   0.959   5.646 -0.9492 -1.0148 -0.9837
 6057TIP3   OH242365   4.545   0.282   5.983 -0.5484  0.0957 -0.5871
 6057TIP3    H142366   4.547   0.290   6.078 -0.1215 -1.4374 -0.4519
 6057TIP3    H242367   4.576   0.367   5.952 -0.1720  0.4308  0.6444
 6058TIP3   OH242368   4.423   1.449   6.080 -0.7149  0.1940  0.3771
 6058TIP3    H142369   4.395   1.364   6.115 -0.1427 -1.9043 -3.6594
 6058TIP3    H242370   4.516   1.455   6.103 -0.8716 -0.0279  1.0906
 6059TIP3   OH242371   6.691   2.514   7.669  0.0963 -0.2231  0.4052
 6059TIP3    H142372   6.689   2.441   7.607  1.5249  0.4912 -0.5611
 6059TIP3    H242373   6.729   2.477   7.749  1.2138 -0.4667 -0.2199
 6060TIP3   OH242374   1.389   6.291   9.347  0.1741 -0.3544  0.0011
 6060TIP3    H142375   1.348   6.336   9.273  0.8439  0.8758  0.3649
 6060TIP3    H242376   1.437   6.218   9.307 -0.1279 -0.1802 -0.6927
 6061TIP3   OH242377   2.882   1.105   5.898 -0.3404 -0.7160 -0.2369
 6061TIP3    H142378   2.940   1.072   5.967 -0.6255 -0.8798 -0.0741
 6061TIP3    H242379   2.850   1.026   5.854 -0.2403 -0.6148 -0.4886
 6062TIP3   OH242380   0.799   6.694   8.970  0.0894  0.4050 -0.0733
 6062TIP3    H142381   0.753   6.777   8.978  0.9442  0.8647  0.2372
 6062TIP3    H242382   0.832   6.694   8.880 -0.8196 -0.0981 -0.4193
 6063TIP3   OH242383   5.368   6.637   6.439 -0.2960  0.1863 -0.1351
 6063TIP3    H142384   5.338   6.548   6.422  3.2905 -0.9731 -1.2775
 6063TIP3    H242385   5.357   6.682   6.355 -1.8938  0.8256  0.3808
 6064TIP3   OH242386   3.787   1.924   6.388  0.2872  0.5853 -0.3147
 6064TIP3    H142387   3.813   1.853   6.329 -0.5987  0.8791 -1.0853
 6064TIP3    H242388   3.707   1.892   6.429 -0.7350  1.5325 -1.4791
 6065TIP3   OH242389   2.151   5.685   6.589 -0.2512  0.0943 -0.0055
 6065TIP3    H142390   2.091   5.614   6.564 -0.0634 -1.2831  2.9837
 6065TIP3    H242391   2.101   5.765   6.575 -2.3001 -0.9233  1.0497
 6066TIP3   OH242392   0.635   4.051   7.525  0.3792 -0.3336 -0.0855
 6066TIP3    H142393   0.566   4.108   7.559  0.6465 -0.1143  0.0972
 6066TIP3    H242394   0.714   4.080   7.569  0.5493 -0.7432 -0.1142
 6067TIP3   OH242395   0.752   1.007   6.559  0.6427  0.2225 -0.4770
 6067TIP3    H142396   0.708   1.092   6.551 -1.9802 -0.5664  2.8402
 6067TIP3    H242397   0.680   0.944   6.565  2.3675 -1.7627  0.7854
 6068TIP3   OH242398   4.074   2.459   6.776 -0.1310  0.1679  0.0726
 6068TIP3    H142399   4.157   2.503   6.794 -0.0224  0.1191 -0.2913
 6068TIP3    H242400   4.096   2.393   6.709 -0.2015 -0.7176  0.8984
 6069TIP3   OH242401   5.152   6.730   8.397 -0.3916  0.2082  0.1091
 6069TIP3    H142402   5.233   6.781   8.402  0.9041 -1.6860 -0.4354
 6069TIP3    H242403   5.156   6.673   8.474 -0.3335 -1.1036 -0.8491
 6070TIP3   OH242404   1.137   4.322   7.274 -0.4010  0.1597 -0.2627
 6070TIP3    H142405   1.175   4.388   7.333  0.8938  0.2733 -1.1818
 6070TIP3    H242406   1.055   4.297   7.316 -0.0907  1.1121  0.9754
 6071TIP3   OH242407   0.457   1.104   6.738  0.7419  0.0925  0.3949
 6071TIP3    H142408   0.401   1.177   6.764  0.2227 -0.4113  0.7295
 6071TIP3    H242409   0.395   1.034   6.717  1.2120 -0.1116 -0.3705
 6072TIP3   OH242410   1.211   0.140   7.243 -0.9630  0.3323 -0.3475
 6072TIP3    H142411   1.243   0.217   7.196 -0.0492  1.1196  1.4730
 6072TIP3    H242412   1.258   0.141   7.326 -1.0096 -2.1530 -0.2139
 6073TIP3   OH242413   6.608   5.048   6.310 -0.2952 -0.4807  0.1818
 6073TIP3    H142414   6.672   5.078   6.244 -0.2371  1.5365  1.0861
 6073TIP3    H242415   6.533   5.020   6.258  0.2925 -0.3191 -0.8059
 6074TIP3   OH242416   6.506   6.740   6.478 -0.6824  0.0443  0.2189
 6074TIP3    H142417   6.416   6.722   6.453 -0.3659 -0.3916 -0.6384
 6074TIP3    H242418   6.505   6.740   6.574 -2.5046  4.5096  0.4623
 6075TIP3   OH242419   0.540   5.538   7.248  0.1516 -0.2386  0.1154
 6075TIP3    H142420   0.552   5.483   7.325  0.0538 -0.3265  0.0674
 6075TIP3    H242421   0.463   5.502   7.204  0.1013 -0.0770  0.0726
 6076TIP3   OH242422   3.877   3.324   8.775  0.0188 -0.0866  0.0236
 6076TIP3    H142423   3.965   3.343   8.809  0.5579 -0.4857 -1.1090
 6076TIP3    H242424   3.836   3.272   8.843  0.7576 -0.1169  0.4582
 6077TIP3   OH242425   5.324   4.306   5.876  0.3034  0.0075 -0.2746
 6077TIP3    H142426   5.307   4.320   5.969  1.0534  0.7172 -0.2336
 6077TIP3    H242427   5.374   4.224   5.872  0.6394  0.1982 -0.0118
 6078TIP3   OH242428   1.879   0.211   6.987  0.6313 -0.2826 -0.4846
 6078TIP3    H142429   1.892   0.306   6.981  0.7424 -0.2660  0.0394
 6078TIP3    H242430   1.964   0.174   6.962  0.6397 -0.2434 -0.5155
 6079TIP3   OH242431   5.346   0.065   7.264  0.1728 -0.2471  0.3145
 6079TIP3    H142432   5.256   0.072   7.296  0.1115 -0.3153  0.1596
 6079TIP3    H242433   5.338   0.016   7.181  0.0522  1.9166 -1.0241
 6080TIP3   OH242434   6.321   3.661   5.353 -0.0540  0.5529 -0.0261
 6080TIP3    H142435   6.237   3.677   5.396 -0.2820 -0.0609 -0.2323
 6080TIP3    H242436   6.297   3.641   5.262  0.4899  3.1829 -0.8278
 6081TIP3   OH242437   2.116   1.240   7.708  0.3336 -0.0307 -0.3787
 6081TIP3    H142438   2.185   1.187   7.747 -0.6621 -0.2922  1.0878
 6081TIP3    H242439   2.039   1.183   7.707 -0.1334  0.5839 -1.0469
 6082TIP3   OH242440   3.838   0.845   7.024 -0.0700 -0.0311  0.4633
 6082TIP3    H142441   3.825   0.886   6.939 -0.0439 -1.1650 -0.1044
 6082TIP3    H242442   3.803   0.757   7.014  0.9041 -0.5292  1.3009
 6083TIP3   OH242443   5.957   6.526   8.681  0.0193 -0.4520 -0.1735
 6083TIP3    H142444   5.951   6.568   8.766 -1.5561  0.0233 -0.4788
 6083TIP3    H242445   5.949   6.597   8.618  3.0178 -0.5472 -0.8059
 6084TIP3   OH242446   2.024   5.656   7.278 -0.2513  0.0867 -0.0190
 6084TIP3    H142447   2.050   5.565   7.287 -1.8290 -0.3769  0.2424
 6084TIP3    H242448   2.038   5.694   7.364 -2.6058 -0.7942  0.8295
 6085TIP3   OH242449   4.431   3.591   5.958 -0.2750 -0.6711  0.0745
 6085TIP3    H142450   4.447   3.501   5.930 -1.0767 -1.3236  1.5510
 6085TIP3    H242451   4.518   3.632   5.959  0.1139 -1.4499 -0.5114
 6086TIP3   OH242452   4.318   4.763   7.903  0.3527  0.2192 -0.1496
 6086TIP3    H142453   4.256   4.773   7.831  0.8654  0.7842 -0.5219
 6086TIP3    H242454   4.374   4.690   7.876  1.6741  1.5421 -1.1910
 6087TIP3   OH242455   2.110   2.676   8.283 -0.2270  0.4375 -0.8548
 6087TIP3    H142456   2.084   2.758   8.242  0.8734  0.8155 -0.8361
 6087TIP3    H242457   2.031   2.644   8.326 -0.6082  1.6135 -0.6475
 6088TIP3   OH242458   5.910   3.669   7.682 -0.1312 -0.0852  0.6119
 6088TIP3    H142459   5.957   3.628   7.609  0.3408  0.9156  0.3342
 6088TIP3    H242460   5.831   3.706   7.641 -0.0174  0.2121  0.6564
 6089TIP3   OH242461   3.482   4.588   8.672 -0.0787  0.3830  0.4940
 6089TIP3    H142462   3.401   4.588   8.724 -0.9229 -0.2808 -0.7575
 6089TIP3    H242463   3.552   4.582   8.737 -1.0343  0.6932  1.6002
 6090TIP3   OH242464   2.454   1.168   8.521 -0.6774  0.2309  0.1423
 6090TIP3    H142465   2.549   1.168   8.508 -0.7001  0.9396 -0.0590
 6090TIP3    H242466   2.419   1.198   8.438 -1.1960 -1.7896 -0.4352
 6091TIP3   OH242467   3.371   4.433   7.289 -0.3466 -0.2268 -0.2129
 6091TIP3    H142468   3.329   4.475   7.213  0.6546  0.1592 -0.5755
 6091TIP3    H242469   3.434   4.372   7.250  1.3383  1.1310  0.2484
 6092TIP3   OH242470   2.029   0.615   7.681  0.5067  0.4148  0.2678
 6092TIP3    H142471   2.042   0.605   7.586 -2.7731  0.4564 -0.3154
 6092TIP3    H242472   2.009   0.708   7.693 -1.0374  0.0583  0.6512
 6093TIP3   OH242473   1.830   5.259   8.655  0.0658 -0.0341  0.7768
 6093TIP3    H142474   1.781   5.176   8.657 -0.0510 -0.0196 -0.6412
 6093TIP3    H242475   1.764   5.325   8.676  0.5708 -0.3998  4.0895
 6094TIP3   OH242476   4.130   1.788   6.833  0.7607 -0.4945 -0.2809
 6094TIP3    H142477   4.049   1.833   6.858  1.9280  0.3269  2.3460
 6094TIP3    H242478   4.190   1.858   6.809  0.6798 -1.1188 -2.5215
 6095TIP3   OH242479   1.807   6.310   7.321  0.0267  0.0111  0.0174
 6095TIP3    H142480   1.755   6.388   7.336 -0.0536 -0.1346  0.5258
 6095TIP3    H242481   1.824   6.309   7.227  0.7493  1.0984  0.1171
 6096TIP3   OH242482   0.211   6.341   6.217 -0.4510  0.2895  0.1446
 6096TIP3    H142483   0.135   6.287   6.196  0.6851 -1.8111  1.1569
 6096TIP3    H242484   0.236   6.381   6.133 -2.4184  0.7637 -0.2623
 6097TIP3   OH242485   2.106   4.187   5.673  0.4593  0.0875 -0.0537
 6097TIP3    H142486   2.189   4.222   5.703  0.3771 -0.1115  0.4188
 6097TIP3    H242487   2.127   4.100   5.639  0.8108  0.8895 -2.0425
 6098TIP3   OH242488   4.476   0.521   6.910 -0.1185  0.0113 -0.0283
 6098TIP3    H142489   4.416   0.484   6.974  1.9224 -1.8312  0.9719
 6098TIP3    H242490   4.528   0.585   6.960  0.9301 -0.8316 -0.0031
 6099TIP3   OH242491   5.513   3.437   6.215  0.9104  0.1278 -0.0306
 6099TIP3    H142492   5.487   3.348   6.236  2.4739 -0.1089  1.0865
 6099TIP3    H242493   5.519   3.481   6.300 -0.4973  1.5256 -0.5976
 6100TIP3   OH242494   2.982   1.783   7.695  0.3143  0.5259 -0.5317
 6100TIP3    H142495   2.992   1.719   7.765  2.0475  0.9177 -0.3713
 6100TIP3    H242496   2.892   1.813   7.703 -0.2025 -1.0918  0.0628
 6101TIP3   OH242497   4.584   5.260   8.378 -0.5460  0.4134  0.3385
 6101TIP3    H142498   4.654   5.252   8.442  0.3722  1.8195 -0.4209
 6101TIP3    H242499   4.530   5.182   8.391  0.7838 -0.3805  1.3823
 6102TIP3   OH242500   4.562   1.057   8.278 -0.3684  0.0421 -0.5634
 6102TIP3    H142501   4.644   1.028   8.317 -0.4112  2.1881  1.3143
 6102TIP3    H242502   4.588   1.107   8.201  0.0881  0.4163 -0.1739
 6103TIP3   OH242503   6.564   4.779   8.648  0.2486  0.6592 -0.0777
 6103TIP3    H142504   6.590   4.723   8.721  1.1925  0.4781 -0.5310
 6103TIP3    H242505   6.515   4.851   8.688  1.2016  0.8406  0.7998
 6104TIP3   OH242506   5.845   5.069   6.612 -0.1676  0.1196  0.5042
 6104TIP3    H142507   5.912   5.136   6.624  1.7525 -0.7697 -3.4010
 6104TIP3    H242508   5.886   4.988   6.642 -1.6404  0.2472  3.1024
 6105TIP3   OH242509   5.824   6.283   6.584  0.0116  0.4072 -0.4497
 6105TIP3    H142510   5.731   6.275   6.604  0.3135  0.8504  1.3497
 6105TIP3    H242511   5.827   6.330   6.501 -1.3826  2.5433  0.6230
 6106TIP3   OH242512   6.187   3.902   8.327  0.6287 -0.0518 -0.3944
 6106TIP3    H142513   6.134   3.910   8.247 -0.0124  0.6111  0.0873
 6106TIP3    H242514   6.275   3.881   8.295  0.7853  1.8774 -1.3834
 6107TIP3   OH242515   3.454   6.649   6.095 -0.0039 -0.0532 -0.9138
 6107TIP3    H142516   3.366   6.629   6.126  1.4048 -0.9887  2.9569
 6107TIP3    H242517   3.459   6.745   6.097 -0.0978 -0.0385  1.8066
 6108TIP3   OH242518   3.366   4.932   7.820 -0.7951  0.0556  0.2783
 6108TIP3    H142519   3.428   4.962   7.886 -0.0280 -1.6533  0.3863
 6108TIP3    H242520   3.419   4.916   7.742 -0.9694 -1.8931  0.5141
 6109TIP3   OH242521   2.321   5.046   5.474  0.3034 -0.0016 -0.0275
 6109TIP3    H142522   2.244   5.056   5.531 -0.5036  1.7531 -1.3422
 6109TIP3    H242523   2.347   5.136   5.453  2.4056 -0.5703 -0.0665
 6110TIP3   OH242524   0.669   4.012   7.259  0.3488 -0.1942 -0.1893
 6110TIP3    H142525   0.680   4.031   7.352 -2.4418 -0.3078  0.2577
 6110TIP3    H242526   0.726   3.937   7.243  1.2760  0.1501  1.2917
 6111TIP3   OH242527   4.968   3.553   6.532  0.2916  0.1074  0.2242
 6111TIP3    H142528   5.021   3.543   6.453 -1.3139  0.0907 -0.9094
 6111TIP3    H242529   5.030   3.542   6.604  1.5426 -1.5064 -1.0105
 6112TIP3   OH242530   5.290   4.765   9.387 -0.2138  0.8348  0.3782
 6112TIP3    H142531   5.379   4.742   9.410 -0.2518  1.8625  1.6517
 6112TIP3    H242532   5.241   4.682   9.394  0.2860  0.6182  1.5073
 6113TIP3   OH242533   3.286   2.243   7.099 -0.6267  0.1765  0.2218
 6113TIP3    H142534   3.270   2.149   7.112  1.0309 -0.2465 -0.5938
 6113TIP3    H242535   3.333   2.270   7.178 -1.4406  0.4183  0.6299
 6114TIP3   OH242536   1.614   1.870   5.896 -0.5129 -0.2529  0.5396
 6114TIP3    H142537   1.583   1.913   5.816  1.0709 -0.3364 -0.1548
 6114TIP3    H242538   1.671   1.800   5.865 -1.6382 -1.7458  1.7089
 6115TIP3   OH242539   2.949   0.298   6.601  0.1406 -0.4513  0.0872
 6115TIP3    H142540   2.956   0.274   6.509 -0.6528  0.2062 -0.1524
 6115TIP3    H242541   3.031   0.344   6.620  0.4312 -0.8401 -0.2068
 6116TIP3   OH242542   2.295   1.018   7.447  0.0875 -0.3233 -0.2387
 6116TIP3    H142543   2.265   0.927   7.455 -2.1319  0.4875  1.4264
 6116TIP3    H242544   2.218   1.066   7.417  0.7134  1.3112  0.6749
 6117TIP3   OH242545   2.817   6.001   6.438  0.2346  0.2437 -0.3377
 6117TIP3    H142546   2.730   6.015   6.401 -0.4527 -0.7879  0.8035
 6117TIP3    H242547   2.877   6.017   6.365 -1.0224 -1.0886 -1.7411
 6118TIP3   OH242548   2.233   2.402   6.347 -0.0004  0.0565 -0.4228
 6118TIP3    H142549   2.278   2.485   6.327  1.8876 -0.8428 -0.0879
 6118TIP3    H242550   2.285   2.335   6.303 -1.8615 -0.9382 -1.2154
 6119TIP3   OH242551   6.738   6.532   8.201  0.0783  0.2902  0.4757
 6119TIP3    H142552   6.746   6.628   8.199  1.2566  0.2597  2.1270
 6119TIP3    H242553   6.788   6.505   8.278 -0.3709 -1.6580  0.1345
 6120TIP3   OH242554   3.226   5.985   6.059  0.0245 -0.2572  0.6464
 6120TIP3    H142555   3.321   5.974   6.050 -0.3210 -1.7707 -2.4881
 6120TIP3    H242556   3.209   6.074   6.028  0.3059 -0.5229 -0.3065
 6121TIP3   OH242557   0.193   3.019   6.041 -0.1528  0.3775 -0.5581
 6121TIP3    H142558   0.150   3.103   6.027 -0.6964  0.1277 -0.4075
 6121TIP3    H242559   0.172   2.968   5.963  0.7441  0.6016 -0.9712
 6122TIP3   OH242560   6.015   3.350   8.944  0.1347  0.5359  0.3291
 6122TIP3    H142561   6.004   3.429   8.997  3.1681  1.4930 -0.2746
 6122TIP3    H242562   6.110   3.340   8.935 -0.1268 -2.9870  0.0380
 6123TIP3   OH242563   2.420   2.638   9.284  0.3257  0.2397 -0.2483
 6123TIP3    H142564   2.443   2.611   9.195 -0.5564 -0.1774 -0.3672
 6123TIP3    H242565   2.335   2.597   9.300  0.4389  0.3712  0.7646
 6124TIP3   OH242566   1.235   3.653   6.254  0.2222 -0.2471  0.6100
 6124TIP3    H142567   1.228   3.742   6.288  0.7978 -0.7914  2.2568
 6124TIP3    H242568   1.253   3.664   6.161  2.0889  1.4245  1.1049
 6125TIP3   OH242569   6.212   5.461   6.548 -0.5442  0.0863  0.2828
 6125TIP3    H142570   6.141   5.451   6.485 -1.8834 -0.4138  1.8161
 6125TIP3    H242571   6.284   5.409   6.512 -0.8961  0.6678 -1.3334
 6126TIP3   OH242572   2.419   5.238   8.607 -0.2472 -0.1586  0.4923
 6126TIP3    H142573   2.408   5.255   8.513  0.5424 -0.7285  0.2812
 6126TIP3    H242574   2.376   5.154   8.622  1.2169 -0.9985  0.2334
 6127TIP3   OH242575   0.681   4.494   7.915  0.1477  0.2545 -0.5097
 6127TIP3    H142576   0.613   4.488   7.983 -0.5368  1.9990 -1.0122
 6127TIP3    H242577   0.659   4.424   7.853  0.7644 -1.3556  0.9799
 6128TIP3   OH242578   3.064   0.015   6.206 -0.4593  0.1717  0.2329
 6128TIP3    H142579   3.030   0.030   6.117  0.1432 -0.0568 -0.0445
 6128TIP3    H242580   3.086   0.103   6.238 -0.2762  0.2154 -0.0102
 6129TIP3   OH242581   0.216   3.095   8.180 -0.0936 -0.1349 -0.1426
 6129TIP3    H142582   0.233   3.115   8.088 -0.5397 -0.4382 -0.2936
 6129TIP3    H242583   0.121   3.099   8.189 -0.0542 -0.1261  0.2993
 6130TIP3   OH242584   6.143   4.221   6.370 -0.0008  0.5245  0.1265
 6130TIP3    H142585   6.086   4.145   6.386  0.6617  0.2094  1.0335
 6130TIP3    H242586   6.231   4.184   6.362  0.2377  1.1318 -0.0979
 6131TIP3   OH242587   6.328   5.039   9.463  0.3285 -0.1379 -0.3315
 6131TIP3    H142588   6.298   4.950   9.477  1.1034 -0.3745 -0.1167
 6131TIP3    H242589   6.423   5.034   9.470  0.5552  0.3367 -2.3411
 6132TIP3   OH242590   0.422   0.476   5.990 -0.3675 -0.0440 -0.3482
 6132TIP3    H142591   0.444   0.532   6.064 -2.1726  1.6357 -1.0150
 6132TIP3    H242592   0.499   0.480   5.933  0.1209  0.4777  0.3292
 6133TIP3   OH242593   1.312   5.413   8.179  0.3657 -0.3486 -0.3548
 6133TIP3    H142594   1.262   5.396   8.099  1.1589 -2.3672 -0.5043
 6133TIP3    H242595   1.306   5.331   8.228  0.3936  0.6504  1.4014
 6134TIP3   OH242596   6.607   3.210   7.461 -0.2883  0.6668  0.1027
 6134TIP3    H142597   6.538   3.258   7.415 -1.8713 -1.0920  0.5611
 6134TIP3    H242598   6.568   3.126   7.482  1.8442 -0.1830  0.8720
 6135TIP3   OH242599   4.072   5.529   6.801 -0.1249  0.2105 -0.2239
 6135TIP3    H142600   3.989   5.576   6.793  0.7806  1.8651 -0.4284
 6135TIP3    H242601   4.047   5.437   6.811 -1.9298  0.4984 -1.5805
 6136TIP3   OH242602   3.996   5.894   5.665  0.3073  0.6668 -0.0351
 6136TIP3    H142603   4.046   5.849   5.733 -0.8043 -1.3299 -0.4731
 6136TIP3    H242604   4.060   5.915   5.598  0.6037 -2.0604 -0.7043
 6137TIP3   OH242605   3.192   4.786   8.092 -0.0163 -0.3905 -0.3636
 6137TIP3    H142606   3.205   4.822   8.180  0.8558 -0.3073 -0.5166
 6137TIP3    H242607   3.154   4.859   8.042 -0.2533 -0.3514 -0.1259
 6138TIP3   OH242608   5.375   6.485   8.116  0.0635 -0.4365 -0.0906
 6138TIP3    H142609   5.458   6.472   8.070  1.0180  1.5236  0.9262
 6138TIP3    H242610   5.359   6.579   8.110 -1.5531 -0.6346  0.6357
 6139TIP3   OH242611   4.287   2.054   7.689 -0.1118 -0.1641  0.2845
 6139TIP3    H142612   4.247   2.139   7.707  0.1148  0.0640 -0.2568
 6139TIP3    H242613   4.284   2.007   7.772 -1.3885 -0.1013  0.2860
 6140TIP3   OH242614   4.933   2.165   7.092 -0.1708  0.1635  0.0191
 6140TIP3    H142615   4.953   2.252   7.056 -0.6694  0.3184  0.1083
 6140TIP3    H242616   4.967   2.167   7.181 -2.6536  1.2713  1.0089
 6141TIP3   OH242617   4.146   3.814   8.263 -0.0062  0.4211  0.2924
 6141TIP3    H142618   4.115   3.901   8.237 -0.3097  0.3350  0.3627
 6141TIP3    H242619   4.178   3.774   8.182  0.2790  0.6579  0.2875
 6142TIP3   OH242620   2.273   1.391   6.771  0.2093  0.1263  0.1347
 6142TIP3    H142621   2.228   1.341   6.703  1.3072 -1.0820  0.2420
 6142TIP3    H242622   2.250   1.346   6.853 -1.0987  1.5620  0.6068
 6143TIP3   OH242623   1.201   3.360   8.118  0.0140 -0.2318 -0.7460
 6143TIP3    H142624   1.189   3.285   8.059  2.9037 -1.4899  0.0719
 6143TIP3    H242625   1.139   3.345   8.189 -0.3348 -1.1751 -1.2342
 6144TIP3   OH242626   1.479   5.797   7.319  0.0552 -0.1652 -0.0300
 6144TIP3    H142627   1.513   5.830   7.236  0.2054  0.8993  0.4392
 6144TIP3    H242628   1.385   5.791   7.306  0.1980 -1.3151 -0.7106
 6145TIP3   OH242629   1.488   2.667   7.481  0.5279 -0.0761  0.2985
 6145TIP3    H142630   1.567   2.702   7.439  0.3588  1.4349  1.1676
 6145TIP3    H242631   1.480   2.578   7.447  0.3062  1.0780 -3.0036
 6146TIP3   OH242632   3.418   5.566   7.084 -0.8211 -0.5341 -0.0288
 6146TIP3    H142633   3.464   5.558   7.168 -1.1493 -1.1841  0.0965
 6146TIP3    H242634   3.482   5.537   7.019 -0.3780  0.4911 -0.0725
 6147TIP3   OH242635   3.983   3.747   8.478  0.1327 -0.2212  0.4052
 6147TIP3    H142636   3.947   3.660   8.460  1.7484 -1.1815  1.5968
 6147TIP3    H242637   4.014   3.778   8.393 -1.4034 -0.3258 -0.2216
 6148TIP3   OH242638   1.158   6.617   8.546 -0.1804  0.2837  0.3744
 6148TIP3    H142639   1.241   6.663   8.534  0.0635 -0.3277 -0.3647
 6148TIP3    H242640   1.111   6.669   8.612 -1.7594  4.2795 -3.3511
 6149TIP3   OH242641   5.839   1.242   6.380 -0.1404  0.2753 -0.1030
 6149TIP3    H142642   5.800   1.205   6.460  0.0183  2.4083  1.0326
 6149TIP3    H242643   5.786   1.319   6.361  1.0138  0.8949 -0.9316
 6150TIP3   OH242644   1.963   1.856   6.702 -0.5918 -0.0348  0.5954
 6150TIP3    H142645   1.939   1.803   6.626 -1.4488  1.8774 -0.5477
 6150TIP3    H242646   2.010   1.795   6.760 -1.0451 -1.8693 -0.8575
 6151TIP3   OH242647   0.096   5.364   6.742  0.1493  0.3759 -0.3665
 6151TIP3    H142648   0.052   5.439   6.781 -0.5905 -0.3072  0.1396
 6151TIP3    H242649   0.028   5.297   6.735  1.2529 -0.9958  1.1941
 6152TIP3   OH242650   2.167   5.781   5.609  0.3709 -0.6698  0.3232
 6152TIP3    H142651   2.248   5.746   5.647  0.5255  0.3788  1.0354
 6152TIP3    H242652   2.163   5.871   5.643 -0.1498 -0.0993 -1.1745
 6153TIP3   OH242653   4.956   4.577   6.346  0.1011 -0.0063  0.3856
 6153TIP3    H142654   4.884   4.627   6.385  0.2170 -0.5832  1.3842
 6153TIP3    H242655   4.966   4.614   6.258 -0.9100  0.5902  0.5015
 6154TIP3   OH242656   5.572   1.941   6.947 -0.0067 -0.6533 -0.2187
 6154TIP3    H142657   5.657   1.921   6.985 -0.0258 -0.3020  0.0071
 6154TIP3    H242658   5.510   1.929   7.018 -0.0332  0.0825 -0.1151
 6155TIP3   OH242659   3.177   3.383   7.191 -0.1741  0.4281 -0.2076
 6155TIP3    H142660   3.109   3.360   7.254 -1.3359 -0.7368 -1.8122
 6155TIP3    H242661   3.142   3.459   7.144 -0.3118 -0.0642 -0.9211
 6156TIP3   OH242662   1.643   3.614   7.625  0.5030 -0.3969  0.6855
 6156TIP3    H142663   1.597   3.631   7.707 -0.8685 -0.9490  0.0652
 6156TIP3    H242664   1.575   3.583   7.565  1.7634 -1.7409 -0.1355
 6157TIP3   OH242665   0.238   3.349   6.282 -0.5212  0.3366  0.3443
 6157TIP3    H142666   0.180   3.353   6.359 -1.6151 -0.5680 -0.4006
 6157TIP3    H242667   0.303   3.281   6.305 -0.6011  0.3509  0.6225
 6158TIP3   OH242668   2.655   5.438   5.876  0.1786  0.0580 -0.2275
 6158TIP3    H142669   2.625   5.385   5.950  0.8506  1.6563  1.2453
 6158TIP3    H242670   2.579   5.443   5.818  0.1196 -2.5729 -0.5245
 6159TIP3   OH242671   6.470   0.855   6.117  0.3883  0.3968 -0.4983
 6159TIP3    H142672   6.521   0.924   6.073  1.0356  1.3640  1.6191
 6159TIP3    H242673   6.505   0.853   6.206  1.2905 -3.5967 -0.7397
 6160TIP3   OH242674   6.580   5.505   6.012  0.1931 -0.6480 -0.3970
 6160TIP3    H142675   6.498   5.464   5.986  0.0661 -0.1830 -0.7447
 6160TIP3    H242676   6.554   5.593   6.042  0.4074 -0.9441  0.7121
 6161TIP3   OH242677   1.460   2.823   6.459 -0.7507 -0.0325  0.3621
 6161TIP3    H142678   1.468   2.754   6.393  0.7452 -2.0175  2.4782
 6161TIP3    H242679   1.534   2.881   6.441 -0.4324 -0.4832  0.1995
 6162TIP3   OH242680   2.802   2.137   6.296 -0.8136 -0.1810  0.1689
 6162TIP3    H142681   2.802   2.044   6.319 -3.0357 -0.0831  0.8141
 6162TIP3    H242682   2.826   2.182   6.377  0.9135 -0.1785 -0.3110
 6163TIP3   OH242683   6.605   2.662   6.314  0.3824  0.1472 -0.4235
 6163TIP3    H142684   6.511   2.648   6.328 -0.1511  3.1337 -0.2363
 6163TIP3    H242685   6.647   2.618   6.388 -0.8087 -1.4953 -0.6743
 6164TIP3   OH242686   3.961   4.721   6.595 -0.3294 -0.1240  0.5923
 6164TIP3    H142687   3.998   4.728   6.683  0.6021 -2.0353  0.4064
 6164TIP3    H242688   3.879   4.674   6.607 -1.2957  1.5052  0.6495
 6165TIP3   OH242689   4.264   3.183   5.917 -0.0440 -0.1424 -0.1829
 6165TIP3    H142690   4.170   3.198   5.913  0.3378  4.0784  1.3692
 6165TIP3    H242691   4.297   3.209   5.831 -0.1513 -0.4240 -0.3111
 6166TIP3   OH242692   2.778   3.998   8.421 -0.1213 -0.2286  0.2435
 6166TIP3    H142693   2.715   4.051   8.372  0.3606  0.0976 -0.0311
 6166TIP3    H242694   2.758   4.015   8.513 -1.1881 -1.0228  0.1865
 6167TIP3   OH242695   0.833   5.303   7.055 -0.1974  0.6565 -0.1579
 6167TIP3    H142696   0.813   5.390   7.022  0.0091 -0.0305 -2.2568
 6167TIP3    H242697   0.918   5.312   7.098  0.1179  1.3918 -0.9044
 6168TIP3   OH242698   2.781   2.577   7.028  0.9009  0.1930 -0.2823
 6168TIP3    H142699   2.717   2.645   7.004  1.3491  0.9796  0.6618
 6168TIP3    H242700   2.732   2.495   7.022  0.0296  0.7004 -0.3557
 6169TIP3   OH242701   3.077   4.186  15.521  0.0285  0.1436  0.3542
 6169TIP3    H142702   3.047   4.165  15.610  1.6890  0.6827  1.0873
 6169TIP3    H242703   3.137   4.115  15.498  1.1582  1.0170  0.5042
 6170TIP3   OH242704   5.825   2.839   8.081 -0.1395  0.0499  0.4902
 6170TIP3    H142705   5.865   2.764   8.036 -0.7610  0.2688 -0.4597
 6170TIP3    H242706   5.899   2.894   8.106  0.2272 -0.1105 -0.2112
 6171TIP3   OH242707   2.081   1.675   8.865  0.3177  0.4088 -0.8234
 6171TIP3    H142708   2.158   1.676   8.922  0.1260  0.7660 -0.5670
 6171TIP3    H242709   2.104   1.615   8.795  1.1639  1.1581 -1.2093
 6172TIP3   OH242710   3.578   0.743   5.769  0.2767 -0.7085  0.5435
 6172TIP3    H142711   3.648   0.690   5.731  0.8335 -0.2136  0.8643
 6172TIP3    H242712   3.530   0.683   5.825  0.0367 -1.2105 -0.1779
 6173TIP3   OH242713   4.209   3.028   7.911 -0.3545  0.3745  0.3143
 6173TIP3    H142714   4.244   3.004   7.825  1.8748  1.8198  0.7219
 6173TIP3    H242715   4.116   3.042   7.897 -0.4060 -1.3223 -1.4168
 6174TIP3   OH242716   6.562   4.602   8.399  0.3770 -0.3458 -0.5299
 6174TIP3    H142717   6.490   4.602   8.336 -0.2266 -2.5618  0.0594
 6174TIP3    H242718   6.560   4.690   8.438 -2.1730 -0.3857 -0.3956
 6175TIP3   OH242719   3.488   4.088   7.825 -0.1859 -0.3961  0.4469
 6175TIP3    H142720   3.529   4.165   7.787 -1.2550  0.2127  0.4740
 6175TIP3    H242721   3.561   4.036   7.859  0.5874  0.3442 -0.0321
 6176TIP3   OH242722   0.015   4.927   8.426  0.0410  0.2210 -0.4398
 6176TIP3    H142723  -0.043   4.880   8.486 -0.7462  0.9809 -0.5853
 6176TIP3    H242724   0.099   4.928   8.471  0.1203 -1.3835 -0.4672
 6177TIP3   OH242725   2.876   0.503   5.831  0.2779 -0.2941  0.4548
 6177TIP3    H142726   2.873   0.509   5.927  1.2916  0.7036  0.4350
 6177TIP3    H242727   2.967   0.482   5.811  0.2329  0.2276 -0.3217
 6178TIP3   OH242728   2.877   2.251   9.019 -0.3631  0.3760  0.0307
 6178TIP3    H142729   2.798   2.264   8.967 -0.2835 -1.8437 -0.7417
 6178TIP3    H242730   2.941   2.311   8.980 -1.4855  1.8708  0.3754
 6179TIP3   OH242731   5.753   4.156   7.258 -0.3723  0.4749  0.0467
 6179TIP3    H142732   5.832   4.209   7.243  1.5536 -2.4915 -1.3459
 6179TIP3    H242733   5.740   4.160   7.353 -0.3643  3.3300  0.0124
 6180TIP3   OH242734   6.018   5.616   8.506 -0.0136  0.6636 -0.3025
 6180TIP3    H142735   6.091   5.555   8.511 -0.6227  0.0253  0.9568
 6180TIP3    H242736   5.973   5.593   8.424 -0.7020 -1.1181  0.5436
 6181TIP3   OH242737   4.670   1.143   7.182 -0.3449 -0.3501  0.1595
 6181TIP3    H142738   4.658   1.055   7.145 -0.4110  0.8151 -2.9129
 6181TIP3    H242739   4.584   1.184   7.174  0.3396  0.9045 -1.2759
 6182TIP3   OH242740   3.126   3.378   7.645 -0.7634  0.5129 -0.1556
 6182TIP3    H142741   3.202   3.435   7.654  0.0279 -0.7053  1.3970
 6182TIP3    H242742   3.113   3.341   7.732 -1.3294 -1.5508 -1.0430
 6183TIP3   OH242743   6.291   6.489   6.616  0.0452  0.3681  0.3869
 6183TIP3    H142744   6.258   6.578   6.611  0.0299  0.3032 -1.6551
 6183TIP3    H242745   6.214   6.434   6.597  0.0448 -0.1109  1.6571
 6184TIP3   OH242746   2.948   5.055   7.007  1.4453 -0.4066 -0.3261
 6184TIP3    H142747   3.011   5.113   6.964  1.3251  0.5565  0.7442
 6184TIP3    H242748   2.974   5.055   7.099  0.4694 -0.7786 -0.0390
 6185TIP3   OH242749   4.698   5.318   5.686  0.1324  0.0454 -0.1073
 6185TIP3    H142750   4.736   5.238   5.721  1.2727  1.3361  1.8219
 6185TIP3    H242751   4.610   5.321   5.723  0.5620  0.3117  0.9262
 6186TIP3   OH242752   2.318   4.664   6.541 -0.1906  0.4722 -0.2258
 6186TIP3    H142753   2.295   4.680   6.633 -1.2979 -1.7339 -0.0569
 6186TIP3    H242754   2.235   4.666   6.495 -0.0087 -1.2516 -0.6904
 6187TIP3   OH242755   1.115   5.554   8.290  0.0261 -0.4253 -0.5908
 6187TIP3    H142756   1.154   5.509   8.215 -0.7745 -2.3150  0.0547
 6187TIP3    H242757   1.128   5.494   8.363 -0.7163  0.6067  0.4195
 6188TIP3   OH242758   3.539   3.573   6.065  0.2081 -0.4275  0.2122
 6188TIP3    H142759   3.573   3.544   5.981 -1.2542 -0.7504 -0.2976
 6188TIP3    H242760   3.450   3.603   6.046 -0.4696 -1.3113  1.7707
 6189TIP3   OH242761   3.206   4.987   8.618 -0.1703  0.4339 -0.4150
 6189TIP3    H142762   3.253   5.024   8.544 -1.2307  2.3948 -0.1669
 6189TIP3    H242763   3.168   4.906   8.584  2.0401 -0.3939 -1.0442
 6190TIP3   OH242764   5.408   0.745   6.901 -0.2761  0.0476  0.0965
 6190TIP3    H142765   5.457   0.707   6.828 -1.9856 -0.0807 -1.0488
 6190TIP3    H242766   5.379   0.671   6.953 -0.3588  0.0302  0.0265
 6191TIP3   OH242767   3.084   2.032   8.830 -0.0150 -0.3615  0.2259
 6191TIP3    H142768   3.003   1.998   8.868 -0.5769 -0.3950 -0.9710
 6191TIP3    H242769   3.112   1.965   8.768  0.6242 -0.0808  0.1996
 6192TIP3   OH242770   3.975   2.344   8.871  0.1612 -0.3505  0.5858
 6192TIP3    H142771   3.968   2.337   8.776 -1.9115  0.8802  0.5867
 6192TIP3    H242772   4.009   2.260   8.899  0.7676 -0.7550 -1.2352
 6193TIP3   OH242773   6.382   2.217   5.719 -0.7568 -0.1221 -0.3963
 6193TIP3    H142774   6.310   2.158   5.741  0.2132 -1.3186 -0.3188
 6193TIP3    H242775   6.388   2.277   5.794 -1.8167  0.1502 -0.5212
 6194TIP3   OH242776   6.030   5.814   6.671 -0.4540 -0.2589 -0.4329
 6194TIP3    H142777   6.007   5.902   6.702  0.8524  0.1708 -0.6154
 6194TIP3    H242778   6.003   5.812   6.580 -0.7825 -0.1538 -0.3357
 6195TIP3   OH242779   1.042   5.164   9.352 -0.0288  0.0426 -0.0134
 6195TIP3    H142780   1.136   5.146   9.357  0.2661  1.6922  1.0544
 6195TIP3    H242781   1.010   5.151   9.441 -0.7263  0.0313 -0.2567
 6196TIP3   OH242782   2.930   1.578   7.903  0.7720  0.0208  0.3896
 6196TIP3    H142783   2.934   1.483   7.915 -0.3186 -0.0899 -0.0699
 6196TIP3    H242784   2.918   1.613   7.992  0.4152 -0.3151  0.4752
 6197TIP3   OH242785   6.579   2.242   7.583  0.2891  0.0607  0.7946
 6197TIP3    H142786   6.546   2.260   7.670 -0.0680  1.0120  0.4750
 6197TIP3    H242787   6.520   2.175   7.548 -0.1274  0.3412  0.9508
 6198TIP3   OH242788   4.153   0.094   7.260  0.1089  0.1512 -0.0069
 6198TIP3    H142789   4.126   0.004   7.276 -0.7325  0.0778 -1.7059
 6198TIP3    H242790   4.201   0.118   7.339  0.6835 -1.8980  0.3288
 6199TIP3   OH242791   2.299   5.819   7.751 -0.2185 -0.7140  0.3362
 6199TIP3    H142792   2.289   5.795   7.844  0.3435 -2.1663  0.0525
 6199TIP3    H242793   2.306   5.735   7.706  3.4908 -0.0879 -0.5879
 6200TIP3   OH242794   1.639   6.503   5.962  0.1582  0.4230  0.5580
 6200TIP3    H142795   1.666   6.581   6.012  0.9037 -0.1469  1.0613
 6200TIP3    H242796   1.692   6.507   5.882  1.4928 -0.4738  1.3610
 6201TIP3   OH242797   1.001   6.566   7.957  0.5117  0.9143  0.5288
 6201TIP3    H142798   1.073   6.542   7.898 -0.3965 -2.1319  0.5054
 6201TIP3    H242799   0.948   6.628   7.907  1.0065  0.1526 -0.9933
 6202TIP3   OH242800   2.210   1.022   5.871 -0.1019  0.0295 -0.2577
 6202TIP3    H142801   2.263   0.985   5.941  1.0891  1.9147 -0.0726
 6202TIP3    H242802   2.243   0.981   5.791 -1.6005 -2.2822  0.2118
 6203TIP3   OH242803   3.926   2.023   8.609  0.0901  0.0631 -1.2177
 6203TIP3    H142804   4.013   2.036   8.573  0.3286  0.5449 -0.4903
 6203TIP3    H242805   3.902   1.934   8.583  1.3647 -0.5839 -0.2753
 6204TIP3   OH242806   6.116   3.882   7.348  0.4655  0.1610  0.4487
 6204TIP3    H142807   6.192   3.919   7.393  0.4638  0.0010  0.5849
 6204TIP3    H242808   6.054   3.862   7.419  0.0353  0.8935  0.2834
 6205TIP3   OH242809   0.561   3.446   6.882  0.1795 -0.1694 -0.5523
 6205TIP3    H142810   0.627   3.500   6.838 -1.5342  2.6989  0.1965
 6205TIP3    H242811   0.612   3.390   6.941  2.0258  1.1541 -0.8096
 6206TIP3   OH242812   4.309   4.188   7.998  0.0792  0.4695  0.4595
 6206TIP3    H142813   4.242   4.136   7.953  0.4248  0.3078  0.1293
 6206TIP3    H242814   4.320   4.145   8.082 -2.3424  2.1631  1.7716
 6207TIP3   OH242815   2.392   6.404   6.265 -0.1710 -0.4336  0.4676
 6207TIP3    H142816   2.487   6.417   6.270 -0.3826  1.0492  1.1448
 6207TIP3    H242817   2.368   6.432   6.176 -0.0400 -0.4006  0.4429
 6208TIP3   OH242818   6.189   1.410   7.206 -0.4731  0.2582  0.4714
 6208TIP3    H142819   6.218   1.320   7.192  0.6523  0.8796 -1.6496
 6208TIP3    H242820   6.265   1.463   7.185 -1.7860  1.7876 -0.6795
 6209TIP3   OH242821   5.784   3.443   7.389  0.0883 -0.6677 -0.1016
 6209TIP3    H142822   5.772   3.423   7.296  0.0993  0.6440 -0.4171
 6209TIP3    H242823   5.744   3.370   7.436  1.3029 -2.0393 -1.1316
 6210TIP3   OH242824   2.540   1.084   7.559 -0.1583 -0.0138  0.0140
 6210TIP3    H142825   2.545   1.163   7.505  0.6742 -0.2840 -0.3204
 6210TIP3    H242826   2.459   1.042   7.532 -0.4894  0.6052  0.0267
 6211TIP3   OH242827   0.276   3.706   6.639  0.2470 -0.1174  0.1951
 6211TIP3    H142828   0.205   3.715   6.575 -0.2445 -1.4758  0.5171
 6211TIP3    H242829   0.333   3.639   6.602 -0.5868 -1.6873  1.6061
 6212TIP3   OH242830   5.023   3.275   5.882  0.1004  0.4620 -0.6969
 6212TIP3    H142831   5.116   3.270   5.861  0.2190  0.3686 -0.1713
 6212TIP3    H242832   4.980   3.223   5.814  0.2823  1.7422 -1.8400
 6213TIP3   OH242833   0.126   0.853   5.765  0.3959 -0.3644  0.6650
 6213TIP3    H142834   0.097   0.818   5.850  1.4136 -2.1512  0.3186
 6213TIP3    H242835   0.057   0.828   5.704 -0.9421  1.9622  1.0881
 6214TIP3   OH242836   4.276   0.836   8.450 -0.2459 -1.0365  0.0064
 6214TIP3    H142837   4.296   0.850   8.357 -0.2627 -1.9221 -0.1378
 6214TIP3    H242838   4.191   0.793   8.450 -0.7381 -0.1087  0.4933
 6215TIP3   OH242839   3.010   6.446   5.920  0.5435 -0.3584  0.2676
 6215TIP3    H142840   2.992   6.540   5.910  2.5035 -0.0781 -1.2025
 6215TIP3    H242841   2.931   6.403   5.889  0.0121  0.8151 -0.0695
 6216TIP3   OH242842   2.353   2.146   6.626  0.2279  0.4814  0.3000
 6216TIP3    H142843   2.427   2.111   6.577  0.9415  3.4813 -1.0155
 6216TIP3    H242844   2.276   2.113   6.580  0.7971 -0.4244 -0.0277
 6217TIP3   OH242845   5.270   6.580   9.254 -0.6266  0.4512  0.0871
 6217TIP3    H142846   5.183   6.542   9.245 -0.0067 -1.0936  0.3135
 6217TIP3    H242847   5.281   6.633   9.175 -0.3072 -2.4784 -2.0107
 6218TIP3   OH242848   5.496   5.159   8.006  0.1927 -0.2997  0.5335
 6218TIP3    H142849   5.546   5.096   8.059 -1.2087 -1.0251  1.0466
 6218TIP3    H242850   5.561   5.199   7.949  1.1778 -2.0523  0.3496
 6219TIP3   OH242851   0.439   3.087   7.899  1.7180 -0.1503  0.6165
 6219TIP3    H142852   0.482   3.081   7.984  2.9809  2.3507  0.2298
 6219TIP3    H242853   0.458   3.175   7.868  1.3209 -0.9810 -2.2969
 6220TIP3   OH242854   0.482   4.308   6.468 -0.4354 -0.2608 -0.1233
 6220TIP3    H142855   0.548   4.266   6.524 -1.0213  0.0648  0.8307
 6220TIP3    H242856   0.399   4.270   6.497 -0.7094 -0.4168 -1.0904
 6221TIP3   OH242857   6.183   3.075   7.070  0.1437  0.1224  0.1234
 6221TIP3    H142858   6.185   3.056   7.164  0.0728  0.3941  0.1791
 6221TIP3    H242859   6.229   3.158   7.061  0.2399  0.0454 -0.0950
 6222TIP3   OH242860   0.625   3.340   8.710  0.4347  0.1523 -0.1655
 6222TIP3    H142861   0.626   3.384   8.795  1.5824  1.2941 -0.7284
 6222TIP3    H242862   0.624   3.411   8.646  2.0379 -0.6241 -1.1199
 6223TIP3   OH242863   6.558   5.089   7.774 -0.0672 -0.4065  0.3271
 6223TIP3    H142864   6.531   5.136   7.853 -2.4295 -1.3616  0.1710
 6223TIP3    H242865   6.530   5.146   7.702  0.3748 -0.3890  0.1697
 6224TIP3   OH242866   0.429   0.564   7.418  0.5174 -0.1787 -0.2069
 6224TIP3    H142867   0.399   0.509   7.490  1.5813 -1.3074 -0.5813
 6224TIP3    H242868   0.508   0.519   7.385  1.6501  1.7689 -0.2833
 6225TIP3   OH242869   1.373   6.025   6.871 -0.2737  1.0427  0.1171
 6225TIP3    H142870   1.444   6.046   6.931 -0.5982  0.2790  0.7888
 6225TIP3    H242871   1.301   5.997   6.928  0.2295 -2.2753 -0.6584
 6226TIP3   OH242872   4.116   5.378   6.223 -0.2645  0.0785  0.3432
 6226TIP3    H142873   4.204   5.378   6.187 -0.7028 -1.4659 -0.8384
 6226TIP3    H242874   4.127   5.407   6.314  1.5944 -1.0572  0.5319
 6227TIP3   OH242875   3.546   3.209   6.509  0.0805  0.0191 -0.1954
 6227TIP3    H142876   3.563   3.127   6.464 -0.5781 -0.7045  0.8214
 6227TIP3    H242877   3.457   3.199   6.545 -0.0393  1.1951 -0.1125
 6228TIP3   OH242878   2.248   0.063   7.300 -0.7398  0.2496  0.0215
 6228TIP3    H142879   2.178   0.001   7.322 -0.8513  0.2335 -0.3676
 6228TIP3    H242880   2.271   0.042   7.210 -0.0440  0.0783  0.2276
 6229TIP3   OH242881   4.220   3.247   6.518 -0.3438  0.2437  0.2700
 6229TIP3    H142882   4.246   3.214   6.604  0.1502 -1.2337 -0.4005
 6229TIP3    H242883   4.297   3.230   6.462 -1.0579  0.1108 -0.7093
 6230TIP3   OH242884   1.643   3.911   8.591  0.4223  0.1719 -0.3162
 6230TIP3    H142885   1.620   3.994   8.548 -0.3726  0.2805  0.2816
 6230TIP3    H242886   1.568   3.892   8.647  0.5236 -1.0389 -0.5565
 6231TIP3   OH242887   2.775   1.912   7.119  0.4209 -1.3212 -0.4071
 6231TIP3    H142888   2.713   1.852   7.078 -1.2593 -0.2937  0.5409
 6231TIP3    H242889   2.765   1.897   7.213  0.7903 -0.3567 -0.1992
 6232TIP3   OH242890   3.044   2.051   8.000 -0.0850 -0.1365 -0.2146
 6232TIP3    H142891   3.047   2.123   8.064  0.6985  0.2461 -0.6631
 6232TIP3    H242892   2.985   1.987   8.039 -1.3015  1.0158 -0.0878
 6233TIP3   OH242893   6.754   0.218   7.403 -0.3863 -0.3323  0.2657
 6233TIP3    H142894   6.708   0.211   7.319 -0.8461 -0.1752  0.5042
 6233TIP3    H242895   6.697   0.173   7.465  0.9912 -2.4482  0.1124
 6234TIP3   OH242896   5.556   2.087   8.050  0.0150 -0.0661  0.8122
 6234TIP3    H142897   5.473   2.126   8.023 -0.5400 -0.8574  1.3280
 6234TIP3    H242898   5.546   1.994   8.030  0.9415 -0.1062  0.4936
 6235TIP3   OH242899   0.965   3.476   6.094 -0.0305  0.1296  0.3786
 6235TIP3    H142900   0.980   3.406   6.032 -1.1768 -1.0033  1.3250
 6235TIP3    H242901   1.038   3.537   6.080  0.8977 -1.1562 -0.5757
 6236TIP3   OH242902   5.083   5.269   7.463  0.0839  0.3058 -0.3960
 6236TIP3    H142903   5.158   5.233   7.510  0.3725  1.0430 -0.2797
 6236TIP3    H242904   5.053   5.197   7.406  1.0971  0.1247 -0.7127
 6237TIP3   OH242905   3.113   4.999   7.932 -0.3452  0.1589 -0.3373
 6237TIP3    H142906   3.172   5.068   7.964  2.3099 -2.4591  0.9449
 6237TIP3    H242907   3.163   4.953   7.865 -2.8297  0.6147 -2.6482
 6238TIP3   OH242908   2.900   2.415   5.824 -0.4112 -0.1998  0.1883
 6238TIP3    H142909   2.899   2.502   5.783 -0.7344 -0.5309 -0.5253
 6238TIP3    H242910   2.992   2.392   5.830 -0.2241  0.7752  1.6670
 6239TIP3   OH242911   4.682   0.014   6.729  0.1281 -0.3926 -0.4401
 6239TIP3    H142912   4.741  -0.032   6.789  0.2017  0.1369 -0.1035
 6239TIP3    H242913   4.620   0.058   6.787  0.1604  0.0674 -0.7592
 6240TIP3   OH242914   4.413   3.350   9.672  0.1884  0.5610  0.2305
 6240TIP3    H142915   4.446   3.440   9.665  1.3304  0.0803 -1.0583
 6240TIP3    H242916   4.465   3.311   9.742  2.8685 -0.3229 -2.0810
 6241TIP3   OH242917   2.369   1.495   8.233 -0.2642 -0.2623  0.3452
 6241TIP3    H142918   2.304   1.519   8.299  0.6413  0.0081  1.1496
 6241TIP3    H242919   2.435   1.564   8.237 -1.1608  0.8956 -2.2551
 6242TIP3   OH242920   2.562   2.013   6.438 -0.5488 -0.2314 -0.6225
 6242TIP3    H142921   2.646   2.026   6.483  0.0186  1.2537 -2.0089
 6242TIP3    H242922   2.547   1.919   6.443  1.5556 -0.6408 -0.9275
 6243TIP3   OH242923   6.043   4.658   6.348 -0.4566  0.1713  0.1923
 6243TIP3    H142924   6.100   4.591   6.312  0.2264  0.1847  1.1964
 6243TIP3    H242925   6.024   4.628   6.437 -0.9101  0.8403  0.3313
 6244TIP3   OH242926   5.455   4.692   7.553  0.1633  0.5322 -0.9144
 6244TIP3    H142927   5.432   4.743   7.630  0.1670  1.1730 -1.3309
 6244TIP3    H242928   5.449   4.753   7.480 -0.2315 -0.1639 -1.4817
 6245TIP3   OH242929   4.273   0.259   5.490 -0.0773 -0.0828 -0.2656
 6245TIP3    H142930   4.279   0.263   5.395 -1.0110 -0.3971 -0.3464
 6245TIP3    H242931   4.347   0.311   5.521  1.0092 -1.0509 -1.1516
 6246TIP3   OH242932   3.142   0.400   7.350 -0.0528  0.6308  0.2330
 6246TIP3    H142933   3.190   0.420   7.269  2.0476  0.3076  1.3412
 6246TIP3    H242934   3.123   0.306   7.344  0.1001  0.6069  0.1130
 6247TIP3   OH242935   4.205   0.606   5.910 -0.8641  0.3599 -0.4134
 6247TIP3    H142936   4.209   0.567   5.823  0.0847  0.5990 -0.4968
 6247TIP3    H242937   4.285   0.659   5.916  0.1331 -1.2189  1.3331
 6248TIP3   OH242938   1.052   2.404   6.445  0.2393 -0.0760  0.5392
 6248TIP3    H142939   1.043   2.473   6.511  0.9103  0.1552  0.4028
 6248TIP3    H242940   0.999   2.332   6.478  1.7071 -0.5085  2.0834
 6249TIP3   OH242941   2.720   0.404   7.207 -0.0410  0.3226 -0.8927
 6249TIP3    H142942   2.756   0.493   7.216 -0.8798  0.6801 -0.9680
 6249TIP3    H242943   2.714   0.372   7.296  0.0253  0.4387 -0.8453
 6250TIP3   OH242944   1.255   4.069   7.666  0.0863 -0.0764  0.2472
 6250TIP3    H142945   1.307   3.992   7.689 -1.2619 -0.5929  1.7349
 6250TIP3    H242946   1.183   4.036   7.613  0.5020  0.4487 -0.6718
 6251TIP3   OH242947   1.904   3.544   7.231  0.3140  0.1969  0.0396
 6251TIP3    H142948   1.856   3.537   7.314 -0.1257 -2.4088 -0.3414
 6251TIP3    H242949   1.958   3.465   7.229  0.6067  0.4116 -1.9730
 6252TIP3   OH242950   4.551   2.730   7.613 -0.8540  0.4747  0.3716
 6252TIP3    H142951   4.630   2.676   7.604 -1.7481 -0.6759 -1.0613
 6252TIP3    H242952   4.584   2.816   7.637  0.8921  0.1210 -0.5522
 6253TIP3   OH242953   5.246   0.356   7.682  0.2187  0.0542 -0.5204
 6253TIP3    H142954   5.163   0.396   7.708  0.7998  0.9001  0.0941
 6253TIP3    H242955   5.238   0.265   7.710 -0.3895  0.1938 -0.2018
 6254TIP3   OH242956   5.464   1.220   7.138 -0.0639 -0.1538  0.0953
 6254TIP3    H142957   5.509   1.271   7.070 -1.4948  0.0364 -0.7386
 6254TIP3    H242958   5.457   1.132   7.099  2.3540 -1.0688  1.5022
 6255TIP3   OH242959   6.135   3.677   6.177  0.1547  0.1908  0.5758
 6255TIP3    H142960   6.170   3.704   6.262  0.2565 -0.4390  0.7391
 6255TIP3    H242961   6.196   3.610   6.145  0.3912  0.7746 -0.2303
 6256TIP3   OH242962   4.018   2.829   6.033  0.1094 -0.2107  0.4291
 6256TIP3    H142963   4.042   2.781   6.112 -0.4533 -1.3200 -0.0584
 6256TIP3    H242964   3.925   2.846   6.042 -0.1236 -1.0225 -0.3422
 6257TIP3   OH242965   6.494   4.397   9.418  0.1262  0.0407  0.3975
 6257TIP3    H142966   6.500   4.311   9.377  1.1874 -0.0968  0.8360
 6257TIP3    H242967   6.502   4.459   9.345  0.5881 -0.2181  0.2268
 6258TIP3   OH242968   4.652   4.368   8.409  0.1559  0.2092  0.2726
 6258TIP3    H142969   4.683   4.286   8.369  0.0749  0.3410 -0.0600
 6258TIP3    H242970   4.563   4.378   8.377  0.9183  1.6295 -1.5688
 6259TIP3   OH242971   1.576   3.023   6.815 -0.3575  0.5739 -0.2239
 6259TIP3    H142972   1.582   3.047   6.908  0.8111 -1.1856  0.1980
 6259TIP3    H242973   1.641   3.078   6.772 -1.0889  1.5899 -0.0817
 6260TIP3   OH242974   1.360   4.064   7.364 -0.1687  0.1454 -0.3849
 6260TIP3    H142975   1.353   4.114   7.445  1.3047 -0.6274  0.2659
 6260TIP3    H242976   1.452   4.037   7.361  0.0352  0.8684 -2.7484
 6261TIP3   OH242977   0.909   0.150   6.622  0.5036 -0.2217  0.0382
 6261TIP3    H142978   0.945   0.215   6.562 -0.6865 -0.9411 -1.5454
 6261TIP3    H242979   0.828   0.189   6.655  1.4076  0.3881  1.6645
 6262TIP3   OH242980   5.642   2.252   5.877 -0.0166 -0.2165 -0.4675
 6262TIP3    H142981   5.609   2.292   5.797 -1.3653  0.5610  0.4351
 6262TIP3    H242982   5.656   2.160   5.853 -2.4728 -0.5242 -1.0896
 6263TIP3   OH242983   4.928   1.767   8.187  0.2622 -0.0080 -0.3729
 6263TIP3    H142984   4.885   1.850   8.167  0.5606  0.4946  0.9666
 6263TIP3    H242985   4.953   1.774   8.279 -0.6512 -2.0096  0.0824
 6264TIP3   OH242986   5.507   6.749   7.807  0.0443  0.2885  0.3512
 6264TIP3    H142987   5.582   6.808   7.801 -0.1608  0.4192 -1.3911
 6264TIP3    H242988   5.468   6.751   7.720 -0.4096 -1.8561  0.4539
 6265TIP3   OH242989   2.781   4.312   8.331  0.1009  0.3584 -0.4913
 6265TIP3    H142990   2.730   4.235   8.306 -0.0061  0.8545 -1.8601
 6265TIP3    H242991   2.722   4.364   8.385  0.2781 -0.6527  0.7118
 6266TIP3   OH242992   4.900   0.835   8.090 -0.0047  0.3824  0.1648
 6266TIP3    H142993   4.877   0.891   8.164 -0.9948 -0.5736  0.6034
 6266TIP3    H242994   4.995   0.822   8.098  0.4234  2.6650 -0.4541
 6267TIP3   OH242995   4.481   1.128   8.831  0.4874 -0.5767 -0.6373
 6267TIP3    H142996   4.427   1.197   8.870 -1.0450 -1.7127 -0.6502
 6267TIP3    H242997   4.562   1.130   8.881  0.9820  1.9839 -1.4040
 6268TIP3   OH242998   1.360   3.626   6.830  0.2494  0.0715  0.1477
 6268TIP3    H142999   1.386   3.644   6.739 -0.3413  0.1866 -0.0012
 6268TIP3    H243000   1.364   3.531   6.838 -1.8445 -0.1412 -0.6741
 6269TIP3   OH243001   4.466   2.394   6.314 -0.3338 -0.5637  0.5661
 6269TIP3    H143002   4.427   2.461   6.370  0.5547 -0.4266  1.0365
 6269TIP3    H243003   4.446   2.312   6.359  1.3270 -0.3875  1.7262
 6270TIP3   OH243004   5.023   3.269   7.434  0.4329 -0.1579  0.6133
 6270TIP3    H143005   4.964   3.251   7.507 -0.9490 -0.9061 -0.6220
 6270TIP3    H243006   5.109   3.278   7.474 -0.4230  0.4072  2.4173
 6271TIP3   OH243007   1.753   5.162   6.074 -0.6469 -0.1098  0.1525
 6271TIP3    H143008   1.806   5.086   6.101 -0.4593 -1.1016 -2.6729
 6271TIP3    H243009   1.672   5.153   6.124 -0.7184 -2.3465 -0.2366
 6272TIP3   OH243010   6.406   5.717   7.972  0.3300  0.2194  0.2354
 6272TIP3    H143011   6.416   5.795   8.027  1.3958 -0.3980  0.9584
 6272TIP3    H243012   6.495   5.682   7.965  0.0633 -0.2311 -1.1361
 6273TIP3   OH243013   4.315   4.886   5.582 -0.1538  0.0886 -0.1101
 6273TIP3    H143014   4.392   4.937   5.607 -0.9403  0.8048  0.9372
 6273TIP3    H243015   4.267   4.944   5.522 -0.6716  0.2958  0.4929
 6274TIP3   OH243016   3.933   1.275   7.102  0.4278 -0.0632 -0.0625
 6274TIP3    H143017   3.967   1.245   7.018  0.1019 -1.8196  0.3960
 6274TIP3    H243018   3.960   1.367   7.107  1.0393 -0.1115 -1.7662
 6275TIP3   OH243019   3.811   0.460   6.056  0.2455 -0.5187 -0.0116
 6275TIP3    H143020   3.724   0.422   6.046  0.3440 -1.0639  1.1101
 6275TIP3    H243021   3.841   0.473   5.966 -0.7179 -0.9615 -0.4129
 6276TIP3   OH243022   0.370   3.949   7.262  0.4694  0.5004  0.2805
 6276TIP3    H143023   0.336   4.029   7.221  0.2350  1.2417  1.8384
 6276TIP3    H243024   0.462   3.968   7.278  0.6555  0.0605 -0.2496
 6277TIP3   OH243025   5.890   4.643   6.627  0.3112  0.0890  0.0157
 6277TIP3    H143026   5.821   4.577   6.623  0.3800  0.0504 -0.6756
 6277TIP3    H243027   5.956   4.606   6.685  0.5540 -0.6574 -0.7129
 6278TIP3   OH243028   1.192   1.879   8.294 -0.0437 -1.1200 -0.4427
 6278TIP3    H143029   1.108   1.924   8.302  0.2247 -0.5883 -0.5654
 6278TIP3    H243030   1.169   1.786   8.293 -0.6965 -0.9663 -1.2383
 6279TIP3   OH243031   3.900   2.004   8.886  0.2158 -0.8492 -0.0906
 6279TIP3    H143032   3.987   2.012   8.926  1.0055 -2.0751 -1.4398
 6279TIP3    H243033   3.918   1.989   8.793 -1.4278 -1.3951 -0.3528
 6280TIP3   OH243034   0.738   6.102   6.841  0.8754 -0.4285  0.7188
 6280TIP3    H143035   0.815   6.067   6.798  1.7580  0.4808  1.5005
 6280TIP3    H243036   0.726   6.189   6.803 -1.1538 -1.3945 -1.0436
 6281TIP3   OH243037   2.307   0.022   8.125  0.3451  0.7521  0.2678
 6281TIP3    H143038   2.308   0.072   8.206 -1.2624  0.7767  0.3200
 6281TIP3    H243039   2.277  -0.066   8.151 -0.2025  0.7646 -0.2739
 6282TIP3   OH243040   6.215   2.488   8.181  0.2473 -0.5564  0.2468
 6282TIP3    H143041   6.281   2.507   8.114  0.5149  0.3067  0.7387
 6282TIP3    H243042   6.160   2.421   8.142  0.2573  0.0945 -0.9476
 6283TIP3   OH243043   0.863   2.287   6.895  0.0861 -0.8532 -0.2962
 6283TIP3    H143044   0.891   2.222   6.830  0.3999 -2.1598  1.0847
 6283TIP3    H243045   0.912   2.265   6.974  0.7996  1.5843  0.0308
 6284TIP3   OH243046   0.217   0.692   6.541 -0.1582 -0.0076 -0.9541
 6284TIP3    H143047   0.130   0.714   6.574  0.5290 -0.2562  1.1541
 6284TIP3    H243048   0.203   0.670   6.449 -2.2878  0.1070 -0.7017
 6285TIP3   OH243049   4.467   0.160   7.388  1.2781 -0.1605 -0.3729
 6285TIP3    H143050   4.508   0.098   7.327  2.4874 -2.1115  2.2296
 6285TIP3    H243051   4.398   0.109   7.431 -0.1821  1.4534 -0.6770
 6286TIP3   OH243052   0.287   0.786   6.902 -0.0939 -0.1443 -0.0749
 6286TIP3    H143053   0.238   0.816   6.979 -1.6105  1.6827 -1.6430
 6286TIP3    H243054   0.252   0.699   6.884 -0.2157 -0.3018  0.8905
 6287TIP3   OH243055   1.195   3.815   6.664 -0.0128 -0.5136 -0.3359
 6287TIP3    H143056   1.143   3.741   6.635  0.2953 -0.6888 -0.4475
 6287TIP3    H243057   1.160   3.837   6.750 -0.1737 -0.7208 -0.3484
 6288TIP3   OH243058   6.403   6.395   8.656  0.0470  0.1877  0.3406
 6288TIP3    H143059   6.457   6.361   8.585  0.4764  1.9833 -0.2418
 6288TIP3    H243060   6.458   6.387   8.734  1.2747  2.1405 -0.2694
 6289TIP3   OH243061   4.770   6.596   6.275 -0.0775 -0.3698 -0.2218
 6289TIP3    H143062   4.805   6.606   6.363  0.2640 -1.3056 -0.2373
 6289TIP3    H243063   4.796   6.508   6.249 -1.0637 -0.4822 -0.8639
 6290TIP3   OH243064   3.575   0.812   6.746 -0.6877  0.4589 -0.4942
 6290TIP3    H143065   3.557   0.895   6.702 -0.7072  0.6710 -0.0917
 6290TIP3    H243066   3.631   0.764   6.685  0.8713  1.5170  0.0320
 6291TIP3   OH243067   3.650   1.735   7.761  0.3410  0.1924  0.2237
 6291TIP3    H143068   3.584   1.777   7.816 -0.6442 -0.8849 -0.0925
 6291TIP3    H243069   3.733   1.772   7.791  0.1340 -1.9153  4.0004
 6292TIP3   OH243070   0.883   5.716   7.048  0.2220 -0.2989 -0.0652
 6292TIP3    H143071   0.863   5.690   6.958  1.0064  0.2619 -0.4130
 6292TIP3    H243072   0.887   5.812   7.045  0.1496 -0.2699  0.5883
 6293TIP3   OH243073   1.825   1.725   7.037  0.0423 -0.6457 -0.1644
 6293TIP3    H143074   1.865   1.683   7.113 -1.2209 -1.2781  0.1723
 6293TIP3    H243075   1.774   1.797   7.074  1.0101  0.3062 -0.6125
 6294TIP3   OH243076   1.062   6.648   6.855 -0.3144  0.4044  0.4755
 6294TIP3    H143077   1.067   6.630   6.761  0.3993 -1.5875  0.8501
 6294TIP3    H243078   0.992   6.592   6.887  0.4019 -0.0262  1.3408
 6295TIP3   OH243079   0.937   0.094   7.284  0.3849  0.2751 -0.1205
 6295TIP3    H143080   1.030   0.114   7.292  0.4285  0.4843 -1.0552
 6295TIP3    H243081   0.894   0.154   7.346  0.8327  0.4317  0.0434
 6296TIP3   OH243082   5.503   1.557   5.961  0.2021  0.1347  0.1641
 6296TIP3    H143083   5.592   1.542   5.992  0.6289  1.1461 -0.5184
 6296TIP3    H243084   5.472   1.632   6.012 -0.2024 -0.1083  0.2813
 6297TIP3   OH243085   6.086   3.870   7.644 -0.2283  0.2300 -0.2707
 6297TIP3    H143086   6.172   3.832   7.660 -1.1590 -1.6319  0.6372
 6297TIP3    H243087   6.026   3.795   7.649 -2.1404  1.7797  1.2310
 6298TIP3   OH243088   0.712   3.294   8.020  0.2679  0.0833 -0.4303
 6298TIP3    H143089   0.618   3.281   8.036  0.2270 -0.6597 -1.1906
 6298TIP3    H243090   0.721   3.388   8.009 -0.5231  0.1038 -1.0448
 6299TIP3   OH243091   6.208   0.595   7.679 -0.9698  0.4977  0.5386
 6299TIP3    H143092   6.172   0.642   7.755 -1.5105  0.0118  0.5925
 6299TIP3    H243093   6.132   0.553   7.639 -1.0797  2.4701 -1.5521
 6300TIP3   OH243094   4.390   3.660   6.279 -0.2160  0.4859 -0.3922
 6300TIP3    H143095   4.447   3.585   6.293  0.1841  0.8463 -0.0837
 6300TIP3    H243096   4.446   3.737   6.292 -0.9930  0.8569  0.9271
 6301TIP3   OH243097   6.544   3.965   6.011 -0.2764 -0.0848  0.1007
 6301TIP3    H143098   6.479   3.896   6.018 -0.3766  0.1897  3.6939
 6301TIP3    H243099   6.619   3.932   6.061  0.4094  1.5983  0.2466
 6302TIP3   OH243100   5.877   1.649   5.875 -0.2105 -0.1189 -0.0351
 6302TIP3    H143101   5.923   1.684   5.951  0.9153 -0.1654 -0.6727
 6302TIP3    H243102   5.829   1.574   5.909  0.6994 -0.4557  0.5502
 6303TIP3   OH243103   5.098   1.210   7.448  0.8992 -0.5893  0.2495
 6303TIP3    H143104   5.095   1.261   7.529 -0.7131 -0.3705  0.0910
 6303TIP3    H243105   5.006   1.198   7.424  1.3386  0.0713 -2.0103
 6304TIP3   OH243106   6.558   5.946   7.390  0.2210 -0.7823 -0.6259
 6304TIP3    H143107   6.611   6.024   7.403 -1.0341  0.0699 -0.4535
 6304TIP3    H243108   6.566   5.926   7.297  0.8178 -0.6607 -0.6045
 6305TIP3   OH243109   3.516   3.670   8.223 -0.7675 -0.2115 -0.1158
 6305TIP3    H143110   3.575   3.717   8.282 -0.8926 -1.7389  1.3160
 6305TIP3    H243111   3.429   3.684   8.259 -0.6327 -3.2948  1.7983
 6306TIP3   OH243112   5.722   1.233   5.754 -0.0833 -0.0027 -0.5833
 6306TIP3    H143113   5.710   1.142   5.778  2.4900 -0.2271  0.0696
 6306TIP3    H243114   5.647   1.253   5.698 -0.1082 -2.8255 -1.6857
 6307TIP3   OH243115   2.478   5.466   6.697  0.0437 -0.0670 -0.2305
 6307TIP3    H143116   2.515   5.397   6.642 -0.1131  0.4321 -0.9748
 6307TIP3    H243117   2.411   5.507   6.642  0.4476  0.9787  0.0315
 6308TIP3   OH243118   6.309   1.630   6.698 -0.1565  0.0525 -0.1311
 6308TIP3    H143119   6.233   1.677   6.664  0.1181 -0.7332 -1.9611
 6308TIP3    H243120   6.305   1.544   6.655 -0.1900 -1.3532  2.4577
 6309TIP3   OH243121   3.454   3.112   7.872 -0.8852 -0.0183 -0.3344
 6309TIP3    H143122   3.445   3.204   7.849 -2.3932 -0.2445 -0.7644
 6309TIP3    H243123   3.470   3.113   7.966  0.3894  0.7105 -0.5308
 6310TIP3   OH243124   0.077   5.474   6.138  0.4523 -0.0997 -0.5758
 6310TIP3    H143125   0.023   5.494   6.061  0.8190 -1.3497 -1.1714
 6310TIP3    H243126   0.160   5.443   6.103  1.3365  1.1341  0.3437
 6311TIP3   OH243127   4.025   2.048   6.034 -0.2111 -0.2601  0.1102
 6311TIP3    H143128   4.011   1.964   5.991  1.0215 -0.6303  0.3981
 6311TIP3    H243129   4.092   2.092   5.981 -1.5075  0.9563 -0.5765
 6312TIP3   OH243130   0.905   2.519   5.436 -0.1616  0.5230 -0.6266
 6312TIP3    H143131   0.901   2.433   5.477  2.2495  1.3731  1.7095
 6312TIP3    H243132   0.819   2.531   5.395 -0.7337 -2.7306 -0.5957
 6313TIP3   OH243133   4.018   2.935   7.569  0.8230 -0.2495 -0.2640
 6313TIP3    H143134   3.936   2.892   7.545 -0.0742  1.0631  0.3768
 6313TIP3    H243135   4.029   2.917   7.662  0.2612  1.1551  0.0907
 6314TIP3   OH243136   3.103   1.194   6.250 -0.1935 -0.1023  0.2674
 6314TIP3    H143137   3.083   1.153   6.334  0.1985 -1.1689 -0.1334
 6314TIP3    H243138   3.139   1.280   6.272  1.7002 -1.1082  1.2919
 6315TIP3   OH243139   4.676   5.644   8.581 -0.3493 -0.5073 -0.3964
 6315TIP3    H143140   4.720   5.685   8.655 -0.4852 -0.4291 -0.3583
 6315TIP3    H243141   4.718   5.558   8.572  1.1203  0.2936 -1.5630
 6316TIP3   OH243142   5.630   4.673   5.679 -0.1301  0.0240 -0.2588
 6316TIP3    H143143   5.549   4.625   5.699 -0.6483  0.8490 -0.3545
 6316TIP3    H243144   5.700   4.609   5.697 -0.7663 -0.5055  0.4159
 6317TIP3   OH243145   2.019   5.386   5.597  0.1138  0.0195 -0.1625
 6317TIP3    H143146   2.073   5.350   5.526  1.2662  1.6031 -0.1436
 6317TIP3    H243147   2.072   5.373   5.676  0.3091  1.2134 -0.0802
 6318TIP3   OH243148   6.473   3.962   7.901  0.3601  0.1775  0.2848
 6318TIP3    H143149   6.532   4.028   7.938 -0.9741  1.5149  0.1175
 6318TIP3    H243150   6.439   3.915   7.977  1.8399 -0.8273  0.3668
 6319TIP3   OH243151   1.974   3.317   7.901  0.0018 -0.6436 -0.4882
 6319TIP3    H143152   1.892   3.266   7.898 -0.0313 -0.7309  1.1574
 6319TIP3    H243153   1.953   3.394   7.953  1.2947 -1.3558  1.1910
 6320TIP3   OH243154   0.429   5.178   8.599  0.1344 -0.5223 -0.0507
 6320TIP3    H143155   0.482   5.256   8.618 -1.6067  0.7557 -0.2329
 6320TIP3    H243156   0.382   5.161   8.681 -0.5331 -0.5198 -0.4246
 6321TIP3   OH243157   0.358   2.226   7.699  0.4209  0.3326 -0.0525
 6321TIP3    H143158   0.408   2.159   7.652  0.2433  0.9268 -1.1135
 6321TIP3    H243159   0.267   2.210   7.674  0.1828 -0.0550  1.0095
 6322TIP3   OH243160   6.388   0.445   6.800 -0.1421 -0.4883  0.1465
 6322TIP3    H143161   6.460   0.404   6.752 -0.8462 -1.0723 -0.4354
 6322TIP3    H243162   6.328   0.372   6.820 -0.5699 -0.0155  0.6220
 6323TIP3   OH243163   0.947   0.297   6.325 -0.3483 -0.1528  0.1416
 6323TIP3    H143164   0.859   0.259   6.333 -0.5934  0.4082  0.1839
 6323TIP3    H243165   0.933   0.379   6.279  0.1840 -0.1454 -0.0138
 6324TIP3   OH243166   2.535   4.020   9.063  0.1935 -0.1392 -0.1050
 6324TIP3    H143167   2.544   3.925   9.060  0.2238 -0.3185  3.0014
 6324TIP3    H243168   2.480   4.037   9.140  0.3774  2.3804 -0.4421
 6325TIP3   OH243169   3.881   6.190   8.926 -0.3784  0.3580  0.2781
 6325TIP3    H143170   3.862   6.279   8.898 -2.2134  0.3003  1.1848
 6325TIP3    H243171   3.808   6.166   8.983  0.6617 -1.3130  1.0114
 6326TIP3   OH243172   5.207   4.526   8.520 -0.1428 -0.1702 -0.0864
 6326TIP3    H143173   5.143   4.456   8.535  1.4863 -1.6839  0.1632
 6326TIP3    H243174   5.291   4.480   8.513  1.6832  1.9914  4.1048
 6327TIP3   OH243175   0.478   6.384   7.945  0.1758  0.5293  0.7721
 6327TIP3    H143176   0.472   6.292   7.969  1.0805  0.3734  0.4352
 6327TIP3    H243177   0.425   6.393   7.867  2.5193 -0.4015 -1.0389
 6328TIP3   OH243178   5.466   4.451   6.260 -0.5527  0.2384  0.3204
 6328TIP3    H143179   5.488   4.543   6.244 -1.4917  0.4136 -0.0378
 6328TIP3    H243180   5.452   4.446   6.355 -0.2096  0.3913  0.3817
 6329TIP3   OH243181   3.732   5.359   8.704 -0.2106 -0.0867  0.0238
 6329TIP3    H143182   3.811   5.332   8.656 -0.2976  0.0054 -0.1729
 6329TIP3    H243183   3.750   5.334   8.794  0.4233  0.7344  0.1410
 6330TIP3   OH243184   2.437   4.524   5.913  0.2567 -0.0811  0.1295
 6330TIP3    H143185   2.478   4.534   5.999  1.4658 -0.8568 -0.3321
 6330TIP3    H243186   2.378   4.599   5.906  1.9190  1.3414  0.6575
 6331TIP3   OH243187   4.289   2.945   8.138  0.3001  0.5837 -0.5991
 6331TIP3    H143188   4.380   2.917   8.136  0.4598  1.1512 -1.7949
 6331TIP3    H243189   4.269   2.970   8.048 -1.1156  0.2365 -0.4017
 6332TIP3   OH243190   5.457   6.681   5.632  0.3005 -0.4445 -0.0198
 6332TIP3    H143191   5.416   6.740   5.568  0.1467 -0.4582  0.0670
 6332TIP3    H243192   5.399   6.606   5.636 -1.8661  1.1814  3.0271
 6333TIP3   OH243193   1.803   0.669   5.473  1.0118 -0.0023  0.1243
 6333TIP3    H143194   1.720   0.714   5.456  0.7167 -0.4356  0.3994
 6333TIP3    H243195   1.788   0.620   5.554  1.2283 -0.8279 -0.3243
 6334TIP3   OH243196   1.183   3.624   7.788  0.5954 -0.4547  0.0835
 6334TIP3    H143197   1.122   3.695   7.766  1.7015  0.8065  0.9209
 6334TIP3    H243198   1.254   3.633   7.725  1.4747  0.1655  1.1361
 6335TIP3   OH243199   0.874   1.933   6.211  0.4047 -0.0302  0.3996
 6335TIP3    H143200   0.785   1.935   6.177  0.5431 -2.3728 -0.2149
 6335TIP3    H243201   0.901   1.842   6.203  1.0649 -0.5190  5.2480
 6336TIP3   OH243202   3.283   6.627   8.258  0.3842 -0.2043  0.2088
 6336TIP3    H143203   3.247   6.637   8.170  0.0653  0.3483  0.3976
 6336TIP3    H243204   3.224   6.567   8.301  0.6796 -0.6711 -0.0273
 6337TIP3   OH243205   6.276   2.381   8.447 -0.0754  0.0326 -0.1026
 6337TIP3    H143206   6.254   2.449   8.382  0.5015 -0.8855 -1.3074
 6337TIP3    H243207   6.359   2.411   8.485 -0.9289  1.0899  0.9803
 6338TIP3   OH243208   3.473   3.498   6.456 -0.0272  0.2440  0.1913
 6338TIP3    H143209   3.470   3.410   6.493 -0.2312  0.3790  0.4970
 6338TIP3    H243210   3.563   3.528   6.473 -0.5077  0.8424  1.8493
 6339TIP3   OH243211   4.041   4.279   6.922 -0.0988  0.4663  0.0624
 6339TIP3    H143212   3.993   4.254   6.843  0.6103 -2.3078  0.4311
 6339TIP3    H243213   4.133   4.260   6.902  0.1810  0.4496  1.2798
 6340TIP3   OH243214   1.658   2.344   8.112 -0.1582 -0.1149  0.2590
 6340TIP3    H143215   1.579   2.325   8.062 -0.1008 -0.0748  0.1533
 6340TIP3    H243216   1.628   2.350   8.203 -0.1363 -1.0112  0.3410
 6341TIP3   OH243217   6.056   2.732   7.111 -0.3400  0.3759  0.1384
 6341TIP3    H143218   6.067   2.637   7.114  0.1770  0.4292  3.2423
 6341TIP3    H243219   6.137   2.767   7.146 -0.1390  2.0903 -1.8185
 6342TIP3   OH243220   1.292   2.519   6.190  0.2608 -0.7671 -0.4823
 6342TIP3    H143221   1.340   2.439   6.168 -0.7552 -2.8707  3.9127
 6342TIP3    H243222   1.345   2.562   6.257 -1.1545 -0.0051  0.2118
 6343TIP3   OH243223   3.836   0.342   7.911 -0.0050  0.5908 -0.5643
 6343TIP3    H143224   3.760   0.345   7.854 -1.5047  0.3875  1.3135
 6343TIP3    H243225   3.899   0.402   7.871 -0.6506 -0.1240 -2.8035
 6344TIP3   OH243226   3.694   4.211   6.273 -0.0377  0.6188  0.2047
 6344TIP3    H143227   3.696   4.134   6.330  0.2420  1.7296  1.7814
 6344TIP3    H243228   3.786   4.237   6.264  0.1203 -0.5110 -2.2386
 6345TIP3   OH243229   4.042   3.757   6.605  0.2653 -0.8092 -0.3546
 6345TIP3    H143230   4.025   3.675   6.558  1.1127 -0.0605 -2.0610
 6345TIP3    H243231   4.136   3.771   6.596  0.3319 -0.2488  0.9856
 6346TIP3   OH243232   0.849   1.371   7.005 -0.0263  0.2732 -0.1769
 6346TIP3    H143233   0.837   1.277   7.010 -2.4124  0.5491  0.6091
 6346TIP3    H243234   0.907   1.384   6.930  0.2236 -1.7878 -0.3894
 6347TIP3   OH243235   4.352   6.516   9.413 -0.0415 -0.0644  0.7625
 6347TIP3    H143236   4.385   6.603   9.390 -1.5600  1.5255  3.9430
 6347TIP3    H243237   4.277   6.503   9.356  2.1658 -0.9753 -2.1784
 6348TIP3   OH243238   6.591   0.129   7.856 -0.7801  0.3195  0.0423
 6348TIP3    H143239   6.575   0.174   7.939 -2.1219  0.2760 -0.1705
 6348TIP3    H243240   6.686   0.126   7.848 -0.6278  0.4290  1.5225
 6349TIP3   OH243241   0.731   6.407   6.061 -0.1635  0.0009 -0.1208
 6349TIP3    H143242   0.716   6.483   6.006 -1.4034  1.0031  1.4989
 6349TIP3    H243243   0.821   6.417   6.093 -0.0614  0.3707 -0.5172
 6350TIP3   OH243244   1.969   0.941   6.400  0.4562 -0.5365 -0.2809
 6350TIP3    H143245   1.909   0.969   6.332  0.7275  0.4841 -0.1181
 6350TIP3    H243246   2.055   0.937   6.357  0.4838 -0.7763 -0.2094
 6351TIP3   OH243247   5.331   3.158   7.228  0.2263 -0.7645 -0.2017
 6351TIP3    H143248   5.329   3.220   7.154 -0.4261 -0.9461 -0.3387
 6351TIP3    H243249   5.394   3.197   7.289 -0.3079  0.1388 -0.2017
 6352TIP3   OH243250   0.614   2.850   7.191  0.5136  0.0061 -0.7712
 6352TIP3    H143251   0.522   2.836   7.213  1.0180  0.4105  2.0331
 6352TIP3    H243252   0.619   2.837   7.096 -2.2696 -0.7286 -0.8986
 6353TIP3   OH243253   5.367   6.169   8.656  0.1291 -0.2034  0.1513
 6353TIP3    H143254   5.426   6.226   8.606 -0.1574  0.0267  0.0697
 6353TIP3    H243255   5.414   6.087   8.665  0.1343 -0.2962 -0.6188
 6354TIP3   OH243256   2.212   1.343   5.932 -0.5015  0.2163  0.3336
 6354TIP3    H143257   2.216   1.311   5.842  0.7713  0.9587  0.0979
 6354TIP3    H243258   2.285   1.299   5.977 -1.3822 -0.4724  1.1252
 6355TIP3   OH243259   0.934   1.153   7.747 -0.3031 -0.6221  0.1517
 6355TIP3    H143260   0.999   1.223   7.734  0.6119 -1.4359  0.2323
 6355TIP3    H243261   0.984   1.082   7.787 -1.0928 -1.5553 -0.5002
 6356TIP3   OH243262   5.344   0.152   8.469 -0.3967  0.7162 -0.3322
 6356TIP3    H143263   5.296   0.227   8.436  0.7459  1.3200 -0.6721
 6356TIP3    H243264   5.436   0.181   8.471  0.2119 -1.0139 -1.4826
 6357TIP3   OH243265   1.690   3.541   7.051 -0.1119  0.6439 -0.0884
 6357TIP3    H143266   1.711   3.477   6.982 -1.1944 -0.8867  0.9269
 6357TIP3    H243267   1.763   3.537   7.111 -0.6528 -0.4863  0.5276
 6358TIP3   OH243268   5.829   1.833   7.034  0.0861  0.0615 -0.3361
 6358TIP3    H143269   5.803   1.876   7.115 -0.7661 -1.4689  0.2478
 6358TIP3    H243270   5.880   1.757   7.062 -1.7573 -1.5511 -1.0754
 6359TIP3   OH243271   3.863   1.050   7.415  0.5639 -0.4389  0.1478
 6359TIP3    H143272   3.918   1.036   7.338 -0.6816 -0.8261 -0.7024
 6359TIP3    H243273   3.773   1.042   7.383 -0.0492  1.1471  1.2859
 6360TIP3   OH243274   2.726   3.316   7.942  0.1385 -0.4584  0.2919
 6360TIP3    H143275   2.694   3.388   7.997  0.8706  0.6251 -0.6466
 6360TIP3    H243276   2.712   3.346   7.852 -1.2899 -2.3108 -0.1714
 6361TIP3   OH243277   0.081   3.174   6.797  0.3167 -0.5460  0.2189
 6361TIP3    H143278   0.167   3.212   6.814 -0.1910  0.4386  0.6619
 6361TIP3    H243279   0.088   3.083   6.825  1.2266 -0.4845  0.1964
 6362TIP3   OH243280   5.695   0.995   6.569  0.3801 -0.1308 -0.0051
 6362TIP3    H143281   5.648   0.925   6.523  2.5598 -0.9850 -1.0340
 6362TIP3    H243282   5.786   0.967   6.570  1.2433  2.4578  0.0537
 6363TIP3   OH243283   3.573   3.080   5.959  0.1452  0.3979 -0.1778
 6363TIP3    H143284   3.536   3.133   5.889 -2.5336  0.6473  1.3131
 6363TIP3    H243285   3.551   3.126   6.039  0.1573 -1.5477  1.0220
 6364TIP3   OH243286   5.039   5.437   7.956 -0.4446 -0.0713 -0.0374
 6364TIP3    H143287   5.121   5.389   7.963 -0.1182  0.5749  0.6866
 6364TIP3    H243288   5.065   5.527   7.933 -1.0364 -0.1826 -1.2428
 6365TIP3   OH243289   3.245   3.504   8.625  0.2399  0.2018  0.3017
 6365TIP3    H143290   3.191   3.581   8.611 -0.0796 -0.1686 -0.5177
 6365TIP3    H243291   3.269   3.508   8.718 -1.9542 -0.1298  0.9263
 6366TIP3   OH243292   3.018   5.167   5.986 -0.4181  0.6363  0.1050
 6366TIP3    H143293   3.012   5.075   5.961  0.0906  0.4362  0.6839
 6366TIP3    H243294   2.994   5.216   5.907  0.0379  0.0157 -0.4227
 6367TIP3   OH243295   1.289   3.013   6.589  0.0378 -0.7019  0.1429
 6367TIP3    H143296   1.202   2.991   6.555 -0.3756  0.4935  0.3870
 6367TIP3    H243297   1.349   2.957   6.539 -0.9405 -2.3876  0.7778
 6368TIP3   OH243298   4.570   0.522   5.842  0.8253  0.3505 -0.5828
 6368TIP3    H143299   4.567   0.604   5.793 -0.6580  0.9611  0.4329
 6368TIP3    H243300   4.561   0.548   5.934 -0.1615 -0.9546 -0.2678
 6369TIP3   OH243301   6.419   6.081   7.117 -0.0020 -0.7266  0.3484
 6369TIP3    H143302   6.452   6.167   7.142  2.2960 -1.2934 -0.4447
 6369TIP3    H243303   6.491   6.021   7.136  0.1226 -1.8605 -2.9470
 6370TIP3   OH243304   6.091   6.437   5.944  0.5499  0.0729  0.5604
 6370TIP3    H143305   6.104   6.345   5.966  1.7551 -0.1158 -0.7636
 6370TIP3    H243306   6.180   6.474   5.944  0.1111  1.1661  0.7682
 6371TIP3   OH243307   0.092   6.521   8.515 -0.9659  0.0415  0.9100
 6371TIP3    H143308   0.179   6.527   8.553 -0.5650  0.5825 -0.0425
 6371TIP3    H243309   0.034   6.560   8.580 -0.2780  1.1236  0.8957
 6372TIP3   OH243310   2.191   5.412   8.945  0.3574 -0.3857 -0.4854
 6372TIP3    H143311   2.108   5.410   8.994  0.4233 -2.0106 -0.3857
 6372TIP3    H243312   2.252   5.458   9.003 -0.3080  0.2658 -0.2884
 6373TIP3   OH243313   3.325   4.474   5.325  0.1113  0.1070  0.5373
 6373TIP3    H143314   3.361   4.386   5.327 -0.6193 -0.2627 -1.0301
 6373TIP3    H243315   3.372   4.521   5.394  3.3636 -0.4436 -1.1064
 6374TIP3   OH243316   5.256   0.537   6.031  0.0935 -0.1335  0.8044
 6374TIP3    H143317   5.300   0.612   6.072  1.2726 -0.4765  0.2387
 6374TIP3    H243318   5.248   0.473   6.101  2.8400 -1.0396  0.4229
 6375TIP3   OH243319   3.883   3.208   7.591  0.1159 -0.1919  0.0237
 6375TIP3    H143320   3.975   3.186   7.604  0.3949  0.3912 -0.8929
 6375TIP3    H243321   3.869   3.285   7.645  0.6631  0.8178 -1.2171
 6376TIP3   OH243322   6.242   3.971   6.140  0.3210 -0.2431  0.4517
 6376TIP3    H143323   6.155   3.972   6.180  0.8494 -0.9856  1.6749
 6376TIP3    H243324   6.246   3.887   6.094 -0.1222  0.4199 -0.8533
 6377TIP3   OH243325   0.411   3.882   8.598  0.0917 -0.2297  0.2986
 6377TIP3    H143326   0.439   3.937   8.671  1.8262  0.7443 -1.0159
 6377TIP3    H243327   0.347   3.822   8.636  0.5157  0.6090  2.4750
 6378TIP3   OH243328   4.673   4.055   6.738 -0.1837  0.9713 -0.2766
 6378TIP3    H143329   4.764   4.037   6.764 -0.8399 -0.4664  1.2587
 6378TIP3    H243330   4.665   4.014   6.652  0.9506  2.2547 -1.0334
 6379TIP3   OH243331   5.666   3.109  16.401  0.1952  0.3528  0.1879
 6379TIP3    H143332   5.678   3.194  16.443  2.6952  0.4039 -0.4650
 6379TIP3    H243333   5.647   3.049  16.472  0.9867  1.0245  0.9887
 6380TIP3   OH243334   4.070   4.054   7.942 -0.7500 -0.0770  0.5963
 6380TIP3    H143335   3.999   4.102   7.897 -0.7665 -1.7365 -1.2652
 6380TIP3    H243336   4.056   3.963   7.918  1.8834 -0.4868  0.3946
 6381TIP3   OH243337   0.354   5.932   6.354  0.5730 -0.2041 -0.0223
 6381TIP3    H143338   0.294   5.857   6.347 -0.6573  0.5673  1.6550
 6381TIP3    H243339   0.322   5.994   6.288 -0.1889 -0.0041  0.5242
 6382TIP3   OH243340   4.984   5.937   7.134  0.2263  0.3072  0.3600
 6382TIP3    H143341   5.070   5.976   7.151  0.2516  0.5265 -0.2413
 6382TIP3    H243342   4.929   5.969   7.205  0.5923  0.3405  0.6287
 6383TIP3   OH243343   1.455   2.937   6.073  0.3436  0.2475 -0.1711
 6383TIP3    H143344   1.363   2.910   6.068  0.8437 -1.5134 -0.5137
 6383TIP3    H243345   1.503   2.869   6.026  1.8674  0.9873  0.2361
 6384TIP3   OH243346   2.261   2.627   7.722 -0.1753 -0.5951  0.2854
 6384TIP3    H143347   2.280   2.708   7.673 -4.8672 -0.0465 -1.1038
 6384TIP3    H243348   2.248   2.657   7.812 -3.0769  0.6143 -0.4228
 6385TIP3   OH243349   4.255   3.786   5.562 -0.1325 -0.2541  0.1537
 6385TIP3    H143350   4.224   3.817   5.647 -0.0121 -2.6766  1.1419
 6385TIP3    H243351   4.198   3.829   5.498 -2.8661 -1.3985  1.6813
 6386TIP3   OH243352   5.695   1.839   6.445  0.2082  0.5154  0.2852
 6386TIP3    H143353   5.641   1.818   6.522 -0.2902  2.4530  0.4980
 6386TIP3    H243354   5.636   1.828   6.371 -0.1136  1.3044  0.4133
 6387TIP3   OH243355   2.135   2.485   5.941 -0.1067  0.2610  0.1419
 6387TIP3    H143356   2.118   2.572   5.907 -0.1355  0.0592 -0.3764
 6387TIP3    H243357   2.063   2.468   6.001  1.0193  1.4302  1.9059
 6388TIP3   OH243358   0.156   5.612   8.328 -0.0218 -0.5165 -0.1901
 6388TIP3    H143359   0.222   5.680   8.343 -1.0986  0.4448  0.4239
 6388TIP3    H243360   0.074   5.653   8.356 -0.7713 -1.9289 -0.2552
 6389TIP3   OH243361   2.322   1.946   9.414 -0.2245  0.0768 -0.4335
 6389TIP3    H143362   2.366   1.869   9.378  1.1429  0.9205 -0.6749
 6389TIP3    H243363   2.260   1.972   9.346 -1.1731 -1.1700 -0.0758
 6390TIP3   OH243364   6.712   0.738   6.615  0.6303  0.0498 -0.0044
 6390TIP3    H143365   6.652   0.805   6.584  0.4255 -0.3485 -0.4866
 6390TIP3    H243366   6.655   0.672   6.655  0.5898 -0.9960 -1.6826
 6391TIP3   OH243367   1.293   5.841   7.563 -0.1640  0.1675  0.1102
 6391TIP3    H143368   1.207   5.824   7.525 -0.4472  1.1539  0.2645
 6391TIP3    H243369   1.278   5.841   7.658 -0.2620  1.4886  0.1243
 6392TIP3   OH243370   3.820   2.752   7.074 -0.6885  0.0541 -0.1919
 6392TIP3    H143371   3.774   2.818   7.023  1.8254  3.2425  1.3401
 6392TIP3    H243372   3.776   2.752   7.159  1.6023  2.8984  1.1756
 6393TIP3   OH243373   5.428   2.726   7.714 -0.0363 -0.0517  0.5473
 6393TIP3    H143374   5.488   2.701   7.645 -0.7632 -0.0672 -0.0918
 6393TIP3    H243375   5.478   2.715   7.795  0.6318 -0.5877  0.0677
 6394TIP3   OH243376   0.472   4.331   7.278  0.3445 -0.2034  0.2109
 6394TIP3    H143377   0.404   4.366   7.335 -0.8982 -1.9665 -0.1048
 6394TIP3    H243378   0.427   4.266   7.225  1.8969 -0.0574 -1.3769
 6395TIP3   OH243379   0.719   1.451   6.406 -0.3289 -0.2228 -0.6819
 6395TIP3    H143380   0.789   1.416   6.350 -0.9921 -0.9284 -1.0890
 6395TIP3    H243381   0.690   1.375   6.457  0.1915  0.3889  0.5592
 6396TIP3   OH243382   1.271   5.904  15.187  0.0268 -0.2517 -0.1448
 6396TIP3    H143383   1.332   5.834  15.210 -1.8396 -1.9196  0.0472
 6396TIP3    H243384   1.200   5.895  15.251 -0.3985  1.6767 -0.2960
 6397TIP3   OH243385   2.859   4.687   5.776 -0.5101 -0.3101  0.8246
 6397TIP3    H143386   2.841   4.680   5.682  1.6903 -1.9685  0.4423
 6397TIP3    H243387   2.780   4.726   5.813 -0.9088  1.7605 -1.8823
 6398TIP3   OH243388   0.180   4.555   8.040 -0.2754 -0.9474  0.4603
 6398TIP3    H143389   0.153   4.558   8.132  2.3273 -1.0232  1.3143
 6398TIP3    H243390   0.159   4.642   8.006  1.2051  0.0564  1.9611
 6399TIP3   OH243391   3.466   3.185   6.835  0.0674  0.2874 -0.2623
 6399TIP3    H143392   3.420   3.174   6.752  0.8212 -1.6369 -0.4532
 6399TIP3    H243393   3.477   3.097   6.870  1.8807  0.8369  0.7331
 6400TIP3   OH243394   5.045   6.051   8.745  0.2277  0.1138  0.1718
 6400TIP3    H143395   5.099   6.110   8.692  0.5275  0.8773  1.2801
 6400TIP3    H243396   4.961   6.048   8.700  0.0110  1.8848  0.3811
 6401TIP3   OH243397   2.638   0.943   7.904 -0.3607  0.1530 -0.3011
 6401TIP3    H143398   2.580   0.900   7.841  0.1739  0.3487 -0.9377
 6401TIP3    H243399   2.695   0.873   7.936 -1.1632 -0.1136  0.5959
 6402TIP3   OH243400   4.516   6.342   6.516 -0.4081 -0.2211  0.0840
 6402TIP3    H143401   4.588   6.380   6.566 -1.1416 -0.2616  1.2143
 6402TIP3    H243402   4.539   6.357   6.425  1.1618 -0.4806  0.4119
 6403TIP3   OH243403   1.338   5.518   7.386 -0.0609 -0.0750  0.0250
 6403TIP3    H143404   1.391   5.438   7.389  0.5561  0.2258 -1.7704
 6403TIP3    H243405   1.296   5.522   7.472  1.2702 -1.3819  0.7804
 6404TIP3   OH243406   4.390   4.710   8.209  0.2587 -0.0559 -0.3174
 6404TIP3    H143407   4.349   4.786   8.167 -0.9161 -1.5348 -1.9676
 6404TIP3    H243408   4.366   4.636   8.155  0.0264 -1.8907  2.1155
 6405TIP3   OH243409   2.649   1.624   8.247 -0.1468 -0.6441 -0.7290
 6405TIP3    H143410   2.651   1.543   8.297  0.4126  0.3661  0.9878
 6405TIP3    H243411   2.647   1.693   8.313 -0.5527  0.7537 -2.1277
 6406TIP3   OH243412   4.354   1.840   5.923  0.0564  0.0168 -0.5370
 6406TIP3    H143413   4.337   1.790   6.003  0.4389 -1.0405 -1.0864
 6406TIP3    H243414   4.325   1.929   5.943  1.5765  0.1609  1.3067
 6407TIP3   OH243415   5.047   0.124   6.826  0.4617  0.3207  0.3527
 6407TIP3    H143416   5.059   0.030   6.817 -1.7362 -0.0270  0.4049
 6407TIP3    H243417   5.090   0.147   6.908  0.4250 -0.7763  0.6905
 6408TIP3   OH243418   2.935   0.857   7.313 -0.5908  0.6697  0.2204
 6408TIP3    H143419   2.849   0.862   7.355 -0.7584 -2.6541  0.5370
 6408TIP3    H243420   2.931   0.778   7.259  2.3231  0.2468  0.4394
 6409TIP3   OH243421   3.600   4.448   9.974 -0.3252  0.7118  0.7941
 6409TIP3    H143422   3.552   4.374  10.011 -1.0760  0.1738 -1.1635
 6409TIP3    H243423   3.533   4.508   9.942  0.2790  0.9034 -0.1635
 6410TIP3   OH243424   4.747   5.618   9.150  0.4534 -0.2338  0.2257
 6410TIP3    H143425   4.669   5.563   9.148  1.1239 -1.2149  0.5657
 6410TIP3    H243426   4.727   5.685   9.216 -0.3049 -0.1409 -0.0815
 6411TIP3   OH243427   3.332   0.686   6.700 -0.3686 -0.5886  0.4560
 6411TIP3    H143428   3.342   0.612   6.640 -1.2724  0.1841 -0.7046
 6411TIP3    H243429   3.419   0.700   6.737 -0.1192 -2.0185  0.4597
 6412TIP3   OH243430   2.741   0.276   8.715  0.9753  0.5601  0.0736
 6412TIP3    H143431   2.763   0.337   8.645 -1.3617 -0.8358 -2.0279
 6412TIP3    H243432   2.648   0.292   8.732  1.1886  0.0097  2.0334
 6413TIP3   OH243433   3.291   1.074   8.035 -0.1103  0.0404 -0.0199
 6413TIP3    H143434   3.281   1.033   7.949  2.1464  0.9444 -0.7818
 6413TIP3    H243435   3.244   1.157   8.028  0.2834  0.2256 -0.4645
 6414TIP3   OH243436   3.110   5.702   8.922  0.1998  0.0651  0.3652
 6414TIP3    H143437   3.184   5.643   8.907 -1.9779 -2.8204  0.2452
 6414TIP3    H243438   3.113   5.720   9.016 -1.2022 -3.4820  1.2312
 6415TIP3   OH243439   1.800   6.733   7.065  0.2859 -0.0628  0.1502
 6415TIP3    H143440   1.817   6.826   7.047 -0.6883  0.2402  0.7502
 6415TIP3    H243441   1.707   6.722   7.049  0.6038 -1.2350 -1.1238
 6416TIP3   OH243442   1.355   4.652   6.167  0.6831 -0.4441  0.5492
 6416TIP3    H143443   1.315   4.566   6.152  0.0993 -0.1625  0.4738
 6416TIP3    H243444   1.447   4.640   6.144  0.5823 -1.0188  0.4301
 6417TIP3   OH243445   2.511   5.915   8.192  0.5138  0.3703  0.4875
 6417TIP3    H143446   2.417   5.921   8.211 -0.4752  1.6105 -3.6396
 6417TIP3    H243447   2.518   5.843   8.130  2.2905  0.4211  0.5959
 6418TIP3   OH243448   5.782   4.381   7.872 -0.3820 -0.2701 -0.5712
 6418TIP3    H143449   5.772   4.356   7.964  1.2727 -1.7599 -0.7368
 6418TIP3    H243450   5.694   4.409   7.845 -1.6010 -2.5388  0.7082
 6419TIP3   OH243451   3.549   2.030   7.681  0.3297 -0.4700  0.0738
 6419TIP3    H143452   3.506   1.984   7.752 -0.4864  0.9276  0.5342
 6419TIP3    H243453   3.640   2.039   7.709  0.0875 -0.2295  0.7986
 6420TIP3   OH243454   2.532   4.406   7.037 -0.0950 -0.2483 -0.3164
 6420TIP3    H143455   2.534   4.494   7.074  1.6681 -0.3941  0.0127
 6420TIP3    H243456   2.499   4.351   7.108  0.7012 -0.1236  0.1687
 6421TIP3   OH243457   2.901   2.511   6.782 -0.1195  0.4020  0.4555
 6421TIP3    H143458   2.906   2.532   6.875  0.7733  1.1223  0.2593
 6421TIP3    H243459   2.961   2.573   6.740 -0.1307 -0.2378 -0.5448
 6422TIP3   OH243460   4.112   6.223   6.916  0.7686  0.1198 -0.3192
 6422TIP3    H143461   4.162   6.143   6.897  0.3679 -0.1160 -0.4011
 6422TIP3    H243462   4.033   6.192   6.959 -0.8587  0.1482 -3.0707
 6423TIP3   OH243463   1.842   2.634   8.340 -0.3922  0.3889 -0.6623
 6423TIP3    H143464   1.774   2.695   8.311 -0.3779  2.0659  2.4204
 6423TIP3    H243465   1.843   2.644   8.435  2.9543 -0.9487 -0.4513
 6424TIP3   OH243466   2.345   1.216   5.695  0.2407  0.1056 -0.3518
 6424TIP3    H143467   2.274   1.173   5.742 -0.8058 -1.0684 -2.7780
 6424TIP3    H243468   2.308   1.300   5.666 -0.4145 -0.6824 -1.9720
 6425TIP3   OH243469   4.709   1.441   6.085  0.4074  0.4023 -0.3502
 6425TIP3    H143470   4.729   1.533   6.064  0.0511  0.2698 -1.2762
 6425TIP3    H243471   4.744   1.430   6.174  1.6573  1.0607 -0.7305
 6426TIP3   OH243472   3.811   0.703   7.396 -0.3555 -0.1881 -0.1230
 6426TIP3    H143473   3.843   0.662   7.316 -1.3180 -1.4895  0.1246
 6426TIP3    H243474   3.749   0.769   7.366  1.5162  1.4665 -0.5443
 6427TIP3   OH243475   4.394   2.600   8.944  0.5340  0.1782 -0.1542
 6427TIP3    H143476   4.308   2.570   8.971  0.3218  0.4675 -0.4943
 6427TIP3    H243477   4.409   2.558   8.859  0.6455  0.2728 -0.1830
 6428TIP3   OH243478   1.716   2.910   6.378 -0.2100 -0.0559 -0.1228
 6428TIP3    H143479   1.761   2.844   6.431 -1.4637 -1.8452 -1.1847
 6428TIP3    H243480   1.770   2.920   6.300  0.6046  1.1270  0.5520
 6429TIP3   OH243481   2.256   1.741   6.991  0.7726 -0.4850  0.4658
 6429TIP3    H143482   2.174   1.704   6.958 -0.2643 -0.2487  2.5799
 6429TIP3    H243483   2.239   1.835   6.998  1.5795 -0.2966  0.0218
 6430TIP3   OH243484   3.080   4.551   5.751  0.1640  0.0554  0.0940
 6430TIP3    H143485   3.002   4.600   5.774  0.3600 -0.0687  1.0476
 6430TIP3    H243486   3.077   4.544   5.655 -1.3286 -0.5375  0.1696
 6431TIP3   OH243487   3.961   5.884   6.772 -0.5170  0.1697  0.2417
 6431TIP3    H143488   3.938   5.793   6.792  0.2967 -0.8899 -3.0299
 6431TIP3    H243489   4.006   5.879   6.688  0.9761  3.4669  0.7066
 6432TIP3   OH243490   4.937   0.699   5.748 -0.5060  0.1095  0.5288
 6432TIP3    H143491   5.007   0.733   5.805  0.3796 -0.3554 -0.2459
 6432TIP3    H243492   4.884   0.775   5.726  0.3513  0.6645  0.3250
 6433TIP3   OH243493   2.518   6.755   6.891  0.6199  0.2482 -0.0778
 6433TIP3    H143494   2.613   6.741   6.893  0.2817 -2.8270 -0.4250
 6433TIP3    H243495   2.497   6.762   6.798  0.5303  1.2893  0.0143
 6434TIP3   OH243496   3.814   0.443   7.508 -0.0223  0.5708  0.4324
 6434TIP3    H143497   3.830   0.388   7.431  1.9478  1.0343  0.4502
 6434TIP3    H243498   3.801   0.531   7.473  1.5508  0.9080  0.6135
 6435TIP3   OH243499   5.089   3.626   7.811 -0.1516  0.1387  0.2249
 6435TIP3    H143500   5.182   3.612   7.790  0.1322  0.0519  1.4710
 6435TIP3    H243501   5.090   3.692   7.881 -0.9315 -1.0173  1.3688
 6436TIP3   OH243502   3.079   5.268   7.431  0.1671  0.4338 -0.2138
 6436TIP3    H143503   3.072   5.208   7.356 -0.0988 -1.2496  1.1051
 6436TIP3    H243504   2.996   5.315   7.432  0.5463  1.1726 -1.5257
 6437TIP3   OH243505   5.858   2.108   7.575  0.6064 -0.2040 -0.2524
 6437TIP3    H143506   5.940   2.076   7.538  0.2115 -2.1887  0.4230
 6437TIP3    H243507   5.884   2.164   7.648  1.3426  0.7725 -1.2305
 6438TIP3   OH243508   4.743   2.482   7.602  0.1636 -0.0259 -0.1703
 6438TIP3    H143509   4.816   2.423   7.581  0.0815 -0.1612 -0.0755
 6438TIP3    H243510   4.665   2.427   7.593  0.1794 -0.3866  1.5256
 6439TIP3   OH243511   0.224   2.100   8.144  0.3337 -0.1297  0.2405
 6439TIP3    H143512   0.249   2.136   8.229  1.5865  0.1933 -0.2438
 6439TIP3    H243513   0.300   2.116   8.087 -0.0404 -1.3139 -0.6501
 6440TIP3   OH243514   3.660   3.765   5.799  0.2044  0.4145  0.3044
 6440TIP3    H143515   3.620   3.689   5.758 -0.3417  2.2096 -2.8168
 6440TIP3    H243516   3.602   3.838   5.776  2.3481  2.2529  0.4053
 6441TIP3   OH243517   0.930   2.101   7.449  0.0685  0.5178 -0.0792
 6441TIP3    H143518   0.922   2.040   7.376 -2.8306 -0.3599  0.8464
 6441TIP3    H243519   0.970   2.049   7.519  1.5780  0.9695 -0.5751
 6442TIP3   OH243520   3.714   4.327   9.064 -0.6010 -0.4269  0.3148
 6442TIP3    H143521   3.736   4.311   9.156  1.4119  2.8950  0.6063
 6442TIP3    H243522   3.657   4.404   9.067  0.3493  0.3806 -1.2087
 6443TIP3   OH243523   0.181   4.505   8.724  0.3304  0.3843 -0.2071
 6443TIP3    H143524   0.129   4.425   8.716 -4.7572  3.2784  0.0598
 6443TIP3    H243525   0.168   4.534   8.814  3.3717  0.8930  0.1734
 6444TIP3   OH243526   4.038   2.151   7.027  0.5250  0.0821 -0.6448
 6444TIP3    H143527   4.086   2.189   6.953  0.5652  1.2693 -0.0407
 6444TIP3    H243528   4.103   2.141   7.096  0.1991  0.3534 -0.2909
 6445TIP3   OH243529   3.089   0.052   8.821  0.5228 -0.4042 -0.1540
 6445TIP3    H143530   3.017   0.037   8.882  0.8520 -1.5504 -0.0337
 6445TIP3    H243531   3.127  -0.034   8.806  1.4033  0.0762 -0.7995
 6446TIP3   OH243532   3.420   6.162   7.941 -0.4944 -0.0496  0.2718
 6446TIP3    H143533   3.412   6.204   7.855  0.8483 -0.1495  0.0725
 6446TIP3    H243534   3.497   6.105   7.932 -1.6114 -1.7319  0.8651
 6447TIP3   OH243535   3.110   5.247   7.706 -0.0051  0.3403  0.5838
 6447TIP3    H143536   3.070   5.161   7.715 -0.7587  0.7888  1.6913
 6447TIP3    H243537   3.112   5.263   7.612 -0.2326 -0.7043  0.3914
 6448TIP3   OH243538   4.022   6.047   6.128  0.1257 -0.1623 -0.3885
 6448TIP3    H143539   4.109   6.062   6.092 -0.1505 -3.7265 -3.0839
 6448TIP3    H243540   3.971   6.124   6.101  1.3114 -0.2339 -3.0462
 6449TIP3   OH243541   0.077   0.015   5.995  0.1195  0.0031  0.3924
 6449TIP3    H143542   0.086   0.065   6.077 -2.2788 -0.4249  0.9859
 6449TIP3    H243543   0.112  -0.071   6.016 -0.2339 -0.0240  0.8936
 6450TIP3   OH243544   6.372   3.866   8.136 -0.6287  0.0239  0.4114
 6450TIP3    H143545   6.328   3.793   8.092 -1.1968  0.7326 -0.2117
 6450TIP3    H243546   6.459   3.832   8.157 -0.1600 -0.2090 -1.6826
 6451TIP3   OH243547   1.791   4.984   8.211  0.3316  0.4804  0.2586
 6451TIP3    H143548   1.865   5.040   8.189  1.1169 -0.4220  0.5410
 6451TIP3    H243549   1.788   4.920   8.141 -1.6171  1.8129 -0.9918
 6452TIP3   OH243550   5.240   3.468   8.429  0.6295  0.1144 -0.3644
 6452TIP3    H143551   5.241   3.463   8.524 -0.5377  1.6297 -0.2211
 6452TIP3    H243552   5.207   3.556   8.410 -0.8215 -0.7381 -2.1545
 6453TIP3   OH243553   0.067   1.784   7.734  0.4847  0.0698 -0.1689
 6453TIP3    H143554   0.114   1.744   7.806  0.2209  1.0173  0.5524
 6453TIP3    H243555   0.019   1.712   7.693  1.9079 -0.7603 -0.4248
 6454TIP3   OH243556   0.448   1.260   6.284 -0.3369 -0.2899  0.1211
 6454TIP3    H143557   0.440   1.190   6.219 -0.6580 -0.7386  0.6318
 6454TIP3    H243558   0.392   1.330   6.251 -0.0516 -0.2872 -0.3712
 6455TIP3   OH243559   2.043   5.167   9.218 -0.2900  0.0648  0.3898
 6455TIP3    H143560   2.018   5.251   9.180 -1.7720 -0.7476 -0.5043
 6455TIP3    H243561   2.100   5.126   9.153 -0.5796 -0.1392  0.2596
 6456TIP3   OH243562   5.627   4.969   7.516 -0.0798  0.8224 -0.4071
 6456TIP3    H143563   5.714   4.952   7.481  0.1753 -1.2733  1.0867
 6456TIP3    H243564   5.567   4.941   7.446  0.4484 -0.7799 -0.2650
 6457TIP3   OH243565   4.204   0.420   6.224  0.1645  0.0271  0.7838
 6457TIP3    H143566   4.138   0.483   6.195 -0.4351 -0.1591  1.7063
 6457TIP3    H243567   4.264   0.413   6.151 -0.1022  1.2146  0.4371
 6458TIP3   OH243568   4.823   4.118   5.585  0.3468  0.3651  0.3198
 6458TIP3    H143569   4.733   4.142   5.604  0.2832  0.4203 -0.0527
 6458TIP3    H243570   4.873   4.199   5.599  0.3100  0.3896  0.3082
 6459TIP3   OH243571   5.467   6.224   7.163  0.3203  0.2668 -0.0192
 6459TIP3    H143572   5.388   6.277   7.169  1.4488  1.8871  1.4751
 6459TIP3    H243573   5.514   6.241   7.245  3.2706  1.0745 -1.7344
 6460TIP3   OH243574   4.899   6.455   8.500  0.0750 -0.0520  0.4789
 6460TIP3    H143575   4.983   6.459   8.454 -0.4459 -1.9946 -0.7572
 6460TIP3    H243576   4.919   6.411   8.582  0.0762 -2.1051 -0.5371
 6461TIP3   OH243577   2.059   4.340   8.109  0.7227 -0.1115 -0.1275
 6461TIP3    H143578   2.141   4.291   8.112 -0.3563 -1.9527  1.5095
 6461TIP3    H243579   2.010   4.302   8.037  0.6481 -0.1571 -0.0536
 6462TIP3   OH243580   0.603   6.108   6.301 -0.0481 -0.2454 -0.2713
 6462TIP3    H143581   0.517   6.068   6.317 -0.4516 -0.3633 -2.3378
 6462TIP3    H243582   0.583   6.201   6.289 -0.1616 -0.4673 -2.1535
 6463TIP3   OH243583   3.938   6.594   6.130 -0.3594  0.4047 -0.4053
 6463TIP3    H143584   3.861   6.539   6.112 -0.5733  0.6708 -0.3156
 6463TIP3    H243585   3.990   6.543   6.192  0.1887 -0.3457 -1.4503
 6464TIP3   OH243586   0.320   6.034   7.752  0.1046  0.4735  0.1982
 6464TIP3    H143587   0.279   6.057   7.669 -0.1445 -2.1522 -0.5227
 6464TIP3    H243588   0.253   5.983   7.798  1.1111 -0.2909  0.8669
 6465TIP3   OH243589   0.146   3.225   7.152  0.4591 -0.1460 -0.4444
 6465TIP3    H143590   0.189   3.308   7.131 -0.6635  0.3919 -0.6694
 6465TIP3    H243591   0.211   3.177   7.203  1.2241  0.7575 -0.5404
 6466TIP3   OH243592   3.090   4.273   5.525 -0.9583 -0.2988  0.3161
 6466TIP3    H143593   3.153   4.251   5.594 -0.7791  0.5155  0.4261
 6466TIP3    H243594   3.092   4.198   5.465  0.6396  0.0013 -0.0520
 6467TIP3   OH243595   4.959   5.300   6.769 -0.2376  0.1206  0.6744
 6467TIP3    H143596   4.966   5.213   6.809  2.9246 -0.3187 -0.5337
 6467TIP3    H243597   5.019   5.355   6.820  0.6285  0.6030 -0.7997
 6468TIP3   OH243598   5.026   1.827   7.555 -0.1406 -0.4717  0.1655
 6468TIP3    H143599   4.964   1.794   7.621  0.5305 -1.8790  0.1244
 6468TIP3    H243600   5.095   1.761   7.553 -0.7502 -1.1524 -2.8328
 6469TIP3   OH243601   0.821   6.687   7.777 -0.0987  0.1819 -0.0719
 6469TIP3    H143602   0.852   6.777   7.778 -0.6278  0.3602  1.2104
 6469TIP3    H243603   0.730   6.692   7.805 -0.0538 -0.7745  0.2866
 6470TIP3   OH243604   5.213   3.357   6.982  0.1070  0.1448 -0.0818
 6470TIP3    H143605   5.148   3.381   7.048 -1.0840  0.3409 -1.2857
 6470TIP3    H243606   5.163   3.309   6.916  0.5105  2.9413 -2.6038
 6471TIP3   OH243607   5.304   0.215   6.006  0.4974 -0.8792 -0.0126
 6471TIP3    H143608   5.271   0.288   5.954 -0.0727 -1.8590 -1.0670
 6471TIP3    H243609   5.313   0.251   6.095  1.1217  0.7190 -0.6828
 6472TIP3   OH243610   6.364   0.747   7.149 -0.4331  0.4453 -0.0340
 6472TIP3    H143611   6.297   0.810   7.121  1.1537  1.8831 -0.7557
 6472TIP3    H243612   6.444   0.798   7.155  0.6247 -1.2208  0.8632
 6473TIP3   OH243613   2.249   4.696   5.832 -0.3197  0.1468 -0.6433
 6473TIP3    H143614   2.258   4.785   5.866  0.3641 -0.1641  0.0138
 6473TIP3    H243615   2.158   4.673   5.849 -1.1506  1.4966 -2.8002
 6474TIP3   OH243616   6.647   0.066   6.273 -0.2382  0.4647  0.8822
 6474TIP3    H143617   6.600   0.034   6.350  2.5915 -0.1425  2.4989
 6474TIP3    H243618   6.718   0.120   6.309  1.5819 -0.3896 -1.2159
 6475TIP3   OH243619   5.819   5.462   7.120 -0.0414  0.0387 -0.1464
 6475TIP3    H143620   5.779   5.498   7.041 -1.2416  0.1124  0.4664
 6475TIP3    H243621   5.792   5.370   7.119  0.5908 -0.1486 -0.2130
 6476TIP3   OH243622   4.305   0.003   7.515 -0.6339  0.1079  0.4087
 6476TIP3    H143623   4.362  -0.026   7.586 -0.6946  0.3873  0.5721
 6476TIP3    H243624   4.233  -0.059   7.516 -0.4657 -0.0891  0.3739
 6477TIP3   OH243625   6.527   4.094   6.272 -0.0853  0.3153  0.4264
 6477TIP3    H143626   6.462   4.035   6.233 -0.6831  0.7887  0.6908
 6477TIP3    H243627   6.612   4.054   6.250 -0.3957  0.5057 -1.2349
 6478TIP3   OH243628   3.080   4.554   9.160  0.3386  0.4069 -0.3787
 6478TIP3    H143629   3.032   4.540   9.241  1.0202 -1.9705 -0.2852
 6478TIP3    H243630   3.171   4.536   9.183  0.4737 -0.9014 -1.7490
 6479TIP3   OH243631   2.452   1.264   6.036  0.2368  0.0861  0.2985
 6479TIP3    H143632   2.503   1.183   6.031  0.0608 -0.0108  0.0498
 6479TIP3    H243633   2.495   1.315   6.104  2.8097  1.4813 -2.1680
 6480TIP3   OH243634   2.315   5.318   9.233  0.3918  0.3028 -0.0635
 6480TIP3    H143635   2.273   5.382   9.176 -1.0654 -2.1003 -1.8981
 6480TIP3    H243636   2.326   5.363   9.317 -0.0938  3.0416 -1.3754
 6481TIP3   OH243637   3.838   5.636   6.855  0.2148  0.8245  0.4704
 6481TIP3    H143638   3.814   5.614   6.945  0.9679  0.3735  0.5664
 6481TIP3    H243639   3.757   5.668   6.816 -0.3138  0.2288  1.0593
 6482TIP3   OH243640   6.540   4.360   6.337  0.1756  0.2655 -0.7559
 6482TIP3    H143641   6.540   4.266   6.320  2.5009 -0.6092  2.8462
 6482TIP3    H243642   6.466   4.373   6.396 -0.5810  0.8936 -1.8130
 6483TIP3   OH243643   6.577   0.996   7.328  0.2921  0.0821 -0.1208
 6483TIP3    H143644   6.651   1.049   7.358  0.7914 -1.1935  0.9957
 6483TIP3    H243645   6.610   0.906   7.326 -1.1146 -0.4764  0.0593
 6484TIP3   OH243646   1.638   0.639   6.705 -0.2134  0.3711 -0.3647
 6484TIP3    H143647   1.645   0.644   6.800 -0.8784 -2.0227 -0.1184
 6484TIP3    H243648   1.660   0.727   6.674  1.6309  0.7846  1.8831
 6485TIP3   OH243649   1.424   4.430   8.814  0.0600  0.7860  0.6313
 6485TIP3    H143650   1.475   4.371   8.869  1.9226  1.1735 -0.5752
 6485TIP3    H243651   1.346   4.449   8.865 -0.1009 -1.8359  1.5309
 6486TIP3   OH243652   3.744   1.775   5.938  0.3156  0.1305  0.0131
 6486TIP3    H143653   3.755   1.689   5.897  2.5646  0.1143  0.5192
 6486TIP3    H243654   3.833   1.803   5.958 -0.5304  1.2262  2.6628
 6487TIP3   OH243655   5.229   4.010   8.261 -0.0154  0.3598 -0.4184
 6487TIP3    H143656   5.318   3.984   8.240  0.0740 -0.4635  0.8521
 6487TIP3    H243657   5.232   4.106   8.265  0.5597  0.3918 -1.3856
 6488TIP3   OH243658   2.902   5.229   8.307 -0.0820  0.0307 -0.3481
 6488TIP3    H143659   2.895   5.148   8.358  0.8606  0.5708  0.6660
 6488TIP3    H243660   2.933   5.295   8.369 -2.5863  1.6720 -0.6611
 6489TIP3   OH243661   2.649   3.110   7.387  0.2503 -0.4022  0.4430
 6489TIP3    H143662   2.725   3.051   7.387 -0.5584 -1.6081 -2.3254
 6489TIP3    H243663   2.574   3.053   7.375 -0.6598  1.0716 -1.4210
 6490TIP3   OH243664   0.519   5.685   8.163 -0.2515  0.3583 -0.4981
 6490TIP3    H143665   0.455   5.675   8.092  0.4657  0.8501 -1.2291
 6490TIP3    H243666   0.551   5.597   8.180 -2.3796 -0.1785  1.0902
 6491TIP3   OH243667   0.280   5.115   6.005 -0.4026 -0.3545 -0.3827
 6491TIP3    H143668   0.315   5.201   5.981 -1.5694 -0.3329 -2.2129
 6491TIP3    H243669   0.351   5.054   5.983 -0.0623  0.0174 -0.3355
 6492TIP3   OH243670   3.743   2.960   8.211  0.1474 -0.0491 -0.2197
 6492TIP3    H143671   3.652   2.965   8.179 -0.1926  0.2939  0.7640
 6492TIP3    H243672   3.746   3.022   8.284  1.2614  0.1575 -0.4298
 6493TIP3   OH243673   0.143   0.644   6.272  0.4387  0.8188 -0.2113
 6493TIP3    H143674   0.115   0.728   6.236  2.1889  0.9443 -1.3738
 6493TIP3    H243675   0.161   0.589   6.196  2.3240  0.4415  0.4418
 6494TIP3   OH243676   1.891   1.871   5.788  0.2969 -0.0632 -0.1181
 6494TIP3    H143677   1.980   1.902   5.772  0.2853  0.3384  0.5224
 6494TIP3    H243678   1.903   1.785   5.829  0.3600 -0.4576 -0.9609
 6495TIP3   OH243679   6.239   1.171   7.742 -0.0410 -0.2424 -0.1748
 6495TIP3    H143680   6.184   1.103   7.704  2.1681 -2.3642  0.1652
 6495TIP3    H243681   6.291   1.203   7.668  2.0018 -2.1276  0.3278
 6496TIP3   OH243682   1.995   3.042   6.498 -0.3809  0.3570  0.0410
 6496TIP3    H143683   1.929   3.052   6.430 -0.4329 -0.4599 -0.0401
 6496TIP3    H243684   2.032   2.955   6.483 -0.1276  0.3207  0.8186
 6497TIP3   OH243685   2.231   6.106   6.036 -0.4852 -0.2974  0.4928
 6497TIP3    H143686   2.183   6.176   5.991  0.8263  1.1707  1.2781
 6497TIP3    H243687   2.323   6.129   6.024  0.1314 -3.2160 -1.2677
 6498TIP3   OH243688   1.695   6.712   6.117  0.4087 -0.3182 -0.8000
 6498TIP3    H143689   1.780   6.731   6.157 -0.5547  1.4267  0.6080
 6498TIP3    H243690   1.642   6.790   6.136 -1.0767 -0.7259 -2.9126
 6499TIP3   OH243691   5.102   5.359   5.850  0.5763  0.6389 -0.4317
 6499TIP3    H143692   5.141   5.425   5.792  0.7610  1.0910  0.1930
 6499TIP3    H243693   5.169   5.291   5.856  0.2015  0.1744 -1.4397
 6500TIP3   OH243694   1.048   4.570   6.119  0.8192  0.1686  0.2870
 6500TIP3    H143695   1.069   4.497   6.176  0.8439 -1.9827 -2.2693
 6500TIP3    H243696   1.125   4.580   6.063  0.1578  1.0283 -0.5015
 6501TIP3   OH243697   0.714   5.504   6.879 -0.1600  0.1555  0.4093
 6501TIP3    H143698   0.767   5.515   6.800 -0.1584  1.4578  0.5707
 6501TIP3    H243699   0.624   5.508   6.848 -0.1822 -1.0877  0.2638
 6502TIP3   OH243700   0.317   0.861   8.409  0.2391 -0.0189 -0.8123
 6502TIP3    H143701   0.240   0.812   8.438  0.9147 -0.3403  0.5639
 6502TIP3    H243702   0.384   0.839   8.474  0.7511  2.2518 -0.5021
 6503TIP3   OH243703   3.335   5.252   6.330  0.3566  0.1930 -0.5293
 6503TIP3    H143704   3.380   5.333   6.356  0.4061 -0.1563  0.5670
 6503TIP3    H243705   3.318   5.262   6.237 -0.5859  1.9161 -0.2106
 6504TIP3   OH243706   6.703   2.757   7.075  0.3398  0.4297 -0.0174
 6504TIP3    H143707   6.710   2.680   7.019  1.4732 -0.7339  1.6523
 6504TIP3    H243708   6.609   2.765   7.093  0.3084 -1.2239  0.6606
 6505TIP3   OH243709   0.259   6.035   8.155  0.0409 -1.2277  0.2836
 6505TIP3    H143710   0.261   6.073   8.243  1.4352  3.3888 -1.4546
 6505TIP3    H243711   0.351   6.025   8.130 -0.2794 -0.7929 -1.2138
 6506TIP3   OH243712   1.010   5.122   7.750  0.0384  0.0520  0.2641
 6506TIP3    H143713   0.994   5.183   7.822 -0.7186 -0.4066  0.5011
 6506TIP3    H243714   0.923   5.088   7.728  0.1819  0.6122 -1.2512
 6507TIP3   OH243715   3.944   2.472   5.799  0.4232 -0.2883  0.7375
 6507TIP3    H143716   3.930   2.556   5.755 -0.8976 -0.4901  0.7372
 6507TIP3    H243717   3.989   2.495   5.881 -1.7542  0.7036  1.7478
 6508TIP3   OH243718   4.298   5.777   8.259 -0.0454  0.4128 -0.2349
 6508TIP3    H143719   4.381   5.807   8.222  0.2839  3.1486  2.3329
 6508TIP3    H243720   4.254   5.858   8.288 -1.1166 -1.2502  3.3659
 6509TIP3   OH243721   1.861   2.613   7.761  0.4843 -0.4041  0.3567
 6509TIP3    H143722   1.789   2.553   7.739  0.2992  0.4033 -1.4478
 6509TIP3    H243723   1.891   2.584   7.847 -0.7905 -1.9248  0.3384
 6510TIP3   OH243724   2.636   3.047   7.947  0.2584  0.5113  0.1396
 6510TIP3    H143725   2.708   3.011   7.896  1.5792  1.3838  1.3054
 6510TIP3    H243726   2.650   3.141   7.946 -0.6788  0.6766  0.6719
 6511TIP3   OH243727   6.227   6.365   7.292  0.2039 -0.1157  0.2887
 6511TIP3    H143728   6.166   6.384   7.363 -0.4805  0.3032 -0.4001
 6511TIP3    H243729   6.203   6.277   7.263 -1.2288  0.6937 -1.1050
 6512TIP3   OH243730   3.343   4.350   6.231 -0.0640 -0.4189  0.1826
 6512TIP3    H143731   3.288   4.390   6.298  0.9476  0.0618  0.7469
 6512TIP3    H243732   3.377   4.423   6.180  2.2224 -0.3969  1.5501
 6513TIP3   OH243733   1.373   4.233   5.900 -0.7178  0.4667 -0.4504
 6513TIP3    H143734   1.460   4.266   5.876 -0.0420 -0.6569  0.3556
 6513TIP3    H243735   1.329   4.222   5.816 -0.2691  1.5201 -0.8461
 6514TIP3   OH243736   1.630   4.313   5.868 -0.0130 -0.2821 -0.2494
 6514TIP3    H143737   1.649   4.287   5.958  3.0547 -1.6337 -1.1589
 6514TIP3    H243738   1.716   4.328   5.829 -1.2922  2.0167 -2.5291
 6515TIP3   OH243739   5.243   6.566   5.935  0.3050 -0.5415 -0.3389
 6515TIP3    H143740   5.243   6.490   5.993 -1.4796 -1.3186 -1.2808
 6515TIP3    H243741   5.191   6.631   5.982  2.3316  0.4078  0.7435
 6516TIP3   OH243742   1.551   1.008   7.698 -0.1594  0.1198  0.1282
 6516TIP3    H143743   1.531   1.043   7.785  0.5067  1.0585 -0.0770
 6516TIP3    H243744   1.593   0.923   7.715  0.4096  0.5195  0.7460
 6517TIP3   OH243745   4.671   5.917   5.875  0.5744 -0.8207 -0.2329
 6517TIP3    H143746   4.761   5.886   5.861  0.2067 -1.1872 -2.0243
 6517TIP3    H243747   4.676   6.012   5.859  0.5292 -0.9433 -1.0034
 6518TIP3   OH243748   4.676   1.620   7.365  0.0232  0.0069 -0.0507
 6518TIP3    H143749   4.588   1.657   7.375 -0.5739 -0.8989 -1.5914
 6518TIP3    H243750   4.707   1.656   7.282  1.2663  0.5763  0.6428
 6519TIP3   OH243751   1.453   4.967   6.153 -0.6154  0.1249 -0.0413
 6519TIP3    H143752   1.362   4.989   6.174 -0.4240  0.3726  0.5526
 6519TIP3    H243753   1.448   4.916   6.073 -1.1630  1.4552 -0.8820
 6520TIP3   OH243754   4.139   5.311   9.078  0.0272 -0.0656 -0.2688
 6520TIP3    H143755   4.088   5.388   9.104 -0.4524  0.1426 -1.7226
 6520TIP3    H243756   4.226   5.345   9.056 -0.6307  0.3840 -2.4689
 6521TIP3   OH243757   0.045   0.232   6.441  0.5885  0.4082  0.4632
 6521TIP3    H143758   0.014   0.323   6.451 -1.9799 -0.4776  1.4319
 6521TIP3    H243759   0.031   0.193   6.527  0.2957 -1.2770 -0.3048
 6522TIP3   OH243760   5.324   3.821   5.696  0.5656 -0.3703 -0.2031
 6522TIP3    H143761   5.279   3.805   5.613 -1.0469 -2.0340  0.9287
 6522TIP3    H243762   5.290   3.905   5.726  0.1005 -0.4279 -0.5590
 6523TIP3   OH243763   4.483   4.104   7.553 -0.1980 -0.0457 -0.7515
 6523TIP3    H143764   4.478   4.054   7.471  0.8540 -1.6720  0.1196
 6523TIP3    H243765   4.467   4.039   7.621  2.1489  0.5699  0.4852
 6524TIP3   OH243766   4.569   3.141   7.696  0.3414  0.5873  0.3113
 6524TIP3    H143767   4.612   3.222   7.667  1.8380 -0.3738 -0.2735
 6524TIP3    H243768   4.575   3.083   7.620  1.6727 -0.9675  1.5401
 6525TIP3   OH243769   4.406   5.619   9.208  0.0346  0.2174  0.1597
 6525TIP3    H143770   4.457   5.593   9.284  0.3801 -2.3195 -0.8317
 6525TIP3    H243771   4.439   5.705   9.184  0.2981  0.8246  2.4984
 6526TIP3   OH243772   6.518   6.325   7.210  0.3468  0.5672 -0.6687
 6526TIP3    H143773   6.446   6.381   7.238  0.0088  1.0857 -2.4689
 6526TIP3    H243774   6.586   6.386   7.181  0.5879  0.0664 -1.1825
 6527TIP3   OH243775   2.531   5.585   9.332  0.2340  0.1427 -0.6389
 6527TIP3    H143776   2.502   5.563   9.421  1.4788 -2.9208 -0.8832
 6527TIP3    H243777   2.485   5.667   9.312 -0.2565  0.8548  2.7115
 6528TIP3   OH243778   5.543   6.533   9.250 -0.7077  0.1053  0.1239
 6528TIP3    H143779   5.590   6.486   9.319 -0.3247  0.2594 -0.0308
 6528TIP3    H243780   5.479   6.587   9.297 -0.3859  0.2809  0.3631
 6529TIP3   OH243781   3.764   5.416   8.117 -0.5173 -0.2479 -0.0724
 6529TIP3    H143782   3.826   5.366   8.171 -0.6379 -0.2329  0.0770
 6529TIP3    H243783   3.701   5.351   8.087 -1.0792 -0.0623  0.6928
 6530TIP3   OH243784   6.598   3.387   8.638 -0.2198 -0.4104 -0.0846
 6530TIP3    H143785   6.678   3.420   8.598  0.2242  0.8353  1.7249
 6530TIP3    H243786   6.574   3.453   8.703 -0.4618 -2.6328  2.2560
 6531TIP3   OH243787   4.616   3.230   8.681  0.2812  0.5741 -0.3006
 6531TIP3    H143788   4.610   3.258   8.772  2.2523  2.2057 -0.6061
 6531TIP3    H243789   4.525   3.223   8.652 -0.3773  0.2851  1.6908
 6532TIP3   OH243790   2.896   5.600   6.579 -0.1663  0.1712  0.0285
 6532TIP3    H143791   2.828   5.599   6.511  0.6138 -1.2414 -0.7876
 6532TIP3    H243792   2.975   5.628   6.533  0.3463 -0.6915  0.3678
 6533TIP3   OH243793   0.482   6.005   7.017  0.0897 -0.1425  0.5787
 6533TIP3    H143794   0.557   6.030   6.962 -1.1162 -0.3158 -1.2073
 6533TIP3    H243795   0.502   5.915   7.045  0.0905 -0.5849 -0.7678
 6534TIP3   OH243796   0.438   4.830   8.713  0.2488  0.6490  0.0530
 6534TIP3    H143797   0.411   4.906   8.764  0.0920  0.1950  0.6612
 6534TIP3    H243798   0.462   4.764   8.778  0.7323  0.2965 -0.4638
 6535TIP3   OH243799   3.681   4.616   8.851  0.1237 -0.0912  0.4295
 6535TIP3    H143800   3.738   4.688   8.826 -1.3642  1.0058  0.0332
 6535TIP3    H243801   3.664   4.630   8.944 -0.0308 -0.0272  0.3916
 6536TIP3   OH243802   2.879   3.514   6.348  0.4329 -0.0141 -0.4043
 6536TIP3    H143803   2.800   3.563   6.372 -0.7563 -0.9178 -2.2129
 6536TIP3    H243804   2.951   3.576   6.363 -0.7384  1.2886  0.0916
 6537TIP3   OH243805   2.089   5.788   7.046  0.0576 -0.7664  0.0318
 6537TIP3    H143806   2.018   5.829   6.996 -0.6551 -0.8045  0.9733
 6537TIP3    H243807   2.046   5.757   7.125  1.3540  0.3069  1.2090
 6538TIP3   OH243808   0.244   3.712   7.638 -0.3962  0.3888 -0.6565
 6538TIP3    H143809   0.278   3.641   7.584  0.3610 -1.0422  1.5428
 6538TIP3    H243810   0.150   3.693   7.646  0.2523 -2.6121  2.6976
 6539TIP3   OH243811   4.170   6.088   7.284  0.0241 -0.4497  0.0150
 6539TIP3    H143812   4.237   6.044   7.335 -0.2467  0.4841  1.2436
 6539TIP3    H243813   4.112   6.018   7.254  0.8128 -1.1255  0.0256
 6540TIP3   OH243814   1.056   2.367   6.169  0.3777 -0.2393  0.0120
 6540TIP3    H143815   1.059   2.378   6.264  0.7588 -1.6818  0.1856
 6540TIP3    H243816   1.136   2.407   6.137  0.1312  0.4706  0.2642
 6541TIP3   OH243817   3.364   1.881   9.006 -0.5720  0.0432 -0.1229
 6541TIP3    H143818   3.392   1.949   8.944  1.9207  0.2757  1.1559
 6541TIP3    H243819   3.311   1.929   9.070 -0.1711  0.4842 -0.1127
 6542TIP3   OH243820   4.602   4.805   7.836 -0.0479  0.1502  0.0825
 6542TIP3    H143821   4.543   4.820   7.910 -0.7291 -0.2537 -0.3612
 6542TIP3    H243822   4.594   4.711   7.817  1.7189 -0.1891  0.8044
 6543TIP3   OH243823   4.062   2.477   7.952  0.0618 -0.4677  0.3392
 6543TIP3    H143824   4.111   2.446   7.876  0.3382  0.6852  0.0195
 6543TIP3    H243825   4.043   2.569   7.932 -2.2231 -0.8568  0.4599
 6544TIP3   OH243826   2.178   0.107   5.999  0.0154 -0.3268  0.5002
 6544TIP3    H143827   2.212   0.063   5.921  1.2933 -1.3573  1.6146
 6544TIP3    H243828   2.250   0.163   6.029  0.2102 -1.3085  1.9590
 6545TIP3   OH243829   1.927   1.928   8.628  0.3380  0.0233  0.0191
 6545TIP3    H143830   1.953   1.855   8.571  0.9357  0.5205 -0.3598
 6545TIP3    H243831   1.907   1.888   8.712 -2.4349 -1.0027 -1.0179
 6546TIP3   OH243832   3.685   2.634   7.811 -0.6503 -0.6200  0.3799
 6546TIP3    H143833   3.725   2.721   7.813  0.0307 -0.9285  0.4895
 6546TIP3    H243834   3.692   2.602   7.901  2.8027 -2.4067 -0.3577
 6547TIP3   OH243835   1.133   4.767   8.947  0.3169 -0.5230 -0.8169
 6547TIP3    H143836   1.047   4.759   8.905  0.7258 -0.5306 -1.6788
 6547TIP3    H243837   1.173   4.681   8.937  0.4590 -0.4946 -0.5001
 6548TIP3   OH243838   3.031   3.876   9.094 -0.3202  0.2069  0.2288
 6548TIP3    H143839   3.091   3.944   9.124  1.1763 -0.2772 -1.5031
 6548TIP3    H243840   3.006   3.829   9.174  0.4281  1.3514  1.1665
 6549TIP3   OH243841   3.451   3.313   5.728 -0.1979  0.0985 -0.6258
 6549TIP3    H143842   3.374   3.344   5.775 -0.3418 -0.4151 -0.5131
 6549TIP3    H243843   3.415   3.267   5.651 -0.0578 -1.0184 -0.0477
 6550TIP3   OH243844   2.498   4.527   8.730 -0.1771 -0.2085 -0.3834
 6550TIP3    H143845   2.475   4.452   8.785  1.2477  0.4366  1.2175
 6550TIP3    H243846   2.419   4.546   8.680 -1.4372 -1.1179  1.1585
 6551TIP3   OH243847   1.294   1.814   5.891 -0.0656 -0.1472 -0.6376
 6551TIP3    H143848   1.324   1.851   5.809  1.4298  0.7422  0.2616
 6551TIP3    H243849   1.374   1.796   5.940 -0.9334 -0.0783  0.8689
 6552TIP3   OH243850   0.142   0.207   6.174 -0.1449 -0.2210 -0.7250
 6552TIP3    H143851   0.160   0.197   6.267  3.5560 -1.7003 -1.4072
 6552TIP3    H243852   0.132   0.301   6.161  1.2918  0.2097  0.9125
 6553TIP3   OH243853   0.664   3.584   6.080  0.0638 -0.5908  0.0639
 6553TIP3    H143854   0.676   3.490   6.084 -0.8356 -0.7186  0.0522
 6553TIP3    H243855   0.629   3.608   6.166 -0.0077 -0.3115 -0.0402
 6554TIP3   OH243856   5.865   5.311   8.476  0.3603  0.4165  0.2130
 6554TIP3    H143857   5.919   5.248   8.524  1.4006  2.3725  1.7397
 6554TIP3    H243858   5.806   5.347   8.542 -0.9373  0.3143 -0.8596
 6555TIP3   OH243859   3.470   0.420   6.579 -0.7535 -0.1859  0.4858
 6555TIP3    H143860   3.516   0.391   6.658  0.1463  0.3132  0.1617
 6555TIP3    H243861   3.404   0.353   6.564  0.3265 -1.3146  0.5806
 6556TIP3   OH243862   4.515   3.574   8.380 -0.2598  0.0974  0.7196
 6556TIP3    H143863   4.423   3.588   8.400 -0.1251 -2.0172  3.3953
 6556TIP3    H243864   4.520   3.483   8.352  0.7096  0.9701 -2.3884
 6557TIP3   OH243865   2.516   3.498   6.878  0.0807 -0.1569  0.2192
 6557TIP3    H143866   2.508   3.402   6.878  1.2984 -0.2732 -0.0676
 6557TIP3    H243867   2.588   3.515   6.939  0.2789  0.5405 -0.2096
 6558TIP3   OH243868   1.034   0.516   7.762  0.4782  0.0123 -0.1237
 6558TIP3    H143869   1.010   0.475   7.846  2.2858  0.0661  0.4589
 6558TIP3    H243870   1.118   0.558   7.779  0.7934  0.1837 -1.9268
 6559TIP3   OH243871   0.155   3.594   5.758  0.6494 -0.1952  0.2425
 6559TIP3    H143872   0.213   3.642   5.699  2.0721 -1.3804  0.6270
 6559TIP3    H243873   0.188   3.504   5.756 -0.7077 -0.7365  1.0858
 6560TIP3   OH243874   6.314   6.011   7.815 -0.1666 -0.7752 -0.2666
 6560TIP3    H143875   6.256   5.936   7.829  0.9442 -1.7515 -0.6905
 6560TIP3    H243876   6.309   6.028   7.721 -2.0673  1.1213  0.1005
 6561TIP3   OH243877   0.757   1.713   5.610  0.3394 -0.0716 -0.1443
 6561TIP3    H143878   0.741   1.703   5.704 -0.9768  1.4874 -0.1566
 6561TIP3    H243879   0.794   1.801   5.601 -2.1218  0.9142 -1.3227
 6562TIP3   OH243880   2.323   4.406   8.417 -0.5796 -0.5049  0.2465
 6562TIP3    H143881   2.292   4.316   8.407 -0.2627 -0.6336  0.4086
 6562TIP3    H243882   2.404   4.398   8.466 -0.6226 -0.1166  0.3854
 6563TIP3   OH243883   1.052   0.533   5.939  0.2713  0.0616  0.2184
 6563TIP3    H143884   1.136   0.578   5.954  1.3570 -1.0388 -2.0229
 6563TIP3    H243885   0.999   0.597   5.891  0.7907 -0.0777 -0.5599
 6564TIP3   OH243886   2.544   2.397   6.878  0.0892  0.4550 -0.1550
 6564TIP3    H143887   2.552   2.303   6.864 -0.1146  0.0513  2.0518
 6564TIP3    H243888   2.452   2.410   6.902  0.1915  1.1636 -0.1240
 6565TIP3   OH243889   1.800   5.136   5.776  0.3427  0.0973 -0.5352
 6565TIP3    H143890   1.851   5.160   5.853 -0.4247  1.1539 -0.3325
 6565TIP3    H243891   1.789   5.041   5.782 -2.1549  0.4014  2.2708
 6566TIP3   OH243892   0.355   3.784   5.502  0.4131 -0.6398  0.8745
 6566TIP3    H143893   0.329   3.864   5.547 -0.0307  0.0233 -0.4993
 6566TIP3    H243894   0.276   3.756   5.456  1.8280  1.2623 -3.1734
 6567TIP3   OH243895   0.764   0.929   5.930  0.7963 -0.4025 -0.5159
 6567TIP3    H143896   0.818   1.007   5.944 -0.5130  0.7799 -1.7465
 6567TIP3    H243897   0.674   0.959   5.940  0.2719 -2.6222  2.8451
 6568TIP3   OH243898   0.366   1.676   7.788  0.5342  0.2213  0.2825
 6568TIP3    H143899   0.347   1.672   7.694  0.6595 -0.5650  0.2751
 6568TIP3    H243900   0.409   1.760   7.801 -1.7047  1.4379  0.0864
 6569TIP3   OH243901   4.668   4.439   6.169  0.3029 -0.2770 -0.0299
 6569TIP3    H143902   4.595   4.440   6.231 -0.7243 -0.3458 -1.2209
 6569TIP3    H243903   4.729   4.375   6.206 -0.2960 -0.3481  0.8824
 6570TIP3   OH243904   2.716   4.410   6.497 -0.5604 -0.0036  0.1501
 6570TIP3    H143905   2.754   4.491   6.462 -0.5226 -1.0155 -2.3616
 6570TIP3    H243906   2.675   4.436   6.579 -0.9149  2.6559 -0.7875
 6571TIP3   OH243907   2.644   3.671   6.366  0.1011 -0.4152 -0.0671
 6571TIP3    H143908   2.596   3.613   6.307  1.5242 -0.0832 -1.6191
 6571TIP3    H243909   2.626   3.759   6.333  1.9214 -0.2971 -0.8595
 6572TIP3   OH243910   1.329   1.727   6.741 -0.0760  0.6274 -0.2427
 6572TIP3    H143911   1.383   1.790   6.693  0.5569 -0.7498 -1.4166
 6572TIP3    H243912   1.382   1.648   6.744 -2.0839 -0.8785 -1.7128
 6573TIP3   OH243913   6.121   2.329   8.666  0.2099 -0.3082  0.1450
 6573TIP3    H143914   6.160   2.328   8.579 -1.3433 -0.4153 -0.5846
 6573TIP3    H243915   6.027   2.337   8.650  0.0340  2.1848  1.8736
 6574TIP3   OH243916   5.702   3.426   5.729  0.5924  0.1082 -0.2293
 6574TIP3    H143917   5.688   3.519   5.713 -1.2132  0.0074  0.5651
 6574TIP3    H243918   5.732   3.421   5.819 -0.9581 -0.1739  0.2941
 6575TIP3   OH243919   3.397   3.262   7.114  0.0195  0.9776  0.1918
 6575TIP3    H143920   3.310   3.300   7.126  0.2521  1.3528  0.7513
 6575TIP3    H243921   3.410   3.262   7.019  0.7100  4.0183  0.1606
 6576TIP3   OH243922   6.074   5.412   6.328 -0.0410  0.3670  0.0513
 6576TIP3    H143923   5.979   5.402   6.319 -0.2513 -0.5412  2.4701
 6576TIP3    H243924   6.110   5.372   6.249 -1.6105 -1.7791  0.3274
 6577TIP3   OH243925   3.500   0.771   7.000  0.2490 -0.5499 -0.2886
 6577TIP3    H143926   3.428   0.832   7.008 -0.6326 -1.6093  0.0780
 6577TIP3    H243927   3.543   0.794   6.917 -0.8451 -0.2636 -0.7876
 6578TIP3   OH243928   3.759   4.101   8.169 -0.6144  0.3266 -0.0772
 6578TIP3    H143929   3.696   4.059   8.228  1.1266  1.2870  2.6671
 6578TIP3    H243930   3.733   4.193   8.167  0.0303  0.5263  0.2282
 6579TIP3   OH243931   4.906   4.373   7.841 -0.0171 -0.0394  0.0162
 6579TIP3    H143932   4.957   4.367   7.922  0.1382  0.0640 -0.0743
 6579TIP3    H243933   4.816   4.357   7.869  0.2298 -1.6853 -0.0264
 6580TIP3   OH243934   3.191   5.012   6.399  0.0915  0.2328  0.2344
 6580TIP3    H143935   3.215   4.923   6.374  1.4669  0.1729  1.6398
 6580TIP3    H243936   3.240   5.069   6.339 -1.1830  0.0958 -1.0072
 6581TIP3   OH243937   0.369   6.043   6.603 -0.1839  0.1143  0.2341
 6581TIP3    H143938   0.375   6.011   6.514 -1.3342  1.5177 -0.3947
 6581TIP3    H243939   0.440   5.999   6.650 -1.0104 -2.4569 -0.7638
 6582TIP3   OH243940   6.490   4.181   9.263 -0.0002 -0.2640  0.5360
 6582TIP3    H143941   6.560   4.193   9.199 -0.2330  4.7280  0.8743
 6582TIP3    H243942   6.413   4.161   9.211  0.4108  0.7061 -0.4664
 6583TIP3   OH243943   2.260   3.202   5.813  0.3022  0.0848  0.6345
 6583TIP3    H143944   2.168   3.226   5.825 -0.0079 -0.5441 -0.2950
 6583TIP3    H243945   2.292   3.263   5.747  0.3739 -0.0849  0.5110
 6584TIP3   OH243946   1.736   2.149   7.923 -0.3613  0.8529 -0.0990
 6584TIP3    H143947   1.825   2.175   7.946 -0.5310 -1.2464  3.6409
 6584TIP3    H243948   1.685   2.230   7.927  0.7761  1.5454  1.2541
 6585TIP3   OH243949   4.997   3.822   8.818 -0.2701  0.0203 -0.4078
 6585TIP3    H143950   5.037   3.889   8.762 -2.2227  1.5280 -0.1205
 6585TIP3    H243951   4.903   3.828   8.798 -0.5392 -2.6059 -0.2960
 6586TIP3   OH243952   5.865   5.083   9.011  0.3919  0.3903 -0.4626
 6586TIP3    H143953   5.835   5.165   8.972  0.2343  0.5357 -0.0507
 6586TIP3    H243954   5.786   5.044   9.049  0.0791 -0.9440 -2.3771
 6587TIP3   OH243955   5.554   6.423   8.309 -0.1568 -0.6385 -0.0656
 6587TIP3    H143956   5.484   6.441   8.246 -0.6449 -0.4690  0.5112
 6587TIP3    H243957   5.555   6.499   8.366 -0.1537 -1.0674  0.5146
 6588TIP3   OH243958   6.510   5.939   9.301  0.0797  1.2908  0.4049
 6588TIP3    H143959   6.441   5.959   9.237 -0.1695 -0.0538  0.2302
 6588TIP3    H243960   6.482   5.983   9.381 -1.2487  0.3571  0.4730
 6589TIP3   OH243961   3.523   1.812   6.132  0.6727 -0.3097  0.2188
 6589TIP3    H143962   3.514   1.904   6.107  0.0711 -0.1153  1.1071
 6589TIP3    H243963   3.589   1.778   6.072  1.9954  1.0695  0.7967
 6590TIP3   OH243964   1.771   6.566   5.712  0.6424  0.0767  0.9090
 6590TIP3    H143965   1.784   6.473   5.695  2.6967  0.4008  0.4821
 6590TIP3    H243966   1.838   6.610   5.659 -0.7708  1.8590  0.5043
 6591TIP3   OH243967   4.635   5.519   6.149 -0.2899 -0.7166  0.2018
 6591TIP3    H143968   4.623   5.612   6.130 -1.1336 -1.1296 -1.4491
 6591TIP3    H243969   4.713   5.516   6.205 -0.6673  1.0242  0.8879
 6592TIP3   OH243970   4.877   4.567   7.068 -0.2990 -0.2135 -0.4398
 6592TIP3    H143971   4.946   4.632   7.051 -0.0178 -0.6361 -0.9520
 6592TIP3    H243972   4.920   4.501   7.122 -0.1033 -0.7991 -1.2798
 6593TIP3   OH243973   6.557   6.732   5.861  0.3723 -0.4986  0.7397
 6593TIP3    H143974   6.528   6.813   5.904 -0.6003  0.4148 -1.4494
 6593TIP3    H243975   6.646   6.718   5.892 -0.2583  0.0624  2.9934
 6594TIP3   OH243976   5.028   6.115   6.865  0.1068 -0.1199 -0.6731
 6594TIP3    H143977   5.049   6.059   6.791 -0.0309  0.3056 -1.0344
 6594TIP3    H243978   4.988   6.056   6.929  2.5215 -1.0074  0.1121
 6595TIP3   OH243979   3.509   1.883   5.837 -0.3816  0.6597  0.4266
 6595TIP3    H143980   3.514   1.960   5.893  1.4313  1.9071 -1.3281
 6595TIP3    H243981   3.587   1.832   5.859  0.4794  1.2762 -1.0158
 6596TIP3   OH243982   3.837   0.898   7.867 -0.5448  0.6917 -0.3699
 6596TIP3    H143983   3.874   0.926   7.783  1.1220  3.3945  1.1197
 6596TIP3    H243984   3.779   0.971   7.892 -1.2403 -0.2023  0.7023
 6597TIP3   OH243985   3.052   3.137   5.643  1.1878 -0.7110 -0.4379
 6597TIP3    H143986   2.962   3.127   5.615  1.4938 -0.8659 -1.4067
 6597TIP3    H243987   3.049   3.203   5.712  0.4877  0.2037 -1.3200
 6598TIP3   OH243988   0.838   2.339   7.340 -0.1300 -0.0999  0.5591
 6598TIP3    H143989   0.917   2.387   7.364  0.9439 -1.0853 -0.8486
 6598TIP3    H243990   0.848   2.254   7.382 -1.1231  0.2190  1.4891
 6599TIP3   OH243991   1.350   1.815   8.064 -0.2300 -0.0788  0.0110
 6599TIP3    H143992   1.410   1.890   8.059 -2.5538  1.9416  0.4554
 6599TIP3    H243993   1.268   1.852   8.096 -1.8463 -2.6411 -0.8576
 6600TIP3   OH243994   2.279   5.520   6.991  0.2888 -0.4347  0.8546
 6600TIP3    H143995   2.285   5.598   6.934  0.8958 -0.5506  0.7494
 6600TIP3    H243996   2.187   5.493   6.985 -0.0285  0.5192  1.2207
 6601TIP3   OH243997   0.617   1.242   8.391 -0.3106  0.0077 -0.2714
 6601TIP3    H143998   0.533   1.195   8.393  0.6062 -1.7072  0.4295
 6601TIP3    H243999   0.593   1.332   8.371 -2.3497 -0.3751  0.1491
 6602TIP3   OH244000   2.178   1.071   7.976  0.0868 -0.0906  0.3637
 6602TIP3    H144001   2.179   0.982   8.010 -0.0686 -0.6020 -0.9039
 6602TIP3    H244002   2.233   1.067   7.897 -1.6145  0.3990 -0.9179
 6603TIP3   OH244003   0.965   0.592   8.098  0.7263 -0.0997  0.0881
 6603TIP3    H144004   0.921   0.635   8.171  0.8496  1.5920 -0.7816
 6603TIP3    H244005   0.895   0.574   8.035  0.9904  1.0905 -0.5852
 6604TIP3   OH244006   5.041   0.495   6.834  0.3159  0.3714 -0.7102
 6604TIP3    H144007   5.058   0.410   6.791  1.1140 -1.1020  2.2701
 6604TIP3    H244008   5.107   0.554   6.796  0.9302 -0.8026 -1.5516
 6605TIP3   OH244009   4.086   0.635   8.413  0.2153 -0.7904  0.0241
 6605TIP3    H144010   4.056   0.605   8.328  0.2601 -2.0590  0.4312
 6605TIP3    H244011   4.013   0.614   8.473  0.4998 -0.6411  0.4298
 6606TIP3   OH244012   0.617   4.401   5.762  0.0870 -0.1070  0.0073
 6606TIP3    H144013   0.661   4.458   5.700  0.0922  0.8842  0.9064
 6606TIP3    H244014   0.591   4.458   5.834  0.2827 -1.2745  1.0337
 6607TIP3   OH244015   4.631   5.649   6.514 -0.1346 -0.0031 -0.4281
 6607TIP3    H144016   4.577   5.579   6.478 -0.4306 -0.2072  0.3864
 6607TIP3    H244017   4.616   5.645   6.609  0.1557  0.9001 -0.3296
 6608TIP3   OH244018   5.127   5.711   7.028 -0.0953 -0.1972  0.2703
 6608TIP3    H144019   5.187   5.749   6.964 -0.0729 -1.9341 -0.7979
 6608TIP3    H244020   5.063   5.781   7.045  0.4172  0.6104 -0.9738
 6609TIP3   OH244021   0.475   6.168   7.430  0.6866  0.2556 -0.7487
 6609TIP3    H144022   0.408   6.173   7.362  0.9098  0.7908 -0.9350
 6609TIP3    H244023   0.555   6.202   7.388  1.0822 -0.4042 -0.5413
 6610TIP3   OH244024   5.659   1.210  16.649  0.3856 -0.2298 -0.0303
 6610TIP3    H144025   5.610   1.130  16.632 -0.9887  0.2029  1.5956
 6610TIP3    H244026   5.748   1.181  16.665 -0.0054 -1.3922  0.1445
 6611TIP3   OH244027   5.622   0.598   5.923  0.1339  0.1323  0.3769
 6611TIP3    H144028   5.605   0.543   5.999 -0.5680  0.1876  0.2692
 6611TIP3    H244029   5.580   0.551   5.850  2.6639 -1.0775 -0.4397
 6612TIP3   OH244030   6.228   6.744   6.483  0.0997  0.4334  0.7395
 6612TIP3    H144031   6.188   6.826   6.511 -0.3621  1.0159 -1.4121
 6612TIP3    H244032   6.161   6.702   6.430  1.6478  0.5632 -1.4477
 6613TIP3   OH244033   2.323   0.487   6.644 -0.5775  0.6763 -0.6088
 6613TIP3    H144034   2.328   0.438   6.726 -0.0822  0.3224 -0.8463
 6613TIP3    H244035   2.232   0.516   6.639 -1.3868 -1.7208 -1.3063
 6614TIP3   OH244036   4.830   5.569   5.683 -0.3591  0.0068 -0.1091
 6614TIP3    H144037   4.768   5.496   5.681 -1.2971  0.8061 -1.0161
 6614TIP3    H244038   4.914   5.529   5.658 -0.7913 -0.8052 -0.2986
 6615TIP3   OH244039   1.620   0.963   6.032 -0.2332 -0.8685  0.1159
 6615TIP3    H144040   1.614   0.967   5.937 -0.9616  0.1944  0.1825
 6615TIP3    H244041   1.617   1.055   6.060  2.8548 -0.9548  1.0471
 6616TIP3   OH244042   2.491   0.437   8.115  0.3258  0.1061  0.0723
 6616TIP3    H144043   2.502   0.407   8.206  1.1035 -1.0991 -0.3939
 6616TIP3    H244044   2.495   0.532   8.120 -2.0264  0.2236  1.6059
 6617TIP3   OH244045   2.158   6.012   7.438 -0.6333 -0.7814 -0.3341
 6617TIP3    H144046   2.093   5.961   7.486 -0.6590 -1.3752 -0.9923
 6617TIP3    H244047   2.194   5.951   7.374 -1.5165  0.3418 -1.9522
 6618TIP3   OH244048   1.457   5.524   6.301 -0.5978 -0.0999 -0.3458
 6618TIP3    H144049   1.473   5.567   6.217 -0.3535  1.2798  0.3615
 6618TIP3    H244050   1.372   5.480   6.290  0.2046 -1.3456 -1.8102
 6619TIP3   OH244051   4.626   0.392   7.287 -0.6672  0.1143 -0.0956
 6619TIP3    H144052   4.564   0.333   7.329 -1.2135  0.9898  0.3586
 6619TIP3    H244053   4.650   0.454   7.356  1.5136 -0.7918  0.0476
 6620TIP3   OH244054   2.993   5.372   8.513  0.5168  0.2932  0.3141
 6620TIP3    H144055   3.074   5.340   8.552  1.9615  2.0703 -1.0520
 6620TIP3    H244056   2.970   5.450   8.564  1.0830  1.2241 -0.7951
 6621TIP3   OH244057   0.929   4.223   7.396  0.4752 -0.1000  0.1683
 6621TIP3    H144058   0.846   4.260   7.428  0.1372 -0.2808 -0.4871
 6621TIP3    H244059   0.903   4.144   7.349  1.0716 -0.4360  0.3984
 6622TIP3   OH244060   5.129   5.865   5.914 -0.0314 -0.3595 -0.1162
 6622TIP3    H144061   5.086   5.912   5.985  0.9524  0.4655 -0.0339
 6622TIP3    H244062   5.214   5.908   5.906  1.3247 -2.7645  0.6000
 6623TIP3   OH244063   1.902   4.094   6.046  0.1068 -0.1997  0.1881
 6623TIP3    H144064   1.822   4.070   6.093 -0.8407 -0.2413 -1.3709
 6623TIP3    H244065   1.957   4.016   6.051 -0.8913 -0.9856 -0.6079
 6624TIP3   OH244066   4.859   0.746   7.161  0.2206  0.3832 -0.8746
 6624TIP3    H144067   4.879   0.778   7.249  0.6515 -2.4900  0.1749
 6624TIP3    H244068   4.944   0.744   7.116  0.1838  0.7190 -0.9633
 6625TIP3   OH244069   4.008   4.369   8.280  0.5430 -0.2702 -0.1376
 6625TIP3    H144070   4.030   4.277   8.294  0.4344 -0.8429 -3.1269
 6625TIP3    H244071   3.922   4.379   8.321  1.0027 -1.1813  1.1241
 6626TIP3   OH244072   3.828   1.611   8.013  0.5076 -0.5463 -0.4893
 6626TIP3    H144073   3.815   1.598   8.107 -3.3893 -0.4545 -0.8286
 6626TIP3    H244074   3.802   1.702   7.998 -1.5626 -1.2699 -1.8656
 6627TIP3   OH244075   3.502   0.034   8.187 -0.0046  0.3151  0.4168
 6627TIP3    H144076   3.497  -0.012   8.271  0.4469  2.2744  1.5682
 6627TIP3    H244077   3.440   0.105   8.194 -0.0890  0.4211 -1.0059
 6628TIP3   OH244078   6.210   1.465   6.179  0.1882  0.2414 -0.2366
 6628TIP3    H144079   6.166   1.396   6.129  0.3562  1.0189 -1.4980
 6628TIP3    H244080   6.172   1.458   6.266 -0.4560 -0.8621 -0.5750
 6629TIP3   OH244081   4.560   5.741   7.347 -0.2881 -0.4945 -0.9351
 6629TIP3    H144082   4.580   5.649   7.363  0.1387 -0.2634 -0.0965
 6629TIP3    H244083   4.609   5.788   7.414 -2.2707  0.2123  0.0753
 6630TIP3   OH244084   3.733   2.755   7.358  0.2319 -0.2769 -0.6044
 6630TIP3    H144085   3.789   2.705   7.418  0.7522 -0.3667 -1.1541
 6630TIP3    H244086   3.723   2.840   7.400 -1.5365 -1.1259  0.8747
 6631TIP3   OH244087   6.466   5.380   8.231 -0.0131  0.0576  0.1226
 6631TIP3    H144088   6.554   5.389   8.266  0.4390  0.2133 -1.0311
 6631TIP3    H244089   6.450   5.286   8.231  0.7713 -0.0948 -1.1198
 6632TIP3   OH244090   5.898   2.011   6.400  0.9360 -0.3730 -0.0076
 6632TIP3    H144091   5.870   2.081   6.340  1.9015 -1.1094 -1.3795
 6632TIP3    H244092   5.824   1.950   6.401  0.7265 -0.1252 -0.0830
 6633TIP3   OH244093   1.639   4.030   7.728  0.2283 -0.2388 -0.0715
 6633TIP3    H144094   1.554   3.987   7.737  0.0303 -0.1094 -1.1422
 6633TIP3    H244095   1.698   3.961   7.698  0.3753 -0.2011  0.1275
 6634TIP3   OH244096   4.682   1.958   7.635  0.5516  0.0491 -0.0220
 6634TIP3    H144097   4.619   2.002   7.577 -0.6105 -1.6192 -0.0973
 6634TIP3    H244098   4.660   1.989   7.722  1.2318  1.3129 -0.2756
 6635TIP3   OH244099   0.241   4.961   6.695 -0.1586  0.0692  0.0607
 6635TIP3    H144100   0.187   5.018   6.640 -0.3014  0.3454  0.4831
 6635TIP3    H244101   0.331   4.986   6.674 -0.2194  0.4421  0.2319
 6636TIP3   OH244102   5.358   5.916   7.470 -0.3001 -0.2998  0.3000
 6636TIP3    H144103   5.353   5.862   7.550 -0.6291 -0.0982  0.4174
 6636TIP3    H244104   5.387   5.855   7.402 -1.4643 -0.8211  0.2543
 6637TIP3   OH244105   1.037   2.462   8.346  0.4455 -0.3262 -0.2942
 6637TIP3    H144106   0.977   2.486   8.417  0.4606 -1.0698 -0.0202
 6637TIP3    H244107   1.014   2.372   8.324  0.9332 -0.3506 -0.7335
 6638TIP3   OH244108   6.564   3.640   7.037  0.4304  0.1643  0.6358
 6638TIP3    H144109   6.469   3.647   7.043  0.2203 -1.0174 -0.6176
 6638TIP3    H244110   6.594   3.727   7.011 -0.7806 -0.3790 -3.1886
 6639TIP3   OH244111   2.012   6.427   6.420  0.4543  0.1440  0.2291
 6639TIP3    H144112   1.936   6.483   6.410 -1.7545 -2.1567  2.7239
 6639TIP3    H244113   2.087   6.484   6.402 -1.6553  3.5050  1.3321
 6640TIP3   OH244114   4.102   2.893   8.535 -0.3926  0.3094  0.3838
 6640TIP3    H144115   4.090   2.807   8.574  0.2883 -0.9972 -2.0873
 6640TIP3    H244116   4.018   2.938   8.549 -0.6959 -0.6544  1.8529
 6641TIP3   OH244117   3.813   2.919   6.481 -0.1067 -0.6665  0.1008
 6641TIP3    H144118   3.772   2.959   6.404  1.3105 -0.9751 -0.8454
 6641TIP3    H244119   3.889   2.974   6.500  0.2025 -1.2455  0.5748
 6642TIP3   OH244120   5.125   2.405   8.055 -0.1316 -0.5637 -0.0881
 6642TIP3    H144121   5.044   2.411   8.004  0.2596  1.1133 -0.5905
 6642TIP3    H244122   5.099   2.426   8.144 -0.3050 -0.2754 -0.2041
 6643TIP3   OH244123   6.635   5.797   9.028 -0.6579  0.3157  0.1394
 6643TIP3    H144124   6.656   5.887   9.052 -0.3053  0.5135 -0.8753
 6643TIP3    H244125   6.544   5.800   9.000 -0.1714  0.6965 -1.4758
 6644TIP3   OH244126   4.889   2.129   8.029 -0.5889 -0.2946 -0.6718
 6644TIP3    H144127   4.898   2.060   7.964 -0.8885 -0.7528 -0.2405
 6644TIP3    H244128   4.941   2.098   8.104  1.1281  0.9949 -1.2840
 6645TIP3   OH244129   1.982   0.009   6.153  0.4858 -0.2188  0.5020
 6645TIP3    H144130   2.053  -0.040   6.195  2.4976  1.7417 -0.4429
 6645TIP3    H244131   2.022   0.049   6.077 -1.6355  1.0851 -0.0041
 6646TIP3   OH244132   6.572   1.877   5.969  0.5626 -0.3725 -0.7890
 6646TIP3    H144133   6.502   1.825   5.931  0.7114 -2.6242  1.6707
 6646TIP3    H244134   6.632   1.813   6.006 -0.2807  1.2836  4.3801
 6647TIP3   OH244135   3.093   2.678   6.705 -0.6153 -0.5007 -0.0416
 6647TIP3    H144136   3.075   2.743   6.773 -0.1128  1.1074 -1.3746
 6647TIP3    H244137   3.186   2.657   6.717 -0.6059 -0.4597 -0.0410
 6648TIP3   OH244138   5.967   2.885   7.364 -0.5770  0.1683 -0.0602
 6648TIP3    H144139   5.905   2.918   7.299 -0.2580 -0.9623 -0.9732
 6648TIP3    H244140   5.993   2.799   7.331  0.6665  0.1648  0.8491
 6649TIP3   OH244141   2.836   4.856  10.464 -0.8767  0.3663 -0.1002
 6649TIP3    H144142   2.853   4.788  10.529 -1.6263  1.3805  1.2088
 6649TIP3    H244143   2.885   4.828  10.387  0.7320 -0.4648  1.1565
 6650TIP3   OH244144   6.364   2.336   7.757  0.2113  0.1602  0.2515
 6650TIP3    H144145   6.437   2.354   7.816  1.5543 -0.3841 -1.1739
 6650TIP3    H244146   6.351   2.241   7.764  0.3533  0.0990 -0.2925
 6651TIP3   OH244147   5.488   2.906   7.197  0.2373 -0.0924 -0.0069
 6651TIP3    H144148   5.452   2.991   7.222  0.2337  0.2010 -0.9754
 6651TIP3    H244149   5.423   2.868   7.139  0.5842 -0.4271 -0.1787
 6652TIP3   OH244150   1.742   6.592   8.066  0.4301  0.2895  0.1410
 6652TIP3    H144151   1.697   6.676   8.055  1.0409  1.0139  2.6555
 6652TIP3    H244152   1.813   6.611   8.126  2.4781 -1.4403 -1.5915
 6653TIP3   OH244153   2.795   6.700   6.924  1.0292 -0.5044 -0.4596
 6653TIP3    H144154   2.837   6.617   6.947  0.7316 -0.6663 -0.4973
 6653TIP3    H244155   2.807   6.707   6.830 -1.5188 -1.9749 -0.9883
 6654TIP3   OH244156   5.374   0.573   6.439  0.5081 -0.2277 -0.1032
 6654TIP3    H144157   5.330   0.508   6.384  0.1171  0.1944 -0.3057
 6654TIP3    H244158   5.465   0.545   6.441  0.1657 -1.3343  0.6381
 6655TIP3   OH244159   6.467   0.335   6.504 -0.0262 -0.0306 -0.0060
 6655TIP3    H144160   6.520   0.394   6.451  0.0179  0.9007  1.0340
 6655TIP3    H244161   6.530   0.296   6.566 -0.5275  1.2473  1.3823
 6656TIP3   OH244162   5.493   2.323   7.200 -0.2981 -0.2653  0.5256
 6656TIP3    H144163   5.436   2.257   7.239  0.8032 -1.7919 -0.3306
 6656TIP3    H244164   5.476   2.402   7.251 -0.9387 -1.4483  2.2606
 6657TIP3   OH244165   5.955   2.112   6.669 -0.2393 -0.2885 -0.1901
 6657TIP3    H144166   5.928   2.062   6.591  0.9124 -2.1365  0.5215
 6657TIP3    H244167   6.049   2.128   6.656 -0.2683  0.3278  0.3242
 6658TIP3   OH244168   0.841   4.677   6.251  0.6651  0.3508 -0.2863
 6658TIP3    H144169   0.839   4.770   6.276  2.7918  0.0867  1.1146
 6658TIP3    H244170   0.930   4.662   6.222  0.6244 -1.4822  0.4133
 6659TIP3   OH244171   2.724   6.203   5.998  0.2029  0.5773  0.1127
 6659TIP3    H144172   2.813   6.173   5.981  0.0065  0.6087 -1.0667
 6659TIP3    H244173   2.733   6.298   6.011  0.7865  0.1957  3.5849
 6660TIP3   OH244174   4.322   2.920   6.031 -0.1571 -0.0254  0.2232
 6660TIP3    H144175   4.279   2.836   6.050 -0.1834 -1.0183 -3.4518
 6660TIP3    H244176   4.272   2.956   5.958  2.0329  1.3977 -0.6644
 6661TIP3   OH244177   1.592   5.605   7.788  0.2396  0.0502  0.2434
 6661TIP3    H144178   1.650   5.680   7.772  0.5945 -0.2811 -0.0691
 6661TIP3    H244179   1.647   5.542   7.835 -0.2995  0.3144  1.2459
 6662TIP3   OH244180   1.200   4.605   5.856 -0.1767  0.9318 -0.2889
 6662TIP3    H144181   1.173   4.514   5.858 -1.1150  1.1078 -2.4417
 6662TIP3    H244182   1.294   4.602   5.838 -0.5728  0.3284 -2.6617
 6663TIP3   OH244183   3.697   6.308   5.826 -0.8188  0.3546  0.3038
 6663TIP3    H144184   3.774   6.298   5.771 -1.0337  0.4924 -0.0288
 6663TIP3    H244185   3.673   6.219   5.851 -1.7272  0.1273 -1.2366
 6664TIP3   OH244186   6.141   1.902   6.349  0.2802 -0.4670  0.2988
 6664TIP3    H144187   6.195   1.981   6.346  0.7673 -0.8150 -2.5514
 6664TIP3    H244188   6.053   1.934   6.368  0.5011  0.7503 -0.6119
 6665TIP3   OH244189   1.318   6.231   6.122 -0.3044 -0.0595  0.4975
 6665TIP3    H144190   1.257   6.160   6.104  1.0033 -1.1286  0.1200
 6665TIP3    H244191   1.390   6.218   6.060  0.9849  0.3080  1.8311
 6666TIP3   OH244192   4.576   3.201   6.497 -0.2916  0.0063  0.3489
 6666TIP3    H144193   4.617   3.187   6.412  2.0426  1.0997  1.2123
 6666TIP3    H244194   4.593   3.293   6.517 -1.8270  0.0838  1.5158
 6667TIP3   OH244195   2.923   3.499   6.045 -0.3533 -0.1659 -0.5414
 6667TIP3    H144196   2.954   3.587   6.023  1.7016 -0.8866 -0.7002
 6667TIP3    H244197   2.916   3.499   6.141 -3.4539  1.0736 -0.6245
 6668TIP3   OH244198   4.370   4.677   5.995 -0.6238 -0.2302  0.1632
 6668TIP3    H144199   4.294   4.685   5.937  0.2148 -0.8576 -1.0572
 6668TIP3    H244200   4.373   4.584   6.018  0.7408 -0.5879 -1.2268
 6669TIP3   OH244201   6.716   2.998   5.502  0.1241 -0.1923  0.1794
 6669TIP3    H144202   6.776   3.070   5.487  0.7057 -0.8184 -0.5968
 6669TIP3    H244203   6.731   2.938   5.428 -0.3990 -1.0659  0.7578
 6670TIP3   OH244204   1.244   5.400   5.841 -0.1123 -0.2459  0.1530
 6670TIP3    H144205   1.214   5.311   5.859  0.3431 -0.9023 -2.0474
 6670TIP3    H244206   1.264   5.436   5.927 -0.2171 -2.2932  1.1000
 6671TIP3   OH244207   6.016   2.986   8.226  0.3400 -0.6945 -0.0376
 6671TIP3    H144208   6.022   3.034   8.309 -0.0947  0.9474 -0.9188
 6671TIP3    H244209   6.079   2.915   8.235  0.7798 -0.1565  1.4487
 6672TIP3   OH244210   1.544   3.028   8.295 -0.5667 -0.0076  0.0037
 6672TIP3    H144211   1.611   2.997   8.356 -1.2667 -1.4761  0.0496
 6672TIP3    H244212   1.485   3.080   8.349  0.3172  1.0171  0.0255
 6673TIP3   OH244213   6.168   4.707   5.897  0.1899 -0.0980  0.2156
 6673TIP3    H144214   6.092   4.652   5.876  0.2723  0.1330 -0.7196
 6673TIP3    H244215   6.244   4.654   5.874  0.3731 -0.6190  1.8371
 6674TIP3   OH244216   1.310   3.987   6.037 -0.3633  0.6359 -0.5653
 6674TIP3    H144217   1.340   4.066   5.991 -0.4457  1.2008  0.3231
 6674TIP3    H244218   1.218   4.004   6.056 -0.4141  0.2708 -0.4797
 6675TIP3   OH244219   4.484   1.501   8.717  0.8069  0.4537 -0.6014
 6675TIP3    H144220   4.503   1.451   8.797  2.6854  0.1263 -1.2032
 6675TIP3    H244221   4.391   1.523   8.724  1.1414  1.4077  2.2150
 6676TIP3   OH244222   1.916   5.069   8.900 -0.1040  0.2134  0.2527
 6676TIP3    H144223   1.841   5.062   8.842  0.8222  3.7650 -1.6498
 6676TIP3    H244224   1.987   5.100   8.844  2.4603 -1.6608  2.2482
 6677TIP3   OH244225   1.450   5.085   5.869  0.0544 -0.0415 -0.0432
 6677TIP3    H144226   1.477   4.993   5.872  0.6170  0.1453  0.7801
 6677TIP3    H244227   1.509   5.126   5.806 -1.3074 -0.5749 -1.7684
 6678TIP3   OH244228   0.292   3.730   8.264  0.7974  0.4559  0.2430
 6678TIP3    H144229   0.219   3.668   8.267  0.1909  1.0924  4.1083
 6678TIP3    H244230   0.259   3.804   8.214 -0.3677 -0.2033  0.0048
 6679TIP3   OH244231   2.150   1.193   6.584  0.2459 -0.0144  0.0311
 6679TIP3    H144232   2.071   1.148   6.612  1.2490 -1.1626  1.1395
 6679TIP3    H244233   2.221   1.130   6.599  1.4711  1.2448 -0.1973
 6680TIP3   OH244234   0.304   5.731   7.969  0.0241  0.9978  0.0213
 6680TIP3    H144235   0.248   5.681   8.028  0.3224  0.4407 -0.1595
 6680TIP3    H244236   0.248   5.750   7.894 -0.5078  2.1488  0.6977
 6681TIP3   OH244237   2.558   6.014   6.830  0.4296  0.1650  0.7421
 6681TIP3    H144238   2.567   5.918   6.825  1.5150  0.1549  2.1910
 6681TIP3    H244239   2.621   6.047   6.766 -1.0035 -0.0683 -0.8507
 6682TIP3   OH244240   6.737   5.832   8.522  0.0083  0.0053 -0.4971
 6682TIP3    H144241   6.678   5.796   8.455  1.2638 -0.2628 -1.4980
 6682TIP3    H244242   6.679   5.857   8.594 -1.0589 -3.1677 -0.0997
 6683TIP3   OH244243   3.403   1.365   6.406  0.3064 -0.3238 -0.4138
 6683TIP3    H144244   3.316   1.385   6.441  0.6717  0.2906  0.1838
 6683TIP3    H244245   3.443   1.451   6.393  0.4112 -0.5534 -1.7916
 6684TIP3   OH244246   0.745   0.100   6.325  0.3390  0.1330  0.1916
 6684TIP3    H144247   0.711   0.109   6.236  1.1669 -0.1390 -0.1627
 6684TIP3    H244248   0.686   0.038   6.367  0.1498 -0.0067 -0.2728
 6685TIP3   OH244249   0.085   4.516   7.048 -0.0671 -0.6281 -0.2467
 6685TIP3    H144250   0.049   4.584   7.105 -1.6143 -1.5081 -0.1115
 6685TIP3    H244251   0.077   4.436   7.100 -0.4952 -1.2782 -1.2878
 6686TIP3   OH244252   2.942   3.692   7.476  0.4432 -0.3403  0.2193
 6686TIP3    H144253   2.928   3.635   7.552 -1.0365  1.0189  1.0396
 6686TIP3    H244254   2.936   3.781   7.512  0.1557  0.3344 -1.4232
 6687TIP3   OH244255   6.198   0.828   7.382  0.3797 -0.3999 -0.0459
 6687TIP3    H144256   6.234   0.913   7.359  1.3514 -0.1391  2.1814
 6687TIP3    H244257   6.243   0.766   7.325  1.5709  0.3267  0.0837
 6688TIP3   OH244258   5.126   2.145   7.518 -0.0773  0.5962  0.1560
 6688TIP3    H144259   5.164   2.200   7.586 -0.3190  2.1605 -0.9222
 6688TIP3    H244260   5.045   2.112   7.556  1.1555 -0.8755  1.6202
 6689TIP3   OH244261   0.711   2.412   6.492 -0.2841  0.6811  0.5062
 6689TIP3    H144262   0.771   2.339   6.508 -0.3169  0.5490  0.0308
 6689TIP3    H244263   0.626   2.380   6.523 -0.5407  0.0747 -0.7548
 6690TIP3   OH244264   5.798   6.614   7.537  0.1437  0.6088 -0.7820
 6690TIP3    H144265   5.820   6.621   7.444  0.2815  0.5983 -0.7502
 6690TIP3    H244266   5.711   6.654   7.544 -0.4054 -0.5071 -1.1222
 6691TIP3   OH244267   5.399   4.750   7.827  0.0825 -0.6596  0.1929
 6691TIP3    H144268   5.337   4.820   7.849  0.5884  0.3133 -1.3098
 6691TIP3    H244269   5.474   4.766   7.884 -0.2800 -0.7053  0.6931
 6692TIP3   OH244270   0.527   0.537   8.647 -0.3171 -0.1644  0.3810
 6692TIP3    H144271   0.556   0.495   8.728 -1.5440 -0.0074  0.9263
 6692TIP3    H244272   0.607   0.550   8.597  0.8366  1.8948  2.5585
 6693TIP3   OH244273   4.662   1.956   6.037 -0.1116  0.0142  0.2472
 6693TIP3    H144274   4.680   2.040   6.078 -1.1637 -0.2152  1.2200
 6693TIP3    H244275   4.622   1.903   6.106  2.2820 -1.9895  0.2375
 6694TIP3   OH244276   6.203   5.373   8.545 -0.3675  0.4939 -0.2947
 6694TIP3    H144277   6.145   5.347   8.617  1.0903  2.3087  1.6508
 6694TIP3    H244278   6.223   5.291   8.500 -2.9176 -0.4342  0.0705
 6695TIP3   OH244279   3.107   6.255   7.689 -0.3572 -0.0995  0.0658
 6695TIP3    H144280   3.120   6.279   7.597 -0.0833 -0.9051 -0.1079
 6695TIP3    H244281   3.084   6.338   7.731 -1.0000  0.1953 -0.8156
 6696TIP3   OH244282   6.542   6.034   6.026  0.0334 -0.5102  0.1015
 6696TIP3    H144283   6.584   6.083   5.956 -0.1638  0.2327  0.4912
 6696TIP3    H244284   6.539   6.095   6.100 -0.5464 -0.9897  0.4878
 6697TIP3   OH244285   6.299   6.629   7.403  0.3127  0.6227 -0.6860
 6697TIP3    H144286   6.326   6.614   7.494  1.5787  0.3228 -1.1034
 6697TIP3    H244287   6.267   6.545   7.373 -0.3096  0.7721 -0.4658
 6698TIP3   OH244288   2.724   6.670   7.422  0.4501 -0.3073 -0.3324
 6698TIP3    H144289   2.640   6.712   7.443 -0.5022 -1.7040 -1.1411
 6698TIP3    H244290   2.751   6.710   7.340 -0.8054 -1.6627 -1.4676
 6699TIP3   OH244291   5.140   0.678   7.508 -0.0918 -0.4858  0.6949
 6699TIP3    H144292   5.145   0.687   7.603 -1.7840  0.0656  0.7643
 6699TIP3    H244293   5.164   0.765   7.474 -0.2013 -0.4742  0.6465
 6700TIP3   OH244294   6.521   4.834   6.693  0.3376 -0.5430 -0.0990
 6700TIP3    H144295   6.481   4.921   6.702  0.5599 -0.3485 -0.9415
 6700TIP3    H244296   6.506   4.809   6.602  0.9132 -1.0707 -0.0601
 6701TIP3   OH244297   2.323   4.289   5.835  0.6414 -0.3002 -0.3060
 6701TIP3    H144298   2.275   4.280   5.917  0.6072  1.1908 -0.1234
 6701TIP3    H244299   2.350   4.381   5.833  3.0225 -0.9264 -0.6704
 6702TIP3   OH244300   1.164   1.771   7.847  0.0758  0.0386 -0.4923
 6702TIP3    H144301   1.183   1.717   7.771  1.2278 -0.1339 -0.1072
 6702TIP3    H244302   1.247   1.774   7.895 -0.3030  1.1237  0.1326
 6703TIP3   OH244303   0.735   0.660   6.818  0.2032  0.4377  0.1185
 6703TIP3    H144304   0.738   0.566   6.801  0.7401  0.5859 -0.6899
 6703TIP3    H244305   0.651   0.675   6.862  0.6564 -0.5905  1.3861
 6704TIP3   OH244306   1.809   5.499   7.949  0.3735 -0.2582  0.8351
 6704TIP3    H144307   1.813   5.403   7.948  0.2274 -0.2689 -0.0462
 6704TIP3    H244308   1.827   5.523   8.039  0.7886 -1.1044  0.9889
 6705TIP3   OH244309   3.258   1.888   8.515  0.5256  0.1733 -0.0398
 6705TIP3    H144310   3.344   1.917   8.544  0.6470  0.5338 -0.7215
 6705TIP3    H244311   3.231   1.955   8.452 -0.9724  0.9659  1.3527
 6706TIP3   OH244312   3.307   4.500   5.892  0.2000  0.2194 -0.4287
 6706TIP3    H144313   3.228   4.539   5.853  0.2121  1.1573  0.4265
 6706TIP3    H244314   3.282   4.411   5.915 -1.2116  1.0375  1.4498
 6707TIP3   OH244315   2.860   1.588   7.065  0.0172  0.2206  0.1083
 6707TIP3    H144316   2.807   1.564   7.142 -1.5214 -1.1106 -1.2721
 6707TIP3    H244317   2.946   1.608   7.101  0.3550 -3.5399  1.9877
 6708TIP3   OH244318   3.504   2.555   7.400  0.1295 -0.0569  0.5444
 6708TIP3    H144319   3.578   2.616   7.393 -0.6383  0.7740 -0.8263
 6708TIP3    H244320   3.516   2.512   7.485  1.7508  0.6110  0.6877
 6709TIP3   OH244321   0.420   6.095   8.364 -0.1935  0.2681  0.2477
 6709TIP3    H144322   0.466   6.168   8.405  0.5725 -0.1623  0.1602
 6709TIP3    H244323   0.488   6.044   8.321 -0.7529 -0.3684  0.0977
 6710TIP3   OH244324   3.353   3.748   5.752  0.9488  0.2081 -0.3359
 6710TIP3    H144325   3.299   3.680   5.794  0.4522  0.7669 -0.0596
 6710TIP3    H244326   3.419   3.699   5.704  1.2554 -0.4613  0.7306
 6711TIP3   OH244327   4.489   3.473   7.212 -0.0273  0.4764  0.0319
 6711TIP3    H144328   4.472   3.415   7.138  0.9539  0.9378 -0.5703
 6711TIP3    H244329   4.412   3.463   7.268 -0.6919 -0.0378 -0.9452
 6712TIP3   OH244330   2.639   6.566   7.984 -0.0528 -0.2182  0.0728
 6712TIP3    H144331   2.705   6.528   7.926 -1.8789 -0.5299 -1.9328
 6712TIP3    H244332   2.586   6.492   8.013 -0.3423  0.1746  0.5701
 6713TIP3   OH244333   4.135   6.589   6.420 -0.1213 -0.1686  0.1035
 6713TIP3    H144334   4.148   6.512   6.365  0.6880 -1.1563  1.5864
 6713TIP3    H244335   4.224   6.620   6.439 -0.3417 -0.2736  1.3849
 6714TIP3   OH244336   1.612   3.214   7.323 -0.1056  0.1474  0.0097
 6714TIP3    H144337   1.541   3.173   7.272 -0.7829  1.5037 -0.1876
 6714TIP3    H244338   1.625   3.299   7.281 -0.3773  1.1242  1.8295
 6715TIP3   OH244339   0.359   3.294   5.990  0.4817  0.7817 -0.4950
 6715TIP3    H144340   0.429   3.255   6.042  0.2876  1.4966  0.3284
 6715TIP3    H244341   0.291   3.316   6.054  0.6287  2.5471 -0.8944
 6716TIP3   OH244342   0.416   2.886   6.530  0.0875 -0.2382 -0.2568
 6716TIP3    H144343   0.337   2.838   6.504 -0.4303 -0.0043  0.7999
 6716TIP3    H244344   0.476   2.818   6.560 -0.0976 -0.3446 -0.1211
 6717TIP3   OH244345   5.636   4.454   8.319 -0.2540 -0.2461 -0.0569
 6717TIP3    H144346   5.589   4.496   8.247 -2.6570  0.7716  1.9569
 6717TIP3    H244347   5.571   4.398   8.361  1.1135 -0.9413  1.2436
 6718TIP3   OH244348   4.543   4.605   5.752  0.1877  0.9109  0.3925
 6718TIP3    H144349   4.601   4.532   5.774 -2.1391 -0.7197  1.4977
 6718TIP3    H244350   4.506   4.633   5.836 -2.0024  0.6416 -0.4223
 6719TIP3   OH244351   0.531   3.732   6.954  0.0325 -0.3961 -0.0008
 6719TIP3    H144352   0.436   3.730   6.966 -0.1124 -0.3797 -1.0588
 6719TIP3    H244353   0.545   3.704   6.864  1.1256 -1.5936  0.5147
 6720TIP3   OH244354   1.870   4.654   9.039 -0.1807  0.2639  0.0723
 6720TIP3    H144355   1.845   4.564   9.061  2.0795 -0.2551  0.8152
 6720TIP3    H244356   1.852   4.704   9.118  1.1774 -0.1499  0.6808
 6721TIP3   OH244357   2.858   0.074   8.594 -0.3182 -0.2223  0.3545
 6721TIP3    H144358   2.811   0.132   8.654  1.1033 -0.7073  2.0512
 6721TIP3    H244359   2.801   0.066   8.518 -1.8147  1.1378  1.2674
 6722TIP3   OH244360   4.950   2.401   5.945 -0.3257 -0.3336  0.6522
 6722TIP3    H144361   4.939   2.430   6.035 -2.7842  0.2858  0.2446
 6722TIP3    H244362   4.953   2.482   5.894  1.2299 -0.6681  0.1528
 6723TIP3   OH244363   0.163   2.483   5.921  0.1520  0.3669 -0.1819
 6723TIP3    H144364   0.119   2.499   6.004 -0.5457  0.3644 -0.5504
 6723TIP3    H244365   0.105   2.520   5.854 -1.0295 -2.6382 -0.9941
 6724TIP3   OH244366   2.651   3.776   7.757  0.1406 -0.2281  0.4464
 6724TIP3    H144367   2.616   3.859   7.790 -1.4501 -1.2740  1.5619
 6724TIP3    H244368   2.726   3.757   7.814 -0.3269 -0.1940  1.0952
 6725TIP3   OH244369   1.260   3.881   5.753 -0.0011 -0.6168  0.2402
 6725TIP3    H144370   1.231   3.972   5.752 -0.3006 -0.6569  2.0765
 6725TIP3    H244371   1.184   3.831   5.722 -0.3551 -0.3495  0.6635
 6726TIP3   OH244372   3.830   2.604   6.321 -0.3365  0.0638  0.1058
 6726TIP3    H144373   3.772   2.546   6.371 -0.3210 -0.9070 -0.9533
 6726TIP3    H244374   3.792   2.691   6.331 -0.7988 -0.2356  1.1082
 6727TIP3   OH244375   6.503   6.385   8.141 -0.1821  0.2879 -0.1370
 6727TIP3    H144376   6.580   6.440   8.157 -0.1014  0.0059  0.4942
 6727TIP3    H244377   6.512   6.358   8.050  0.6169  0.0392  0.0030
 6728TIP3   OH244378   6.285   1.339   6.576 -0.1458  0.1513 -0.1949
 6728TIP3    H144379   6.316   1.341   6.667  1.1413  1.4940 -0.6299
 6728TIP3    H244380   6.333   1.267   6.536 -1.2791 -0.9463  0.3391
 6729TIP3   OH244381   1.254   5.019   7.760  0.1608 -0.0737  0.2069
 6729TIP3    H144382   1.163   5.037   7.736  0.1045 -1.7102 -0.9904
 6729TIP3    H244383   1.249   4.988   7.851 -0.3892  0.4576  0.3629
 6730TIP3   OH244384   2.551   4.958   8.848  0.1236  0.4278 -0.1111
 6730TIP3    H144385   2.460   4.966   8.820  0.1160 -0.2866 -0.3133
 6730TIP3    H244386   2.594   4.910   8.776  0.0484 -1.6688  1.1426
 6731TIP3   OH244387   1.871   0.733   7.168  0.7038  0.1766 -0.1529
 6731TIP3    H144388   1.942   0.796   7.156  1.2020 -0.0808  1.2363
 6731TIP3    H244389   1.908   0.666   7.226 -0.3880 -0.4422 -0.1370
 6732TIP3   OH244390   1.111   4.742   7.799  0.0315 -0.3681  0.3634
 6732TIP3    H144391   1.016   4.734   7.798 -0.0571  0.4744 -1.8078
 6732TIP3    H244392   1.129   4.802   7.871 -1.4172  2.4129 -1.4399
 6733TIP3   OH244393   3.148   5.250   8.717 -0.2051  0.2361  0.7108
 6733TIP3    H144394   3.060   5.212   8.712 -1.0674  2.2568 -1.3161
 6733TIP3    H244395   3.207   5.175   8.716 -1.8898 -1.1382  0.0564
 6734TIP3   OH244396   3.012   1.900   8.588  1.0471 -0.3276 -0.1703
 6734TIP3    H144397   2.988   1.992   8.601 -1.4855 -0.6254 -1.9857
 6734TIP3    H244398   3.105   1.903   8.565  0.8741  1.8767 -0.8484
 6735TIP3   OH244399   1.350   4.153   6.281 -0.1996  0.5045  0.0505
 6735TIP3    H144400   1.350   4.107   6.197 -0.2285  2.6510 -1.1956
 6735TIP3    H244401   1.259   4.146   6.312 -0.4804  0.7444 -0.7062
 6736TIP3   OH244402   5.424   3.988   6.561  0.1131  0.1386 -0.2207
 6736TIP3    H144403   5.487   3.927   6.600 -0.3802 -1.2747 -1.5060
 6736TIP3    H244404   5.360   4.003   6.630  0.8050  0.0187  0.4596
 6737TIP3   OH244405   1.009   5.550   5.647  0.4026 -1.1064  0.1445
 6737TIP3    H144406   0.968   5.474   5.604  2.5132 -1.8931 -0.5735
 6737TIP3    H244407   1.043   5.517   5.729 -1.6543 -0.0933  1.4911
 6738TIP3   OH244408   1.755   2.867   7.741 -0.3550 -0.5190 -0.0500
 6738TIP3    H144409   1.750   2.773   7.760 -1.1430  0.0188  2.8228
 6738TIP3    H244410   1.844   2.881   7.710  0.4787 -1.9013  1.5868
 6739TIP3   OH244411   3.131   5.227   6.841 -0.0103 -0.5388 -0.3133
 6739TIP3    H144412   3.165   5.164   6.777 -0.9003 -2.3524  0.9129
 6739TIP3    H244413   3.204   5.243   6.900 -0.2436 -1.7515  0.3302
 6740TIP3   OH244414   1.653   6.665   8.407 -0.0727  0.0936  0.2645
 6740TIP3    H144415   1.627   6.719   8.482 -1.2288  2.0146 -1.4186
 6740TIP3    H244416   1.572   6.621   8.380  0.2561 -0.3222 -0.0545
 6741TIP3   OH244417   2.428   5.218   8.338  0.5837  0.5251  0.5900
 6741TIP3    H144418   2.343   5.208   8.296  0.5199 -0.4294  0.9095
 6741TIP3    H244419   2.487   5.161   8.288  0.5857 -0.3448  1.5194
 6742TIP3   OH244420   1.187   2.292   7.961 -0.2348  0.3506 -0.2143
 6742TIP3    H144421   1.203   2.224   8.026  0.2675 -0.2384 -0.9253
 6742TIP3    H244422   1.102   2.329   7.985 -1.4428 -1.8021 -0.8515
 6743TIP3   OH244423   6.106   2.724   8.803  0.1168 -0.1204 -0.5013
 6743TIP3    H144424   6.077   2.815   8.804 -0.2046 -0.2024 -1.5003
 6743TIP3    H244425   6.032   2.675   8.838  0.5190  0.0434  0.6364
 6744TIP3   OH244426   3.976   4.252   6.298  0.0403 -0.5197 -0.1883
 6744TIP3    H144427   3.988   4.168   6.341 -0.5238 -0.7129 -0.4029
 6744TIP3    H244428   4.014   4.316   6.358 -0.8917 -0.7655  0.6783
 6745TIP3   OH244429   1.987   5.536   7.700  0.3943 -0.1715 -0.4611
 6745TIP3    H144430   1.926   5.546   7.774 -0.7259 -2.1247 -1.0585
 6745TIP3    H244431   2.032   5.454   7.717  1.3770  0.2241 -1.0992
 6746TIP3   OH244432   3.978   4.138   5.818  0.4884  0.1473  0.6532
 6746TIP3    H144433   4.021   4.099   5.895 -0.4551 -1.7877  0.2497
 6746TIP3    H244434   3.893   4.168   5.851  0.2287 -0.3573  0.4439
 6747TIP3   OH244435   4.941   4.535   7.449  0.2378 -0.2466 -0.4311
 6747TIP3    H144436   4.866   4.513   7.394  1.0047 -0.3613 -1.4565
 6747TIP3    H244437   4.969   4.451   7.485  0.1785 -0.2748 -0.4512
 6748TIP3   OH244438   3.193   3.783   6.731  0.3439  0.4895 -0.0063
 6748TIP3    H144439   3.255   3.742   6.670  0.2762  0.6067 -0.1564
 6748TIP3    H244440   3.107   3.755   6.700  0.3206  0.3338  0.1959
 6749TIP3   OH244441   2.891   0.061   7.964 -0.1494 -0.0046  0.1548
 6749TIP3    H144442   2.847   0.106   7.891 -3.2328 -3.0720 -0.1410
 6749TIP3    H244443   2.944  -0.006   7.921  2.7081  1.7423  0.6781
 6750TIP3   OH244444   2.908   6.211   7.280 -0.0731  0.6779 -0.2718
 6750TIP3    H144445   2.864   6.250   7.204 -0.4073  2.2960  0.6868
 6750TIP3    H244446   2.958   6.283   7.318  1.5283 -0.5525  0.0359
 6751TIP3   OH244447   2.588   1.115   5.771 -0.9248  0.0910 -0.1447
 6751TIP3    H144448   2.507   1.159   5.744 -1.3015 -0.5166 -0.0040
 6751TIP3    H244449   2.658   1.173   5.740 -1.3831  0.0631 -1.2559
 6752TIP3   OH244450   6.503   4.627   6.516 -0.8166  0.2996  0.8317
 6752TIP3    H144451   6.492   4.543   6.561 -1.4815 -0.4279 -0.5970
 6752TIP3    H244452   6.414   4.663   6.512 -0.7838  0.3239  0.1075
 6753TIP3   OH244453   3.774   4.030   9.025  0.0563  0.1280  0.7645
 6753TIP3    H144454   3.685   4.002   9.048  0.8273 -1.7891  1.6164
 6753TIP3    H244455   3.769   4.125   9.022 -2.2913  0.0383 -0.3945
 6754TIP3   OH244456   3.202   1.560   5.443 -0.5445 -0.0313 -0.1566
 6754TIP3    H144457   3.284   1.594   5.479  0.1414  0.1175 -1.7803
 6754TIP3    H244458   3.199   1.594   5.353 -2.8793  0.8001  0.1551
 6755TIP3   OH244459   3.024   0.734   6.400  0.5216 -0.3066  0.5030
 6755TIP3    H144460   3.108   0.694   6.420  0.7587  0.4455  1.0498
 6755TIP3    H244461   3.044   0.798   6.331  0.4518  0.0649  0.8239
 6756TIP3   OH244462   1.394   3.473   5.880  0.0956  0.0911 -0.2922
 6756TIP3    H144463   1.381   3.565   5.904 -1.2153  0.3529 -1.8445
 6756TIP3    H244464   1.315   3.429   5.909 -0.2332 -0.1169 -1.4309
 6757TIP3   OH244465   5.236   5.325   8.784  0.0623  0.0799  0.2245
 6757TIP3    H144466   5.321   5.345   8.825 -0.4239  1.8945  0.4666
 6757TIP3    H244467   5.220   5.233   8.803  1.4337  0.0166  1.1878
 6758TIP3   OH244468   1.839   4.362   6.550  0.5117 -0.2318  0.2305
 6758TIP3    H144469   1.865   4.300   6.482 -1.0426  0.8233 -1.4307
 6758TIP3    H244470   1.784   4.311   6.610 -2.2184 -0.2510 -2.0516
 6759TIP3   OH244471   2.179   0.511   8.720  0.0925 -0.1242  0.4594
 6759TIP3    H144472   2.154   0.602   8.738  0.2981  0.0923 -0.3206
 6759TIP3    H244473   2.242   0.517   8.649 -0.6263 -0.9405 -0.2759
 6760TIP3   OH244474   4.782   4.596   8.052 -0.6657 -0.5219 -0.3402
 6760TIP3    H144475   4.729   4.609   8.130  2.5865  2.0208  1.7285
 6760TIP3    H244476   4.793   4.683   8.015  2.0562 -0.8692 -0.5545
 6761TIP3   OH244477   1.070   4.585   6.895  0.0017 -0.1782 -0.2402
 6761TIP3    H144478   1.052   4.491   6.903  0.6880 -0.1850  1.7374
 6761TIP3    H244479   1.100   4.611   6.982 -0.5173  1.9630 -0.6490
 6762TIP3   OH244480   1.552   5.441   7.133 -0.2535 -0.4298 -0.1992
 6762TIP3    H144481   1.595   5.394   7.061 -0.0325 -2.2671  1.0556
 6762TIP3    H244482   1.619   5.445   7.202 -0.2436  1.8601 -0.2728
 6763TIP3   OH244483   0.668   1.715   7.094 -0.0505 -0.0880  0.1613
 6763TIP3    H144484   0.584   1.710   7.049  0.2951  0.2975 -0.5422
 6763TIP3    H244485   0.732   1.730   7.025  0.3714  1.5953  0.8491
 6764TIP3   OH244486   3.622   1.388   7.073 -0.0278  0.2337 -0.2364
 6764TIP3    H144487   3.662   1.402   6.987 -0.4381 -0.8367 -0.6256
 6764TIP3    H244488   3.696   1.370   7.131  0.2680  1.1886 -0.3066
 6765TIP3   OH244489   1.960   2.356   6.257  0.3531 -0.1883  0.1981
 6765TIP3    H144490   2.048   2.362   6.294  1.1615  0.3578 -1.6916
 6765TIP3    H244491   1.922   2.443   6.269  0.0284 -0.4375  1.0567
 6766TIP3   OH244492   0.521   3.188   5.389  0.3519  0.6234  0.3760
 6766TIP3    H144493   0.499   3.280   5.402 -1.4722  0.2918 -0.0773
 6766TIP3    H244494   0.593   3.189   5.326  0.9106  1.7386  0.9913
 6767TIP3   OH244495   5.716   1.473   8.035 -0.5590  0.2748 -0.3911
 6767TIP3    H144496   5.658   1.525   8.091  0.0268  0.3054  0.2047
 6767TIP3    H244497   5.799   1.521   8.037 -0.4307  0.0840 -1.0054
 6768TIP3   OH244498   6.584   1.337   6.909 -0.4338  0.5604 -0.3134
 6768TIP3    H144499   6.632   1.332   6.826 -0.1295  1.2076 -0.1895
 6768TIP3    H244500   6.574   1.431   6.924  0.5116  0.4940  0.9365
 6769TIP3   OH244501   0.586   6.266   8.552  0.1957  0.0099  0.4233
 6769TIP3    H144502   0.679   6.275   8.533  0.1718  0.9391  0.7066
 6769TIP3    H244503   0.545   6.341   8.510 -0.3409 -0.0331  0.8477
 6770TIP3   OH244504   5.641   6.172   8.039  0.3903  0.3999  0.5329
 6770TIP3    H144505   5.611   6.262   8.051 -0.8810  0.4172 -2.1454
 6770TIP3    H244506   5.679   6.171   7.951 -0.3098 -1.8570  0.2002
 6771TIP3   OH244507   1.335   3.085   5.682 -0.3439 -0.0803  0.0930
 6771TIP3    H144508   1.423   3.082   5.720  0.3193  3.5553 -0.7366
 6771TIP3    H244509   1.336   3.019   5.613  1.9266  0.1629 -0.1836
 6772TIP3   OH244510   5.597   0.015   7.365  0.8121 -0.3193 -0.7887
 6772TIP3    H144511   5.511   0.013   7.406  1.6002 -0.0019  0.9500
 6772TIP3    H244512   5.584  -0.029   7.280 -0.4046 -2.9887  0.6555
 6773TIP3   OH244513   3.068   4.747   8.512 -0.0799 -0.2657  1.1527
 6773TIP3    H144514   2.999   4.681   8.499 -0.6075  0.4053  0.4503
 6773TIP3    H244515   3.088   4.777   8.424  0.9604 -0.2808  1.3756
 6774TIP3   OH244516   1.374   2.462   7.030  0.3494  0.2297  0.7435
 6774TIP3    H144517   1.404   2.551   7.043 -0.1758  0.3532  1.1503
 6774TIP3    H244518   1.283   2.463   7.058 -0.5469  0.2377 -1.9732
 6775TIP3   OH244519   5.042   4.849   5.982 -0.0783  0.1853  0.2483
 6775TIP3    H144520   4.980   4.783   5.952  0.0978 -0.4497  1.2485
 6775TIP3    H244521   5.011   4.873   6.070  1.3108 -0.4295  0.9231
 6776TIP3   OH244522   2.784   4.846   6.939  0.1173 -0.0011 -0.6796
 6776TIP3    H144523   2.827   4.800   7.011  3.1206  1.8895 -1.0657
 6776TIP3    H244524   2.837   4.925   6.926 -0.3828 -0.1196 -4.8390
 6777TIP3   OH244525   0.550   3.169   7.464 -0.6345  0.4064  0.4387
 6777TIP3    H144526   0.544   3.108   7.537  1.4267 -1.5168 -0.8764
 6777TIP3    H244527   0.625   3.225   7.486 -1.2630  1.1822  0.6846
 6778TIP3   OH244528   6.097   4.443   6.522 -0.7979  0.3540 -0.3211
 6778TIP3    H144529   6.123   4.373   6.463 -0.7876 -0.3783  0.5338
 6778TIP3    H244530   6.049   4.399   6.592  0.5980  0.9681  1.0792
 6779TIP3   OH244531   3.290   3.166   5.550 -0.2503 -0.1287 -0.2153
 6779TIP3    H144532   3.229   3.124   5.611 -1.2207 -1.4389 -2.0096
 6779TIP3    H244533   3.239   3.180   5.471  0.8713  1.8872 -0.6511
 6780TIP3   OH244534   4.845   2.457   7.140 -0.2231  0.2184  0.3910
 6780TIP3    H144535   4.784   2.421   7.076 -0.7973 -1.2616  1.7059
 6780TIP3    H244536   4.847   2.392   7.211  1.9850  0.7874  0.9271
 6781TIP3   OH244537   0.519   0.852   8.586 -0.1679 -0.0334  0.0456
 6781TIP3    H144538   0.599   0.802   8.575 -0.1049 -0.1048  0.7771
 6781TIP3    H244539   0.534   0.905   8.665 -1.3513 -1.0815  1.0310
 6782TIP3   OH244540   0.811   6.257   7.644  1.0088  0.8136  0.4479
 6782TIP3    H144541   0.763   6.274   7.563 -0.6033 -2.1470  0.6287
 6782TIP3    H244542   0.743   6.248   7.711  2.0474  0.0689  1.4577
 6783TIP3   OH244543   6.054   0.343   7.473 -0.0354  0.9387  0.2688
 6783TIP3    H144544   5.983   0.327   7.535  1.1603  0.9989  1.7124
 6783TIP3    H244545   6.073   0.257   7.436 -1.6677  1.1198 -1.0930
 6784TIP3   OH244546   5.151   6.698   6.611  0.4504 -0.1949  0.1433
 6784TIP3    H144547   5.210   6.768   6.638  0.1792  0.4596 -0.9307
 6784TIP3    H244548   5.198   6.653   6.541 -0.7161  0.9614 -1.4293
 6785TIP3   OH244549   2.181   0.238   6.448  0.1292 -0.1971  0.1739
 6785TIP3    H144550   2.148   0.328   6.446 -0.2380 -0.2614  1.7682
 6785TIP3    H244551   2.102   0.184   6.439  0.3835 -0.3897 -1.1352
 6786TIP3   OH244552   6.650   6.397   6.044  0.3066 -0.1433  0.2875
 6786TIP3    H144553   6.640   6.342   5.966  0.3985  0.0643  0.1253
 6786TIP3    H244554   6.570   6.383   6.094  0.0072  0.1180 -0.1058
 6787TIP3   OH244555   3.317   4.863   9.875 -0.1813  0.1812  0.0880
 6787TIP3    H144556   3.393   4.837   9.822 -1.0892  1.6408 -2.0860
 6787TIP3    H244557   3.247   4.877   9.811 -1.3181  2.2097  1.6724
 6788TIP3   OH244558   5.065   1.128   5.832  0.4953 -0.5302  0.2663
 6788TIP3    H144559   5.083   1.219   5.853  2.4864 -0.5260 -1.1740
 6788TIP3    H244560   5.149   1.084   5.845 -0.0656 -1.8761 -0.4798
 6789TIP3   OH244561   0.150   2.053   7.368 -0.0918 -0.0558 -0.3008
 6789TIP3    H144562   0.213   2.124   7.355  0.7274 -0.4926  1.1447
 6789TIP3    H244563   0.189   1.998   7.436 -1.8514 -0.5636  0.3385
 6790TIP3   OH244564   6.543   0.948   6.919 -0.2817  0.3850  0.1381
 6790TIP3    H144565   6.617   0.994   6.880  0.5626  0.0758  1.3411
 6790TIP3    H244566   6.561   0.855   6.902 -0.0358  0.2642  1.0237
 6791TIP3   OH244567   4.118   5.771   7.984 -0.6903 -0.4356  0.5461
 6791TIP3    H144568   4.134   5.679   7.963  0.7195 -0.2781  0.8492
 6791TIP3    H244569   4.129   5.776   8.079 -0.3122  0.1311  0.4748
 6792TIP3   OH244570   5.187   6.090   7.231  0.0347  0.3862  0.0027
 6792TIP3    H144571   5.168   6.081   7.325 -1.4840  0.8554 -0.2273
 6792TIP3    H244572   5.149   6.175   7.207 -2.9048 -1.2360 -1.7387
 6793TIP3   OH244573   5.179   1.608   7.780  0.0849 -0.3357 -0.6475
 6793TIP3    H144574   5.249   1.564   7.829 -0.5710  0.2908  0.9513
 6793TIP3    H244575   5.198   1.589   7.688  2.7712  0.4177 -0.3364
 6794TIP3   OH244576   2.064   2.781   5.852 -0.5664 -0.5447 -0.3877
 6794TIP3    H144577   2.086   2.815   5.765 -0.7017 -0.1569 -0.2742
 6794TIP3    H244578   2.128   2.822   5.911 -1.0598 -0.0692 -0.1737
 6795TIP3   OH244579   1.030   3.942   6.882 -0.6007 -0.3711  0.4076
 6795TIP3    H144580   1.088   4.000   6.930 -1.6558  2.6777 -1.7261
 6795TIP3    H244581   0.942   3.965   6.912 -1.1365  0.2141 -1.4895
 6796TIP3   OH244582   0.545   6.268   6.530  0.2040  0.1546  0.1006
 6796TIP3    H144583   0.514   6.345   6.482 -0.0600 -0.1333 -0.1953
 6796TIP3    H244584   0.467   6.214   6.542  0.4830 -0.3108 -0.1521
 6797TIP3   OH244585   1.867   0.314   5.717 -0.1645 -0.8452 -0.2904
 6797TIP3    H144586   1.829   0.344   5.799  0.7293 -0.5357  0.0207
 6797TIP3    H244587   1.796   0.321   5.653 -1.0345 -1.6224  0.5609
 6798TIP3   OH244588   0.388   2.076   5.596  0.1126  0.1685 -0.0505
 6798TIP3    H144589   0.312   2.120   5.634 -0.2561 -0.0036 -0.5887
 6798TIP3    H244590   0.352   2.010   5.538  0.6649  0.6197 -0.9337
 6799TIP3   OH244591   5.682   3.848   5.574 -0.0239  0.2633 -0.1548
 6799TIP3    H144592   5.627   3.926   5.566  0.5346  0.7639  0.7876
 6799TIP3    H244593   5.765   3.873   5.535 -0.1785 -0.2286 -0.8334
 6800TIP3   OH244594   4.704   6.335   8.325 -0.4412 -0.0743  0.2329
 6800TIP3    H144595   4.722   6.243   8.344  1.3993  0.0456 -0.6748
 6800TIP3    H244596   4.762   6.384   8.384 -2.2523  0.5825  1.5585
 6801TIP3   OH244597   3.464   2.956   6.374  0.3559  0.2357 -0.2424
 6801TIP3    H144598   3.510   2.873   6.383  1.9149  1.2985  3.0223
 6801TIP3    H244599   3.380   2.941   6.417 -0.0626 -0.0465 -1.1162
 6802TIP3   OH244600   4.720   0.220   5.786  0.0460 -0.1612 -0.3475
 6802TIP3    H144601   4.634   0.216   5.828  0.1695  0.0736 -0.0704
 6802TIP3    H244602   4.775   0.269   5.847 -0.5608  3.0527 -2.1791
 6803TIP3   OH244603   0.826   4.697   7.781 -0.3613 -0.0595  0.5737
 6803TIP3    H144604   0.765   4.768   7.799 -1.3013 -0.6572 -0.1971
 6803TIP3    H244605   0.774   4.617   7.793  0.9605 -0.7091  2.6177
 6804TIP3   OH244606   0.028   3.166   7.705 -0.9710  0.3600  0.3948
 6804TIP3    H144607  -0.003   3.109   7.775  0.0150 -0.4143  0.2156
 6804TIP3    H244608  -0.043   3.163   7.640 -0.5545 -1.4222 -0.0331
 6805TIP3   OH244609   5.901   0.826   7.229 -0.6571  0.2037  0.2830
 6805TIP3    H144610   5.878   0.734   7.215 -0.1345 -0.4460  3.1488
 6805TIP3    H244611   5.996   0.825   7.242 -0.8024  0.9601  1.4783
 6806TIP3   OH244612   1.223   3.879   6.397  0.6800  0.2886  0.4809
 6806TIP3    H144613   1.222   3.865   6.492  1.1126  1.4118  0.6665
 6806TIP3    H244614   1.145   3.931   6.379  0.7492  0.3146  0.2505
 6807TIP3   OH244615   6.225   4.496   6.143  0.4325 -0.2929 -0.2273
 6807TIP3    H144616   6.242   4.402   6.144  0.0140 -0.3933  1.9704
 6807TIP3    H244617   6.311   4.536   6.126  0.6077 -1.0555 -1.1870
 6808TIP3   OH244618   3.447   2.949   8.197  0.5550  0.0190  0.7392
 6808TIP3    H144619   3.463   2.911   8.284  1.3893  0.9025  0.9890
 6808TIP3    H244620   3.386   3.021   8.213  0.7856  0.2456  0.6210
 6809TIP3   OH244621   0.233   2.199   8.427  0.1917 -0.8525 -0.0317
 6809TIP3    H144622   0.185   2.117   8.436  0.9735 -1.3402 -0.1896
 6809TIP3    H244623   0.302   2.194   8.494  0.3167 -0.3786 -0.1217
 6810TIP3   OH244624   4.229   1.271   7.706  0.0260  0.0921 -0.3790
 6810TIP3    H144625   4.183   1.212   7.765 -0.7088  1.2758  0.2773
 6810TIP3    H244626   4.173   1.275   7.628 -0.9994  1.4794  0.3934
 6811TIP3   OH244627   3.094   5.550   7.217 -0.5778  0.5809  0.1371
 6811TIP3    H144628   3.174   5.499   7.217  0.1914  1.7431  0.1106
 6811TIP3    H244629   3.031   5.498   7.167  1.0644  1.0060 -2.5493
 6812TIP3   OH244630   4.086   1.892   5.626 -0.0751  0.4823  0.1600
 6812TIP3    H144631   4.071   1.978   5.666  1.0226  0.3819  0.8359
 6812TIP3    H244632   4.159   1.906   5.566 -1.0210  0.3871 -1.0508
 6813TIP3   OH244633   0.109   1.506   6.957  0.3407  0.9520  0.2786
 6813TIP3    H144634   0.169   1.460   6.898 -0.1839  1.0836 -0.3708
 6813TIP3    H244635   0.068   1.573   6.903 -1.7746 -0.3195  0.1825
 6814TIP3   OH244636   2.262   5.730   8.010 -0.3587 -0.0327 -0.3436
 6814TIP3    H144637   2.307   5.657   8.052  0.0172 -0.9017 -2.1581
 6814TIP3    H244638   2.211   5.770   8.080  0.5528 -1.1376  1.0141
 6815TIP3   OH244639   4.022   4.480   6.463 -0.4426 -1.0125 -0.0381
 6815TIP3    H144640   4.040   4.543   6.393 -0.2876 -1.6207 -0.5597
 6815TIP3    H244641   4.005   4.533   6.540  0.8607 -0.3349 -0.1804
 6816TIP3   OH244642   0.151   0.960   8.660  0.3368  0.2159  0.1152
 6816TIP3    H144643   0.169   1.041   8.612 -0.9382  0.6106  0.2497
 6816TIP3    H244644   0.209   0.895   8.621 -0.3892  0.6054 -1.7320
 6817TIP3   OH244645   1.719   6.310   7.852  0.2966 -0.3801 -0.2882
 6817TIP3    H144646   1.629   6.292   7.824  0.0639 -1.0256  0.8288
 6817TIP3    H244647   1.773   6.271   7.783 -0.2418  1.4866 -1.8618
 6818TIP3   OH244648   6.082   1.281   6.015 -0.0841 -0.7095 -0.0617
 6818TIP3    H144649   6.020   1.323   5.955  2.0147  0.5700 -1.4600
 6818TIP3    H244650   6.143   1.235   5.958  1.9654  0.5071  1.0519
 6819TIP3   OH244651   4.760   3.229   8.462 -0.5334 -0.2366  0.1426
 6819TIP3    H144652   4.855   3.225   8.475 -0.5058  1.3722  0.6729
 6819TIP3    H244653   4.724   3.227   8.551 -0.8428  1.4562  0.0878
 6820TIP3   OH244654   3.243   4.605   8.809 -0.4895 -0.1129  0.5251
 6820TIP3    H144655   3.161   4.564   8.837 -0.5289 -0.2743  0.1816
 6820TIP3    H244656   3.217   4.665   8.739 -0.6062  1.4077  1.8152
 6821TIP3   OH244657   2.004   0.877   7.735  0.1353 -0.0537  0.2452
 6821TIP3    H144658   1.960   0.961   7.724  0.5104  0.3405  1.5435
 6821TIP3    H244659   2.032   0.877   7.827  0.2598 -1.5375  0.2269
 6822TIP3   OH244660   4.873   2.549   5.349  0.5313  0.2487  0.0038
 6822TIP3    H144661   4.917   2.582   5.271  1.9048 -1.0216  0.1898
 6822TIP3    H244662   4.943   2.507   5.400 -0.3594  0.8903  1.8440
 6823TIP3   OH244663   4.247   0.806   6.163  0.2108  0.2095  0.0842
 6823TIP3    H144664   4.188   0.731   6.176 -0.2347  0.8853  2.3542
 6823TIP3    H244665   4.333   0.775   6.192  1.0529 -0.6958 -2.9936
 6824TIP3   OH244666   3.061   0.038  15.203  0.6881 -0.4355  0.2349
 6824TIP3    H144667   3.133   0.054  15.142  0.9369 -2.3234 -0.0279
 6824TIP3    H244668   3.048  -0.057  15.200 -1.8720 -0.1365  0.2144
 6825TIP3   OH244669   0.348   3.423   8.111  0.2032  0.4803 -0.6411
 6825TIP3    H144670   0.274   3.456   8.161 -0.0200 -0.2845 -0.4501
 6825TIP3    H244671   0.309   3.385   8.032  0.2583 -0.9098 -0.0348
 6826TIP3   OH244672   5.140   4.808   6.441  0.1914  0.1939 -0.0920
 6826TIP3    H144673   5.100   4.725   6.467  1.1567 -0.5126 -0.8227
 6826TIP3    H244674   5.163   4.850   6.524  1.0857 -0.9712  0.2753
 6827TIP3   OH244675   4.233   1.996   6.247 -0.1148  0.5204  0.4182
 6827TIP3    H144676   4.188   1.924   6.292  1.3758  0.0143  1.1636
 6827TIP3    H244677   4.164   2.059   6.227 -0.8366  1.1212  4.0598
 6828TIP3   OH244678   6.532   0.106   7.510 -0.0332  0.3187  0.4048
 6828TIP3    H144679   6.486   0.040   7.562 -1.5542  0.6910 -0.3845
 6828TIP3    H244680   6.462   0.149   7.460  1.0343  1.8982  0.2155
 6829TIP3   OH244681   2.545   3.665   6.051 -0.4377 -0.4236 -0.0832
 6829TIP3    H144682   2.613   3.725   6.081  0.6984 -0.7979 -1.7599
 6829TIP3    H244683   2.551   3.589   6.110 -0.7945  0.3844  1.0273
 6830TIP3   OH244684   3.732   4.058   9.509 -0.5807 -0.4162 -0.3217
 6830TIP3    H144685   3.738   4.066   9.604  0.5655 -1.3197 -0.3064
 6830TIP3    H244686   3.643   4.025   9.494 -1.3281  1.1794  0.3070
 6831TIP3   OH244687   5.285   1.191   7.966 -0.3273 -0.2276 -0.4573
 6831TIP3    H144688   5.249   1.215   7.880  0.3439  2.2556 -0.0973
 6831TIP3    H244689   5.208   1.183   8.022 -0.7969 -2.1165 -1.2625
 6832TIP3   OH244690   1.512   5.212   7.685 -0.0456  0.3808  0.2089
 6832TIP3    H144691   1.553   5.126   7.697  0.4463  0.7021  0.9276
 6832TIP3    H244692   1.468   5.229   7.768 -2.0086 -0.1190 -0.6629
 6833TIP3   OH244693   4.782   0.355   6.127 -0.1575  0.1911  0.0496
 6833TIP3    H144694   4.756   0.359   6.219 -0.8822  1.5461 -0.1889
 6833TIP3    H244695   4.751   0.269   6.097 -2.4320  0.8182  0.3860
 6834TIP3   OH244696   0.342   4.934   8.199 -0.0712  0.3841 -0.0885
 6834TIP3    H144697   0.258   4.938   8.152  0.3237 -0.1385 -0.8683
 6834TIP3    H244698   0.318   4.933   8.291 -0.9648 -0.4761 -0.3128
 6835TIP3   OH244699   3.291   5.317   7.223  0.3130  0.4527 -0.2548
 6835TIP3    H144700   3.322   5.305   7.133  1.7270  2.3430 -0.0634
 6835TIP3    H244701   3.340   5.252   7.273 -0.7654 -0.8780 -0.8700
 6836TIP3   OH244702   2.789   4.629   6.751  0.2185  0.1833  0.0899
 6836TIP3    H144703   2.735   4.674   6.685  1.0554  0.5946 -0.3279
 6836TIP3    H244704   2.776   4.680   6.831 -1.7118 -0.9871  0.5791
 6837TIP3   OH244705   0.013   2.759   7.883 -0.2367  0.2704 -0.4444
 6837TIP3    H144706   0.061   2.842   7.886 -1.8909  1.3249 -1.5689
 6837TIP3    H244707  -0.008   2.746   7.791 -1.0056 -0.8173 -0.1428
 6838TIP3   OH244708   3.668   4.598   6.602 -0.4944  0.0524 -0.2301
 6838TIP3    H144709   3.595   4.550   6.643  0.7488 -2.0852 -0.3536
 6838TIP3    H244710   3.669   4.567   6.511  0.3646  0.2761 -0.3066
 6839TIP3   OH244711   0.606   5.140   7.119 -0.6492  0.1131  0.6081
 6839TIP3    H144712   0.682   5.197   7.111 -0.5595  0.3847  2.8702
 6839TIP3    H244713   0.642   5.052   7.111 -0.1856  0.2579  1.0402
 6840TIP3   OH244714   1.501   2.376   7.589 -0.3265  0.8720  0.2592
 6840TIP3    H144715   1.520   2.331   7.507  2.1063  0.3058  1.0452
 6840TIP3    H244716   1.414   2.345   7.614 -0.0746 -0.8633 -0.8632
 6841TIP3   OH244717   2.337   5.461   6.454 -0.5447 -0.5305  0.3143
 6841TIP3    H144718   2.356   5.425   6.368 -0.2675  1.1376 -0.3631
 6841TIP3    H244719   2.335   5.555   6.441  2.6374  0.0518  2.6669
 6842TIP3   OH244720   3.315   4.199   8.354  0.3229 -0.2249  0.4736
 6842TIP3    H144721   3.228   4.213   8.391  0.0744 -0.1150 -0.1468
 6842TIP3    H244722   3.299   4.153   8.272  0.6730  1.6290 -0.7038
 6843TIP3   OH244723   6.385   5.920   6.385  0.0595 -0.3044  0.5035
 6843TIP3    H144724   6.333   5.873   6.320 -0.6397  0.8688  0.1745
 6843TIP3    H244725   6.470   5.876   6.384  0.3743  0.1831 -1.8582
 6844TIP3   OH244726   3.698   3.740   8.681  0.1640  0.1843  0.7081
 6844TIP3    H144727   3.787   3.739   8.714 -0.0305  0.1996  1.2541
 6844TIP3    H244728   3.676   3.648   8.666  0.5633  0.2400 -0.2530
 6845TIP3   OH244729   3.349   4.447   9.314 -0.2021 -0.0471 -0.1923
 6845TIP3    H144730   3.387   4.362   9.337  1.1645  0.9111  1.4095
 6845TIP3    H244731   3.421   4.494   9.272 -0.3973  0.9068  0.5140
 6846TIP3   OH244732   6.555   2.453   8.904  0.3190  0.3899 -0.1169
 6846TIP3    H144733   6.464   2.478   8.889  0.4582  0.8478 -0.2189
 6846TIP3    H244734   6.601   2.536   8.913  0.8319  0.1764 -0.7162
 6847TIP3   OH244735   4.897   0.842   7.419  0.5155  0.0799 -0.1910
 6847TIP3    H144736   4.941   0.912   7.469 -0.5247  0.8838 -0.3661
 6847TIP3    H244737   4.942   0.762   7.445  1.5723  0.7816  0.2169
 6848TIP3   OH244738   4.230   1.471   7.305  0.0179  0.0485  0.4516
 6848TIP3    H144739   4.204   1.415   7.377  0.1996 -1.9037 -0.9326
 6848TIP3    H244740   4.326   1.474   7.310  0.0175  0.1229  0.4258
 6849TIP3   OH244741   5.579   6.335   6.145 -0.0290 -0.2968  0.4817
 6849TIP3    H144742   5.561   6.428   6.163  0.0207 -0.0455 -0.6774
 6849TIP3    H244743   5.595   6.332   6.051  2.4041 -1.1069  0.8628
 6850TIP3   OH244744   4.663   2.669   7.164 -0.0198  0.1370 -0.2357
 6850TIP3    H144745   4.741   2.614   7.162  0.6031  0.6250  3.6632
 6850TIP3    H244746   4.594   2.615   7.126  1.8582 -0.7929 -2.5609
 6851TIP3   OH244747   4.555   5.090   8.028 -0.1853 -0.2065 -0.1948
 6851TIP3    H144748   4.612   5.141   7.972 -0.0565 -0.4588 -0.2953
 6851TIP3    H244749   4.467   5.110   7.998 -0.1456  0.1062 -0.1051
 6852TIP3   OH244750   0.609   6.149   7.795  0.0312  0.0368 -0.8478
 6852TIP3    H144751   0.611   6.054   7.780  1.8443  0.1219 -1.3667
 6852TIP3    H244752   0.516   6.172   7.790 -0.2758 -1.3606 -3.1805
 6853TIP3   OH244753   6.250   1.156   5.852 -0.9099  0.1934  0.0736
 6853TIP3    H144754   6.187   1.089   5.879  0.4605 -1.0453  0.3073
 6853TIP3    H244755   6.224   1.177   5.762 -2.1173  0.2910  0.4214
 6854TIP3   OH244756   0.099   1.965   8.456  0.0667  0.0350  0.0197
 6854TIP3    H144757   0.121   1.904   8.386 -0.5573  0.4896 -0.5830
 6854TIP3    H244758   0.003   1.974   8.451 -0.1116 -0.6612  1.5349
 6855TIP3   OH244759   0.743   4.567   5.569  0.0698  0.1069 -0.4772
 6855TIP3    H144760   0.653   4.587   5.545  0.4712  1.1370 -1.1735
 6855TIP3    H244761   0.767   4.636   5.632 -0.0594 -0.9589  0.7955
 6856TIP3   OH244762   4.473   0.177   6.330 -0.6317  0.1608 -0.6879
 6856TIP3    H144763   4.539   0.152   6.265 -1.6813 -1.9342 -1.0418
 6856TIP3    H244764   4.439   0.094   6.363 -0.3249  1.1680  2.4152
 6857TIP3   OH244765   2.878   3.644   8.726 -0.1064 -0.1264 -0.2731
 6857TIP3    H144766   2.822   3.568   8.710  2.5336 -2.5158  0.8425
 6857TIP3    H244767   2.917   3.663   8.641  1.1833 -1.8189 -0.1138
 6858TIP3   OH244768   0.304   2.145   6.717 -0.5126 -0.1256 -0.4722
 6858TIP3    H144769   0.258   2.105   6.791 -0.6773  1.3965  0.2920
 6858TIP3    H244770   0.304   2.078   6.649  1.2516 -2.2726  1.4930
 6859TIP3   OH244771   3.623   4.703   8.221 -0.1952 -0.1324 -0.4052
 6859TIP3    H144772   3.570   4.712   8.300 -0.3368  0.9354 -0.6038
 6859TIP3    H244773   3.668   4.619   8.232 -0.5920 -0.2343  0.5726
 6860TIP3   OH244774   6.175   5.919   7.276 -0.1976  0.6150 -0.5961
 6860TIP3    H144775   6.095   5.956   7.313  0.8469  2.1506  0.2313
 6860TIP3    H244776   6.182   5.957   7.189  1.1669  2.9644  0.4571
 6861TIP3   OH244777   3.504   4.214   9.316  0.4616 -0.3159 -0.1140
 6861TIP3    H144778   3.501   4.127   9.358  0.1765 -0.6255 -0.7678
 6861TIP3    H244779   3.597   4.226   9.293  0.1051 -1.7375 -2.6468
 6862TIP3   OH244780   4.813   5.175   7.902  0.2942  0.1602 -0.8496
 6862TIP3    H144781   4.876   5.231   7.948  0.0944 -0.1210 -0.2128
 6862TIP3    H244782   4.834   5.086   7.931 -0.9104  0.1300  0.0445
 6863TIP3   OH244783   4.929   0.647   6.217 -0.5634 -0.3830 -0.0798
 6863TIP3    H144784   4.895   0.577   6.161  1.0120 -0.1402 -1.3951
 6863TIP3    H244785   4.944   0.605   6.302 -0.7249 -1.3483 -0.5195
 6864TIP3   OH244786   5.167   2.826   5.369  0.3207  0.1452  0.2750
 6864TIP3    H144787   5.118   2.816   5.451  0.5267  0.7487  0.4813
 6864TIP3    H244788   5.181   2.921   5.361  1.3270 -0.0045  0.1360
 6865TIP3   OH244789   3.900   6.120   5.789 -0.6930 -0.0632  0.1676
 6865TIP3    H144790   3.982   6.165   5.812 -0.1961 -2.0584  2.8643
 6865TIP3    H244791   3.929   6.036   5.752 -1.5326 -0.3340  0.1078
 6866TIP3   OH244792   4.390   5.475   6.234  0.4289  0.6588 -0.3083
 6866TIP3    H144793   4.424   5.444   6.318  0.3575  0.2466 -0.4266
 6866TIP3    H244794   4.467   5.486   6.179  0.3582 -0.7037 -0.7177
 6867TIP3   OH244795   4.105   6.672   7.950 -0.8167 -0.3049  0.0141
 6867TIP3    H144796   4.051   6.741   7.989  0.3462  0.6638 -0.0395
 6867TIP3    H244797   4.096   6.685   7.856 -0.2961  0.0258  0.0067
 6868TIP3   OH244798   2.591   1.539   6.855  0.1649  0.1814 -0.4625
 6868TIP3    H144799   2.534   1.588   6.796  0.3628 -1.1276 -1.8251
 6868TIP3    H244800   2.578   1.579   6.941 -0.2551  2.0537 -1.3593
 6869TIP3   OH244801   4.348   4.456   9.473 -0.4030  0.1450 -0.7042
 6869TIP3    H144802   4.298   4.377   9.455 -0.4578  0.1659 -0.6464
 6869TIP3    H244803   4.306   4.524   9.420 -0.8910  0.3180 -0.1202
 6870TIP3   OH244804   5.154   5.683   8.010 -0.2000 -0.3968  0.2765
 6870TIP3    H144805   5.249   5.686   8.024 -0.0567 -1.7419 -0.2419
 6870TIP3    H244806   5.117   5.728   8.085  0.9074  1.7450 -0.3780
 6871TIP3   OH244807   5.076   3.621   6.850 -0.0575 -0.2685  0.2971
 6871TIP3    H144808   4.990   3.659   6.834 -0.9078 -1.9111  0.7034
 6871TIP3    H244809   5.096   3.642   6.941  0.2802  0.6587  0.0174
 6872TIP3   OH244810   0.884   1.592   7.346  0.1594 -0.3015 -0.1685
 6872TIP3    H144811   0.808   1.634   7.305  0.6013 -0.3408 -1.0561
 6872TIP3    H244812   0.926   1.662   7.396 -1.5522 -0.7345  1.9848
 6873TIP3   OH244813   3.037   5.495   7.820 -0.5049 -0.5929 -0.4419
 6873TIP3    H144814   3.059   5.490   7.914  1.5866 -0.6205 -0.8771
 6873TIP3    H244815   3.045   5.405   7.789 -3.3420 -0.9856 -0.2841
 6874TIP3   OH244816   2.872   4.370   7.192  0.5877  0.0552 -0.0041
 6874TIP3    H144817   2.869   4.303   7.261 -1.1325  0.3120  0.2000
 6874TIP3    H244818   2.895   4.321   7.113 -0.5818 -0.8016  0.1588
 6875TIP3   OH244819   5.981   0.555   7.218 -0.0757 -0.4632  0.7328
 6875TIP3    H144820   6.032   0.552   7.137 -1.7696  0.3010 -0.4049
 6875TIP3    H244821   5.957   0.464   7.234  0.6131 -0.6720  0.6198
 6876TIP3   OH244822   2.528   4.993   5.652 -0.5279  0.6140 -0.3612
 6876TIP3    H144823   2.447   4.973   5.605 -0.4232  0.3727 -0.4457
 6876TIP3    H244824   2.524   5.087   5.669 -0.6050  0.6889 -0.7842
 6877TIP3   OH244825   0.792   3.395   6.324  0.6277 -0.1772 -0.3321
 6877TIP3    H144826   0.858   3.353   6.379  0.1729  0.4607  0.7300
 6877TIP3    H244827   0.835   3.473   6.290  1.1057 -0.8789 -1.4051
 6878TIP3   OH244828   1.752   3.261   5.678  0.2133  0.2101  0.1936
 6878TIP3    H144829   1.706   3.178   5.670 -0.8698  0.9657 -2.3349
 6878TIP3    H244830   1.684   3.328   5.669  1.3130  1.3576  0.0192
 6879TIP3   OH244831   3.966   0.084   8.794 -0.2520  0.4725 -0.4836
 6879TIP3    H144832   3.978   0.118   8.882  0.4388  0.5649 -0.6089
 6879TIP3    H244833   3.881   0.040   8.796 -1.2284  2.2744 -0.3397
 6880TIP3   OH244834   2.391   3.749   6.906 -0.2936 -0.3829  0.1821
 6880TIP3    H144835   2.443   3.672   6.884  1.7380  0.5661  1.3670
 6880TIP3    H244836   2.356   3.779   6.822  1.9190 -0.5369 -0.8729
 6881TIP3   OH244837   5.130   1.267   7.744 -0.5205  0.0180 -0.2203
 6881TIP3    H144838   5.053   1.324   7.742 -0.5345  0.0007 -0.1735
 6881TIP3    H244839   5.094   1.179   7.756 -0.4635  0.0721  0.4026
 6882TIP3   OH244840   3.027   5.815   7.193 -0.3439  0.2659  0.2444
 6882TIP3    H144841   3.114   5.836   7.160 -0.3482 -3.0046 -2.3976
 6882TIP3    H244842   3.039   5.734   7.243 -1.7995 -0.2648 -0.1896
 6883TIP3   OH244843   4.181   4.671   9.417 -0.3919 -0.1927  0.1441
 6883TIP3    H144844   4.094   4.684   9.378  0.0254  1.5594 -0.2973
 6883TIP3    H244845   4.184   4.734   9.489  0.5426 -0.1826  0.1020
 6884TIP3   OH244846   1.448   6.374   7.224  0.3528 -0.2852  0.3498
 6884TIP3    H144847   1.382   6.386   7.155  1.8484  0.3462 -1.0240
 6884TIP3    H244848   1.430   6.445   7.286 -0.1882 -0.0505 -0.0654
 6885TIP3   OH244849   3.615   1.356   5.647  0.5603 -0.0843 -0.2911
 6885TIP3    H144850   3.588   1.406   5.569  1.0992  2.3863  1.0332
 6885TIP3    H244851   3.613   1.264   5.617 -0.5070  0.6576 -2.8251
 6886TIP3   OH244852   5.986   1.075   6.195 -0.3950  0.1188 -0.0949
 6886TIP3    H144853   5.935   1.121   6.262 -0.3669 -1.0805  0.7877
 6886TIP3    H244854   6.050   1.140   6.165  0.0311  0.5043  1.5365
 6887TIP3   OH244855   0.774   6.398   7.977  0.3655  0.3158  0.1179
 6887TIP3    H144856   0.841   6.462   7.953  0.3574 -0.2776 -1.5952
 6887TIP3    H244857   0.698   6.421   7.923  0.1486 -0.7393 -0.0446
 6888TIP3   OH244858   6.025   0.306   6.290  0.8201  0.0556  0.4510
 6888TIP3    H144859   5.997   0.222   6.256  0.5191  0.4770 -0.3672
 6888TIP3    H244860   6.074   0.285   6.370  1.7419 -0.9659 -0.3627
 6889TIP3   OH244861   3.171   2.433   7.726  0.1040  0.4618 -0.2593
 6889TIP3    H144862   3.118   2.455   7.802  0.5522 -0.6188  0.4025
 6889TIP3    H244863   3.113   2.380   7.670  0.2340 -0.0500  0.0836
 6890TIP3   OH244864   4.671   3.448   6.569 -0.3851 -0.3276 -0.1015
 6890TIP3    H144865   4.766   3.447   6.581 -0.5248 -1.8919  1.1136
 6890TIP3    H244866   4.648   3.541   6.571  0.9661  0.0234  1.1044
 6891TIP3   OH244867   2.577   5.189   6.817 -0.3238  0.3430 -0.0855
 6891TIP3    H144868   2.665   5.221   6.837 -0.3998  0.3118  0.2962
 6891TIP3    H244869   2.519   5.244   6.869 -0.5522  0.5580 -0.5624
 6892TIP3   OH244870   2.247   4.237   9.128 -0.2963 -0.6700  0.1901
 6892TIP3    H144871   2.264   4.167   9.191 -0.0406  0.7721  1.8023
 6892TIP3    H244872   2.195   4.301   9.177 -1.1049 -0.0219 -1.4403
 6893TIP3   OH244873   1.147   0.803   8.631 -0.5800  0.7810 -0.5151
 6893TIP3    H144874   1.172   0.763   8.714 -1.9694  3.3286  1.2798
 6893TIP3    H244875   1.091   0.738   8.588 -1.5930  0.1910  1.5867
 6894TIP3   OH244876   2.516   3.373   7.205  0.4151  0.5463 -0.6918
 6894TIP3    H144877   2.572   3.415   7.270  0.8588 -0.3537 -0.4766
 6894TIP3    H244878   2.466   3.445   7.166 -0.4228  1.0330  1.1688
 6895TIP3   OH244879   4.122   2.540   7.299 -0.2395 -0.3577 -0.2862
 6895TIP3    H144880   4.155   2.629   7.305  0.9860 -0.8887  1.9986
 6895TIP3    H244881   4.088   2.533   7.209  1.7806  1.6372 -1.3051
 6896TIP3   OH244882   2.710   4.150   6.742  0.0501 -1.0485  0.1484
 6896TIP3    H144883   2.683   4.241   6.742  1.0552 -0.7420  0.3012
 6896TIP3    H244884   2.656   4.109   6.810 -0.1920 -0.5061  0.2843
 6897TIP3   OH244885   6.596   2.217   9.046  0.1995 -0.1638 -0.2454
 6897TIP3    H144886   6.548   2.144   9.008 -1.3208 -0.2508  1.6864
 6897TIP3    H244887   6.557   2.295   9.005  0.3588 -0.3485 -0.7527
 6898TIP3   OH244888   6.420   2.039   8.933  0.8600 -0.2745  0.4858
 6898TIP3    H144889   6.447   1.950   8.909  0.4902 -0.9089  2.2393
 6898TIP3    H244890   6.338   2.054   8.886  0.9644 -0.8265  0.1251
 6899TIP3   OH244891   0.088   1.498   7.741  0.3934  0.6407  0.2761
 6899TIP3    H144892   0.171   1.492   7.693  1.2805 -0.1432  1.8262
 6899TIP3    H244893   0.030   1.437   7.697  1.2760 -0.2748  0.3379
 6900TIP3   OH244894   3.206   0.560   5.773 -0.5448  0.7017 -0.3351
 6900TIP3    H144895   3.231   0.586   5.685 -1.4727  2.9287 -0.0070
 6900TIP3    H244896   3.289   0.544   5.818  0.0563  2.0484 -0.9194
 6901TIP3   OH244897   3.959   5.202   8.590  0.2667 -0.1382 -0.6011
 6901TIP3    H144898   4.017   5.275   8.612  0.3144 -0.3007 -0.1868
 6901TIP3    H244899   4.003   5.124   8.623 -0.1377 -0.2738 -0.3679
 6902TIP3   OH244900   5.767   6.713   5.911 -0.1517 -0.0110 -0.5945
 6902TIP3    H144901   5.805   6.799   5.927  1.3032 -0.6628 -0.3990
 6902TIP3    H244902   5.675   6.731   5.890 -0.4748  1.4022  1.7357
 6903TIP3   OH244903   3.571   2.358   5.795  0.5004 -0.0786 -0.2588
 6903TIP3    H144904   3.581   2.432   5.735 -0.2175 -0.0629 -0.3709
 6903TIP3    H244905   3.606   2.283   5.746  0.9776  0.1332 -0.2480
 6904TIP3   OH244906   0.042   3.267   5.978 -0.2043  0.4427 -0.4412
 6904TIP3    H144907   0.116   3.299   5.925  0.5039  1.2838  0.9916
 6904TIP3    H244908   0.019   3.342   6.034  0.0908 -0.8790  1.5324
 6905TIP3   OH244909   4.670   4.505   6.888  0.0559 -0.1918 -0.3712
 6905TIP3    H144910   4.740   4.533   6.948 -0.3821 -1.0796  0.6095
 6905TIP3    H244911   4.714   4.447   6.825  0.1122 -1.4527  0.7660
 6906TIP3   OH244912   0.154   6.713   7.034 -0.3271 -0.5072 -0.3196
 6906TIP3    H144913   0.182   6.796   7.073  0.9187  0.2351 -2.6072
 6906TIP3    H244914   0.150   6.731   6.940 -1.9890 -2.5218 -0.6934
 6907TIP3   OH244915   6.360   4.982   6.223 -0.2409 -0.1126  0.0850
 6907TIP3    H144916   6.351   4.982   6.127 -0.5565 -0.4342  0.1136
 6907TIP3    H244917   6.272   4.996   6.255 -0.1252  0.0516  0.3329
 6908TIP3   OH244918   3.007   6.032   6.226 -0.0871  0.2944 -0.2255
 6908TIP3    H144919   3.079   5.976   6.255 -1.0412 -1.5088 -1.1590
 6908TIP3    H244920   3.041   6.121   6.234  0.7559 -0.2041  3.4049
 6909TIP3   OH244921   1.069   5.130   6.515  0.4392  0.3648  0.8451
 6909TIP3    H144922   1.011   5.185   6.463  3.6682  0.6345 -2.9919
 6909TIP3    H244923   1.134   5.191   6.551  0.6822 -0.3151  1.5957
 6910TIP3   OH244924   4.505   1.423   7.305 -0.1925  0.0745  0.1883
 6910TIP3    H144925   4.584   1.450   7.353 -0.2953  0.5192  0.1142
 6910TIP3    H244926   4.485   1.335   7.338 -0.0482  0.2266  0.6870
 6911TIP3   OH244927   6.687   4.856   7.800 -0.5957  0.0725 -0.3988
 6911TIP3    H144928   6.617   4.793   7.780 -0.7184 -0.5641  1.7540
 6911TIP3    H244929   6.643   4.941   7.798 -1.7646 -0.3852  1.8599
 6912TIP3   OH244930   1.049   3.044   5.754 -0.1912  0.2870  0.3849
 6912TIP3    H144931   1.009   3.067   5.670 -0.3622  0.1667  0.4319
 6912TIP3    H244932   1.137   3.080   5.749  0.6926 -1.8240 -0.8628
 6913TIP3   OH244933   0.894   1.889   6.498  0.1849 -0.2270  0.2165
 6913TIP3    H144934   0.927   1.822   6.558  0.1260 -0.3005  0.1662
 6913TIP3    H244935   0.923   1.861   6.411 -0.5281 -0.6162  0.0938
 6914TIP3   OH244936   2.334   0.644   8.432  0.2833  0.0262 -0.0150
 6914TIP3    H144937   2.263   0.705   8.417  1.4218  1.8496  1.5806
 6914TIP3    H244938   2.388   0.650   8.353  0.3886  1.1260  0.1320
 6915TIP3   OH244939   3.998   5.742   7.701 -0.2048  0.0845  0.2110
 6915TIP3    H144940   3.956   5.686   7.766 -0.2536  1.1327  1.1223
 6915TIP3    H244941   4.090   5.745   7.727 -0.3158  0.8975  0.5330
 6916TIP3   OH244942   6.332   2.595   6.249 -0.4400  0.0895  0.3705
 6916TIP3    H144943   6.300   2.529   6.188  0.9732  0.6520 -1.0779
 6916TIP3    H244944   6.275   2.671   6.234  0.4359  0.5278 -0.9732
 6917TIP3   OH244945   1.112   2.110   6.235 -0.0362  0.2980  0.2248
 6917TIP3    H144946   1.028   2.068   6.213 -0.0121 -0.1060  0.8825
 6917TIP3    H244947   1.123   2.177   6.167 -0.7674  0.1852 -0.0221
 6918TIP3   OH244948   6.237   4.167   6.717 -0.2889 -0.1446  0.2202
 6918TIP3    H144949   6.257   4.156   6.624 -0.6017 -0.5230  0.1944
 6918TIP3    H244950   6.168   4.103   6.735  0.6502 -0.9841  1.0067
 6919TIP3   OH244951   0.914   3.229   5.943  0.0150  0.1665 -0.6080
 6919TIP3    H144952   0.953   3.197   6.024  1.3482 -0.4385 -1.4436
 6919TIP3    H244953   0.949   3.171   5.875 -0.4693  1.1169 -1.7159
 6920TIP3   OH244954   2.929   0.450   7.743  0.5140  0.2214 -0.3634
 6920TIP3    H144955   2.866   0.382   7.765  0.4050  0.1390 -0.9309
 6920TIP3    H244956   3.015   0.410   7.759  0.4343  0.4184  0.6586
 6921TIP3   OH244957   6.703   3.735   7.908  0.5977 -0.1113  0.3044
 6921TIP3    H144958   6.745   3.699   7.830 -1.0631  0.9890 -1.1717
 6921TIP3    H244959   6.753   3.814   7.928  1.0406 -0.4061  0.3836
 6922TIP3   OH244960   4.306   0.439   7.116 -0.5384  0.9120  0.1352
 6922TIP3    H144961   4.251   0.370   7.079 -0.9873  2.1356 -1.6018
 6922TIP3    H244962   4.268   0.458   7.201  0.1243 -1.5550  1.0550
 6923TIP3   OH244963   4.735   6.478   6.604  0.0102 -0.3851 -0.2913
 6923TIP3    H144964   4.766   6.568   6.596 -0.1726 -0.2839  0.1041
 6923TIP3    H244965   4.812   6.424   6.586  0.1645 -0.1489 -0.3428
 6924TIP3   OH244966   3.643   0.123   7.457 -0.0907 -0.6749  0.3688
 6924TIP3    H144967   3.610   0.205   7.422 -0.9966 -0.5274  1.5045
 6924TIP3    H244968   3.695   0.085   7.386 -0.6677  0.2862 -0.5891
 6925TIP3   OH244969   2.150   3.541   5.766  0.2773  0.6781  0.3972
 6925TIP3    H144970   2.212   3.513   5.833  0.9744  0.1146 -0.4601
 6925TIP3    H244971   2.186   3.622   5.731  0.2931  0.5950  0.2175
 6926TIP3   OH244972   4.150   0.283   8.739  0.2261  0.2131 -0.0825
 6926TIP3    H144973   4.087   0.211   8.750  0.0256  0.0198 -2.0016
 6926TIP3    H244974   4.116   0.353   8.794  0.8181 -1.3417  2.4224
 6927TIP3   OH244975   0.513   3.179   8.179  0.1017  0.1140 -0.0194
 6927TIP3    H144976   0.555   3.235   8.243 -1.1869 -0.5414  1.4535
 6927TIP3    H244977   0.429   3.220   8.161  0.3396  0.1586 -1.1355
 6928TIP3   OH244978   1.280   2.999   6.883 -0.6089 -0.4045  0.0964
 6928TIP3    H144979   1.297   3.006   6.790 -0.4215  2.6732  0.2499
 6928TIP3    H244980   1.188   3.026   6.892  0.0070  1.6591  0.9167
 6929TIP3   OH244981   2.550   5.968   7.561  0.1486  0.0107  0.1424
 6929TIP3    H144982   2.476   6.017   7.598  0.0215 -0.0500 -0.0284
 6929TIP3    H244983   2.599   6.032   7.510  0.2623  0.0698  0.3264
 6930TIP3   OH244984   3.689   2.989   7.513 -0.0567 -0.1515 -0.0651
 6930TIP3    H144985   3.599   3.014   7.490 -0.5631 -0.3217  1.5548
 6930TIP3    H244986   3.722   3.063   7.564  0.6652 -0.1785 -0.4804
 6931TIP3   OH244987   2.069   2.961   8.427  0.7201  0.1719  0.2608
 6931TIP3    H144988   2.020   2.996   8.501  0.2653  0.2929 -0.0943
 6931TIP3    H244989   2.154   3.005   8.431 -0.0927  1.8893 -0.6138
 6932TIP3   OH244990   6.016   1.001   5.939 -0.2488  0.1129  0.2369
 6932TIP3    H144991   5.985   1.045   6.018 -0.6723 -0.4778  0.4160
 6932TIP3    H244992   5.966   0.919   5.937 -0.3258  0.1744 -0.7058
 6933TIP3   OH244993   4.989   2.720   8.264 -0.1487 -0.0311 -0.3026
 6933TIP3    H144994   5.027   2.806   8.284  1.7607 -0.6419 -1.1026
 6933TIP3    H244995   4.980   2.719   8.169  0.1297 -0.8001 -0.3298
 6934TIP3   OH244996   0.754   4.113   7.956 -0.2813 -0.3562 -0.3564
 6934TIP3    H144997   0.705   4.146   7.881  0.1009 -1.0070 -0.9099
 6934TIP3    H244998   0.706   4.144   8.032 -0.8225  0.0959 -0.8712
 6935TIP3   OH244999   2.790   4.208   9.724  0.3735 -0.0803  0.7100
 6935TIP3    H145000   2.753   4.123   9.746  0.3075  0.1148  1.3613
 6935TIP3    H245001   2.884   4.197   9.738  0.3394  0.0228  1.0198
 6936TIP3   OH245002   3.071   3.051   8.003  0.5007  0.4614 -0.6522
 6936TIP3    H145003   3.158   3.026   7.973  0.7923 -0.0248  0.5202
 6936TIP3    H245004   3.075   3.043   8.098 -0.3169  2.1226 -0.4401
 6937TIP3   OH245005   2.161   4.441   7.215  0.1590  0.4892 -0.2208
 6937TIP3    H145006   2.147   4.385   7.138 -1.4413  0.6068 -0.0641
 6937TIP3    H245007   2.164   4.530   7.179  1.2525  0.4225 -0.3202
 6938TIP3   OH245008   4.245   1.012   6.374 -0.2537 -0.3891  0.2330
 6938TIP3    H145009   4.243   1.092   6.322  1.9192  0.6334  1.5688
 6938TIP3    H245010   4.277   0.945   6.313  0.2374  0.3115 -0.2983
 6939TIP3   OH245011   5.409   2.418   9.029 -0.8167 -0.0325 -0.2923
 6939TIP3    H145012   5.452   2.347   9.077 -0.7871  0.0675 -0.1727
 6939TIP3    H245013   5.443   2.498   9.068 -1.8087  0.0515  0.4376
 6940TIP3   OH245014   1.187   5.141   5.925 -0.1549 -0.3469  0.4629
 6940TIP3    H145015   1.173   5.066   5.983 -0.7580 -0.6397 -0.0519
 6940TIP3    H245016   1.281   5.138   5.905 -0.4742 -2.1614 -1.1261
 6941TIP3   OH245017   6.287   6.193   8.115 -0.5094 -0.2074 -0.1037
 6941TIP3    H145018   6.338   6.272   8.096 -0.4278 -0.5000 -1.1633
 6941TIP3    H245019   6.208   6.226   8.158  0.1236  0.3255  0.6881
 6942TIP3   OH245020   4.737   4.628   9.090  0.3847 -0.4176 -0.4110
 6942TIP3    H145021   4.800   4.640   9.161  0.9088 -0.3986 -0.8734
 6942TIP3    H245022   4.753   4.702   9.032 -1.2558  0.5657  0.3374
 6943TIP3   OH245023   1.147   4.792   6.303  0.3953 -0.6671 -0.6095
 6943TIP3    H145024   1.232   4.752   6.284  1.6269  1.2472  0.5884
 6943TIP3    H245025   1.147   4.806   6.397 -1.2894 -0.6414 -0.5823
 6944TIP3   OH245026   5.971   3.857   5.608  0.0422 -0.0680 -0.3135
 6944TIP3    H145027   5.952   3.845   5.701  0.3868  1.0611 -0.0704
 6944TIP3    H245028   6.056   3.902   5.607 -0.7536  1.5010 -1.0961
 6945TIP3   OH245029   2.678   0.835   6.331  0.1698 -0.2025 -0.3918
 6945TIP3    H145030   2.730   0.904   6.372  0.0065 -0.5388  0.4162
 6945TIP3    H245031   2.731   0.805   6.258  0.1877  0.8540 -0.8271
 6946TIP3   OH245032   3.793   2.444   6.698  0.1306 -0.1568 -0.0980
 6946TIP3    H145033   3.886   2.446   6.721  0.4163  1.5891 -1.1864
 6946TIP3    H245034   3.748   2.473   6.777  0.7317  1.3982 -0.2962
 6947TIP3   OH245035   2.196   0.280   8.835 -0.4242  0.1347 -0.3393
 6947TIP3    H145036   2.180   0.371   8.810 -1.7198 -0.2102 -0.8713
 6947TIP3    H245037   2.128   0.260   8.900  0.9561  0.0570  1.1299
 6948TIP3   OH245038   5.308   2.226   6.249 -0.2590  0.0885  0.4324
 6948TIP3    H145039   5.351   2.277   6.180  0.3430  0.6143  1.1790
 6948TIP3    H245040   5.296   2.289   6.320  0.1707 -0.7287  1.2373
 6949TIP3   OH245041   2.072   5.117   5.677  0.0858  0.0756  0.4172
 6949TIP3    H145042   2.110   5.170   5.748  0.5938  2.2298 -1.3578
 6949TIP3    H245043   1.979   5.139   5.677  0.1061  0.1614  0.3453
 6950TIP3   OH245044   4.183   2.676   7.635  0.3183  0.3247 -0.0131
 6950TIP3    H145045   4.195   2.585   7.663 -1.5007  0.3828  1.0803
 6950TIP3    H245046   4.245   2.687   7.563  2.8609 -0.8213  1.8510
 6951TIP3   OH245047   5.587   2.411   5.660  0.2148 -0.4927 -0.0329
 6951TIP3    H145048   5.522   2.373   5.601  0.4241 -1.1042  0.1195
 6951TIP3    H245049   5.609   2.495   5.620 -0.3571 -0.4693 -0.3074
 6952TIP3   OH245050   2.440   0.159   5.754 -0.3587  0.8694 -0.0673
 6952TIP3    H145051   2.535   0.166   5.750 -0.2982  0.5160  0.5507
 6952TIP3    H245052   2.419   0.183   5.845 -0.7972  0.3309 -0.0250
 6953TIP3   OH245053   0.835   0.655   6.534  0.3535 -0.0542  0.2675
 6953TIP3    H145054   0.929   0.658   6.552  0.3761  1.9418  0.0551
 6953TIP3    H245055   0.794   0.669   6.619  0.3213  1.4554  0.0299
 6954TIP3   OH245056   2.765   4.663   6.398  0.2412 -0.2768  1.0394
 6954TIP3    H145057   2.704   4.684   6.468 -0.6232  1.4408 -0.1738
 6954TIP3    H245058   2.848   4.700   6.426  0.2825 -0.9520  1.8325
 6955TIP3   OH245059   0.927   1.621   6.679  0.0090 -0.0763 -0.0807
 6955TIP3    H145060   1.012   1.617   6.635  0.3532  0.1908  0.5478
 6955TIP3    H245061   0.917   1.535   6.719  0.6901  0.3774  1.1163
 6956TIP3   OH245062   0.880   1.044   5.643 -0.0089  0.2936 -0.4679
 6956TIP3    H145063   0.833   0.973   5.600 -1.1160  0.7344 -0.0123
 6956TIP3    H245064   0.962   1.003   5.674 -1.0047 -1.0153  0.5676
 6957TIP3   OH245065   4.979   6.360   6.571 -0.1281 -0.0370  0.1980
 6957TIP3    H145066   5.017   6.374   6.658 -1.1050 -0.5134  0.7157
 6957TIP3    H245067   4.998   6.268   6.551  1.1328  0.3621 -0.6415
 6958TIP3   OH245068   3.520   4.268   8.809  0.2292  0.1760  0.2915
 6958TIP3    H145069   3.518   4.189   8.754 -0.4822 -0.7170  1.5277
 6958TIP3    H245070   3.608   4.303   8.799  0.4408 -0.5740 -0.5705
 6959TIP3   OH245071   0.595   2.386   5.990  0.3753  0.1413  0.1214
 6959TIP3    H145072   0.652   2.387   6.067  0.3876 -1.2796  0.1638
 6959TIP3    H245073   0.618   2.305   5.944 -0.0949  0.6397 -1.0281
 6960TIP3   OH245074   5.467   1.473   7.281  0.2749 -0.2632  0.1478
 6960TIP3    H145075   5.486   1.381   7.264  1.5512  0.2792 -1.6892
 6960TIP3    H245076   5.551   1.509   7.311  0.3600  0.7241 -1.2079
 6961TIP3   OH245077   2.071   3.265   7.553 -0.7359  0.3944 -0.4249
 6961TIP3    H145078   2.102   3.201   7.618 -1.0919  0.1478 -0.4923
 6961TIP3    H245079   2.106   3.348   7.583  0.4447  0.0540 -0.7958
 6962TIP3   OH245080   2.886   4.530   6.019 -0.5595 -0.0258  0.7280
 6962TIP3    H145081   2.814   4.567   6.070  1.1872  1.0459  2.5651
 6962TIP3    H245082   2.849   4.513   5.933 -2.9604  0.5594  1.5846
 6963TIP3   OH245083   6.498   3.428   5.775 -0.3345  0.4006 -0.2436
 6963TIP3    H145084   6.405   3.414   5.758  0.1006 -3.5873 -0.4548
 6963TIP3    H245085   6.513   3.385   5.859  1.1415  2.1610  0.4666
 6964TIP3   OH245086   3.761   1.888   8.045 -0.3900 -0.1465  0.2508
 6964TIP3    H145087   3.830   1.918   8.105 -0.9401 -1.0608  1.3808
 6964TIP3    H245088   3.789   1.919   7.959  1.9530 -1.3162  0.5206
 6965TIP3   OH245089   5.752   0.065   7.018  0.2570 -0.0317 -0.3107
 6965TIP3    H145090   5.700  -0.013   7.039  0.7606 -1.0945 -2.6787
 6965TIP3    H245091   5.688   0.135   7.009 -0.4345 -0.6101 -0.0489
 6966TIP3   OH245092   5.513   2.579   5.873  0.4833  0.3137  0.0411
 6966TIP3    H145093   5.557   2.538   5.798 -1.8115  0.2045 -1.3172
 6966TIP3    H245094   5.420   2.564   5.858 -0.0910  0.6796  2.7241
 6967TIP3   OH245095   5.665   3.371   8.207 -0.0386  0.1495  0.1139
 6967TIP3    H145096   5.730   3.317   8.163  0.1564  1.6778 -1.5831
 6967TIP3    H245097   5.713   3.448   8.237 -1.0194  1.3576 -1.2665
 6968TIP3   OH245098   4.428   1.166   7.403 -0.9261 -0.3301 -0.1450
 6968TIP3    H145099   4.367   1.115   7.457  0.8152 -4.1127 -1.4335
 6968TIP3    H245100   4.408   1.140   7.313  0.1033  1.3380 -0.9157
 6969TIP3   OH245101   1.846   5.984   8.667  0.0036  0.0468  0.7426
 6969TIP3    H145102   1.834   6.079   8.664 -1.6826 -0.1387  0.8819
 6969TIP3    H245103   1.797   5.951   8.591  0.9787 -0.6920  0.4118
 6970TIP3   OH245104   1.337   1.799   7.392  0.1560 -0.2912 -0.4429
 6970TIP3    H145105   1.254   1.778   7.434  1.3660  0.3019  2.5125
 6970TIP3    H245106   1.364   1.717   7.350 -0.6062 -1.3273  1.0185
 6971TIP3   OH245107   3.437   4.419   5.657 -0.1419  0.5061  0.2796
 6971TIP3    H145108   3.457   4.468   5.736 -1.0230 -0.3430  1.0449
 6971TIP3    H245109   3.356   4.372   5.677  0.9993 -1.7963 -0.1556
 6972TIP3   OH245110   2.927   0.791   5.857  0.3812  0.4142  0.1746
 6972TIP3    H145111   2.896   0.745   5.779  3.4621 -0.1486 -0.8433
 6972TIP3    H245112   2.965   0.722   5.912 -0.0806  1.0461  1.3110
 6973TIP3   OH245113   2.081   5.967   7.878 -0.0195  0.1062 -0.3041
 6973TIP3    H145114   2.129   6.046   7.902  0.1358 -0.4508  1.3658
 6973TIP3    H245115   2.140   5.919   7.820  1.0424 -0.0613  0.8698
 6974TIP3   OH245116   4.744   1.411   7.926  0.0274 -0.0309 -0.2721
 6974TIP3    H145117   4.779   1.422   7.838  0.7687 -1.2214 -0.1504
 6974TIP3    H245118   4.811   1.446   7.983 -0.4543  0.7422 -0.1676
 6975TIP3   OH245119   2.418   4.323   7.297  0.2032 -0.0385  0.2840
 6975TIP3    H145120   2.337   4.370   7.279  0.9335  0.8822 -0.6864
 6975TIP3    H245121   2.413   4.303   7.391 -0.6177  1.0303  0.4910
 6976TIP3   OH245122   4.741   0.264   6.611  0.3664 -0.1181 -0.2321
 6976TIP3    H145123   4.836   0.261   6.620  0.2469 -0.5932  1.0774
 6976TIP3    H245124   4.711   0.179   6.644 -0.4650 -0.3214 -1.4582
 6977TIP3   OH245125   2.656   3.425   7.700  0.2229 -0.4751  0.1537
 6977TIP3    H145126   2.582   3.478   7.671 -0.4296 -0.6572  1.3967
 6977TIP3    H245127   2.728   3.488   7.708 -0.0067 -0.1447 -0.3083
 6978TIP3   OH245128   1.767   4.620   6.649  0.2202  0.2505  0.2108
 6978TIP3    H145129   1.807   4.643   6.733  0.6739 -0.2720  0.1360
 6978TIP3    H245130   1.807   4.537   6.625 -0.1264  0.2542 -0.3842
 6979TIP3   OH245131   5.300   6.607   7.111  0.7092  0.1736 -0.1045
 6979TIP3    H145132   5.381   6.619   7.061 -0.1966  0.2811 -1.6078
 6979TIP3    H245133   5.230   6.625   7.048 -0.5469 -2.2654  0.4531
 6980TIP3   OH245134   6.046   2.018   7.094  0.0164  0.3662 -0.5404
 6980TIP3    H145135   6.090   2.051   7.015  0.7239  0.1398 -0.2538
 6980TIP3    H245136   5.988   1.949   7.062  0.6684 -0.0643 -0.8175
 6981TIP3   OH245137   4.840   3.828   6.412  0.1838  0.0586 -0.0867
 6981TIP3    H145138   4.890   3.889   6.358 -1.6317  2.1871  0.4626
 6981TIP3    H245139   4.897   3.752   6.422  2.7926  1.8337 -0.4035
 6982TIP3   OH245140   5.157   1.836   5.807 -0.4685  0.0638 -0.4376
 6982TIP3    H145141   5.130   1.861   5.719  2.1569  1.1644 -1.0124
 6982TIP3    H245142   5.172   1.919   5.853 -0.2254 -0.4964  0.5322
 6983TIP3   OH245143   5.946   0.570   8.044  0.3077 -0.4193 -0.3312
 6983TIP3    H145144   5.910   0.526   8.122  1.0446  0.5880  0.6154
 6983TIP3    H245145   5.945   0.503   7.976 -2.9753 -0.5548 -0.2859
 6984TIP3   OH245146   2.011   6.751   9.163 -0.2654  0.3238 -0.2076
 6984TIP3    H145147   1.988   6.843   9.148  0.5603  0.5383 -0.1536
 6984TIP3    H245148   1.987   6.735   9.254 -2.4891 -0.1517 -0.8108
 6985TIP3   OH245149   5.131   4.126   7.645  0.4712  0.3218 -0.3671
 6985TIP3    H145150   5.162   4.050   7.595  1.5138  0.9252 -0.6811
 6985TIP3    H245151   5.147   4.104   7.736 -1.4159 -0.7794 -0.2673
 6986TIP3   OH245152   2.801   3.255   6.419 -0.2412 -0.1331 -0.5948
 6986TIP3    H145153   2.839   3.342   6.410  1.4479 -0.6627  0.8191
 6986TIP3    H245154   2.717   3.269   6.462  0.8448  0.7105  1.3775
 6987TIP3   OH245155   5.577   1.090   8.568 -0.0355  0.1329  0.3530
 6987TIP3    H145156   5.640   1.121   8.503  2.1450  0.0145  2.3123
 6987TIP3    H245157   5.552   1.169   8.616  1.1851 -0.2700  1.6985
 6988TIP3   OH245158   5.472   3.027   7.982  0.1125 -0.2487 -0.1415
 6988TIP3    H145159   5.501   3.029   8.073  0.1191  0.8803 -0.1464
 6988TIP3    H245160   5.396   2.969   7.982 -0.8042  0.9061  0.8863
 6989TIP3   OH245161   1.000   4.805   5.870 -0.0961  0.2171  0.1213
 6989TIP3    H145162   0.998   4.848   5.956  2.5895 -0.0021  0.3598
 6989TIP3    H245163   1.051   4.726   5.884 -1.7863 -1.1921 -1.1733
 6990TIP3   OH245164   6.548   2.470   8.466 -0.0224 -0.2776  0.2973
 6990TIP3    H145165   6.544   2.561   8.495 -1.3910  0.4174 -1.8169
 6990TIP3    H245166   6.620   2.467   8.403  0.3049 -0.7892  0.6816
 6991TIP3   OH245167   5.629   2.459   7.985  0.2464  0.0835  0.6125
 6991TIP3    H145168   5.546   2.498   8.010 -0.4865 -1.5450  0.8577
 6991TIP3    H245169   5.689   2.484   8.056  0.1222  1.6776  0.1799
 6992TIP3   OH245170   0.284   6.368   6.468 -0.4688 -0.0046 -0.0890
 6992TIP3    H145171   0.192   6.389   6.483 -0.6287 -0.8692  0.2007
 6992TIP3    H245172   0.290   6.350   6.374 -0.0170  2.7423 -0.6676
 6993TIP3   OH245173   4.133   5.741   7.183  0.1012 -0.2734 -0.3282
 6993TIP3    H145174   4.038   5.735   7.169  0.2279  0.6451 -1.7240
 6993TIP3    H245175   4.171   5.704   7.104  0.9121  0.3635 -0.2385
 6994TIP3   OH245176   5.184   1.249   7.163 -0.3018  0.2244  0.1907
 6994TIP3    H145177   5.277   1.272   7.166 -0.0518 -0.6709 -0.2534
 6994TIP3    H245178   5.158   1.242   7.255  0.0245  0.6447  0.3178
 6995TIP3   OH245179   4.022   3.460   7.245 -0.1508 -0.2061  0.1546
 6995TIP3    H145180   4.040   3.463   7.339  0.1954 -2.0834  0.1897
 6995TIP3    H245181   3.934   3.494   7.236 -1.2997 -2.5142  1.5547
 6996TIP3   OH245182   6.584   4.467   7.694 -0.5926 -0.0625 -0.0167
 6996TIP3    H145183   6.564   4.487   7.602 -1.9149  1.2369  0.5059
 6996TIP3    H245184   6.569   4.550   7.740  2.8404  0.1202  1.0119
 6997TIP3   OH245185   1.882   4.918   9.139  0.8216  0.0968 -0.1192
 6997TIP3    H145186   1.899   4.954   9.052 -2.8875 -0.1264 -1.1309
 6997TIP3    H245187   1.912   4.986   9.200  0.6523  1.6747 -1.7090
 6998TIP3   OH245188   5.594   4.898   7.042  0.0061 -0.0662  0.3557
 6998TIP3    H145189   5.638   4.847   7.109  0.1326  0.7932  0.9509
 6998TIP3    H245190   5.644   4.980   7.037  0.3462 -0.3369 -1.2040
 6999TIP3   OH245191   5.765   6.272   8.339  0.0582  0.0347  0.2054
 6999TIP3    H145192   5.681   6.312   8.319 -0.3618 -1.4100 -1.0638
 6999TIP3    H245193   5.769   6.195   8.283  1.2593 -1.1563  1.8313
 7000TIP3   OH245194   3.544   3.321   8.457  0.4801 -0.2276 -0.2302
 7000TIP3    H145195   3.576   3.378   8.526 -0.3462 -0.3759  0.2987
 7000TIP3    H245196   3.493   3.254   8.503 -0.8830  0.2090 -1.0239
 7001TIP3   OH245197   4.902   4.093   6.349 -0.4614  0.0291  0.2718
 7001TIP3    H145198   4.938   4.149   6.280  0.2087  0.4524  0.9514
 7001TIP3    H245199   4.913   4.144   6.430  0.5562 -1.2485  0.9750
 7002TIP3   OH245200   3.865   1.762   8.593 -0.4775  0.3226 -0.1593
 7002TIP3    H145201   3.803   1.716   8.650  0.0932  1.3220  1.3091
 7002TIP3    H245202   3.939   1.702   8.583 -0.1994  0.4854  0.8770
 7003TIP3   OH245203   6.208   4.696   8.463  0.1103  0.2206 -0.2324
 7003TIP3    H145204   6.199   4.643   8.384 -0.6278 -0.5202  0.3276
 7003TIP3    H245205   6.284   4.752   8.447  0.2213 -0.2245 -1.2866
 7004TIP3   OH245206   0.378   1.658   5.775 -0.4142  0.1033  0.1034
 7004TIP3    H145207   0.291   1.622   5.792 -0.5443 -0.0668 -0.8624
 7004TIP3    H245208   0.412   1.607   5.702  0.5778  0.0599  0.5733
 7005TIP3   OH245209   3.465   3.762   8.933  0.9324  0.0466  0.8431
 7005TIP3    H145210   3.464   3.726   9.022  1.5338  0.7410  1.1465
 7005TIP3    H245211   3.375   3.794   8.919  0.8613  0.0318  1.2440
 7006TIP3   OH245212   6.235   0.110   5.954  0.2001  0.4155 -0.2193
 7006TIP3    H145213   6.235   0.173   6.026  0.0721  0.7106 -0.4782
 7006TIP3    H245214   6.188   0.153   5.883 -2.2270 -0.9519  0.4612
 7007TIP3   OH245215   3.617   4.716   7.467 -0.1666 -0.5512 -0.1302
 7007TIP3    H145216   3.648   4.697   7.378  0.1713  1.3563 -0.4642
 7007TIP3    H245217   3.522   4.724   7.458 -0.0944  0.0047 -0.3902
 7008TIP3   OH245218   3.978   6.404   8.511  0.2101 -0.4181 -0.4117
 7008TIP3    H145219   3.906   6.342   8.515  0.9841 -1.3381 -0.3714
 7008TIP3    H245220   4.010   6.397   8.421 -0.2441  0.5686 -0.6592
 7009TIP3   OH245221   5.900   3.344   7.638  0.1527  0.0973 -0.3758
 7009TIP3    H145222   5.824   3.308   7.684  1.1350 -1.9339 -0.2124
 7009TIP3    H245223   5.863   3.408   7.577 -2.1895 -3.0132 -2.6241
 7010TIP3   OH245224   3.649   5.604   7.687  0.2656 -0.2936  0.8590
 7010TIP3    H145225   3.561   5.579   7.715  0.1820  0.7016  1.5669
 7010TIP3    H245226   3.660   5.563   7.602 -0.8011 -0.6199  0.8616
 7011TIP3   OH245227   5.848   0.475   8.320  0.0587 -0.2725  0.3345
 7011TIP3    H145228   5.753   0.487   8.329  0.0246 -0.2921  0.0037
 7011TIP3    H245229   5.862   0.383   8.339  0.0022 -0.2825  0.3283
 7012TIP3   OH245230   5.215   4.544   7.940  0.3372  0.3075  0.4005
 7012TIP3    H145231   5.134   4.589   7.965  0.3393 -0.1396  1.2487
 7012TIP3    H245232   5.257   4.603   7.878 -0.4847  0.6951  0.2002
 7013TIP3   OH245233   6.396   1.178   7.028 -0.9114 -0.6417 -0.1898
 7013TIP3    H145234   6.414   1.094   6.985 -0.5744 -0.2262 -0.8879
 7013TIP3    H245235   6.461   1.238   6.990  0.3855 -0.5785  1.9740
 7014TIP3   OH245236   1.743   6.538   7.663 -0.1906  0.3473  0.2812
 7014TIP3    H145237   1.709   6.465   7.714 -0.2841 -0.5460 -1.0170
 7014TIP3    H245238   1.817   6.570   7.713  0.0100 -0.8114  0.7479
 7015TIP3   OH245239   0.701   4.269   7.086  0.5697  0.4348 -0.0803
 7015TIP3    H145240   0.644   4.330   7.038 -0.7426 -0.4520  0.2993
 7015TIP3    H245241   0.642   4.223   7.146  1.6306 -0.7907  0.0622
 7016TIP3   OH245242   4.315   5.210   8.047 -0.5129  0.2148  0.1834
 7016TIP3    H145243   4.230   5.181   8.014 -0.1863  0.1539 -0.6284
 7016TIP3    H245244   4.319   5.177   8.136 -0.9483 -0.5933 -0.0874
 7017TIP3   OH245245   6.352   6.740   6.907  0.3739  0.2320  0.2845
 7017TIP3    H145246   6.322   6.649   6.899 -0.3854  0.4842  0.2146
 7017TIP3    H245247   6.366   6.753   7.000 -0.9441  0.4768  0.4716
 7018TIP3   OH245248   4.055   3.729   9.482 -0.3432 -0.4638 -0.0907
 7018TIP3    H145249   4.137   3.714   9.433 -0.3390 -0.8109  0.0252
 7018TIP3    H245250   4.063   3.820   9.512 -0.4685 -0.1533 -0.9675
 7019TIP3   OH245251   2.847   4.655   7.116  0.0693  0.0420  0.0836
 7019TIP3    H145252   2.821   4.563   7.113 -1.2065  0.3574  1.0483
 7019TIP3    H245253   2.828   4.683   7.205 -0.4963  1.5082 -0.4670
 7020TIP3   OH245254   2.859   3.369   6.787  0.7448  0.2806 -0.3358
 7020TIP3    H145255   2.869   3.370   6.883 -1.2989  2.0306 -0.0636
 7020TIP3    H245256   2.769   3.341   6.773  0.9723  0.2029 -1.7512
 7021TIP3   OH245257   1.049   3.437   6.716 -0.3727  0.4235  0.3885
 7021TIP3    H145258   0.970   3.424   6.768  0.5798  0.9797  2.0634
 7021TIP3    H245259   1.121   3.421   6.778  0.8200  1.0630 -0.7786
 7022TIP3   OH245260   3.300   1.711   6.960 -0.4240  0.1245  0.2601
 7022TIP3    H145261   3.369   1.777   6.963 -0.2951 -0.0357  0.9598
 7022TIP3    H245262   3.271   1.710   6.868  0.4282  0.2603 -0.0154
 7023TIP3   OH245263   4.030   3.358   5.517  0.0839  0.0773  0.1308
 7023TIP3    H145264   4.046   3.264   5.528  0.7446  0.0457 -0.9560
 7023TIP3    H245265   4.116   3.398   5.531 -0.1214  0.4910  0.2189
 7024TIP3   OH245266   1.256   2.723   7.051 -0.6192  0.2639 -0.0738
 7024TIP3    H145267   1.309   2.758   6.980 -0.3906  0.0567 -0.0027
 7024TIP3    H245268   1.205   2.799   7.082 -1.0360  0.2631 -0.7358
 7025TIP3   OH245269   3.741   4.454   8.280  0.1092 -0.2851 -0.0570
 7025TIP3    H145270   3.713   4.413   8.198 -0.6001 -0.4800  0.2707
 7025TIP3    H245271   3.679   4.421   8.345 -2.2929  3.3688 -0.2331
 7026TIP3   OH245272   1.839   3.458   7.495 -0.1008 -0.0448  0.0126
 7026TIP3    H145273   1.770   3.496   7.550 -0.7036 -0.5591 -0.3751
 7026TIP3    H245274   1.919   3.501   7.525 -0.8210  2.1165 -0.8960
 7027TIP3   OH245275   2.690   4.146   6.108 -0.6447 -0.0724 -0.2514
 7027TIP3    H145276   2.605   4.177   6.139 -0.7957 -1.0041  0.3081
 7027TIP3    H245277   2.670   4.091   6.032 -0.4112  0.8529 -1.0022
 7028TIP3   OH245278   1.992   4.197   8.390  0.4118 -0.1194 -0.0236
 7028TIP3    H145279   2.063   4.182   8.328 -1.8173 -3.4280 -2.0869
 7028TIP3    H245280   1.962   4.109   8.415 -1.2751  1.1148  2.8606
 7029TIP3   OH245281   5.856   5.990   7.108 -0.1995 -0.0961 -0.4090
 7029TIP3    H145282   5.845   6.085   7.102 -0.8695 -0.2225 -1.4276
 7029TIP3    H245283   5.799   5.963   7.180  0.7204  0.3638  0.5292
 7030TIP3   OH245284   5.387   4.037   8.814 -0.1169  0.3403 -0.0302
 7030TIP3    H145285   5.380   4.056   8.720  0.2380 -1.6496 -0.5154
 7030TIP3    H245286   5.482   4.033   8.829 -0.1776  0.2170  0.3070
 7031TIP3   OH245287   1.897   2.606   7.230  0.2535  0.0046  0.0297
 7031TIP3    H145288   1.979   2.647   7.201 -1.7971  3.4062 -1.6874
 7031TIP3    H245289   1.871   2.552   7.155 -0.1895  0.8741 -0.4668
 7032TIP3   OH245290   2.465   3.806   7.275 -0.0991  0.9041  0.2520
 7032TIP3    H145291   2.548   3.760   7.286 -1.1213 -1.3585 -0.8294
 7032TIP3    H245292   2.489   3.898   7.274  2.2701  0.3721  0.9379
 7033TIP3   OH245293   3.328   2.199   7.573  0.3384 -0.2525 -0.1711
 7033TIP3    H145294   3.281   2.180   7.654  0.0444 -0.0544 -0.2909
 7033TIP3    H245295   3.415   2.162   7.586  0.4401  0.1789  0.4099
 7034TIP3   OH245296   2.783   2.161   5.813  0.1121 -0.0112  0.1001
 7034TIP3    H145297   2.796   2.252   5.840  1.4565 -0.5954  1.5706
 7034TIP3    H245298   2.847   2.147   5.743 -0.0801  0.1428 -0.1116
 7035TIP3   OH245299   1.523   6.131   9.147  0.4940  0.6167  0.2459
 7035TIP3    H145300   1.473   6.187   9.088 -1.2676 -0.1303  0.9265
 7035TIP3    H245301   1.614   6.150   9.128  0.0681 -0.1539 -3.2868
 7036TIP3   OH245302   4.117   1.386   6.394  0.5785 -0.2332 -0.1487
 7036TIP3    H145303   4.192   1.403   6.450  0.6276 -2.2290  0.4388
 7036TIP3    H245304   4.047   1.360   6.455  0.2915 -1.2723 -0.8991
 7037TIP3   OH245305   2.358   2.990   7.931  0.3240  0.5214 -0.3537
 7037TIP3    H145306   2.451   2.991   7.906  1.4005 -1.8798  2.9046
 7037TIP3    H245307   2.359   2.991   8.026 -3.2696  4.6902 -0.0658
 7038TIP3   OH245308   2.900   1.365  13.518  0.1215  0.1657  0.3031
 7038TIP3    H145309   2.865   1.331  13.436  1.4796 -0.5301 -0.0281
 7038TIP3    H245310   2.976   1.309  13.537  0.3116  0.8107  1.6188
 7039TIP3   OH245311   6.456   4.724   7.740 -0.0753  0.0993  0.1099
 7039TIP3    H145312   6.407   4.688   7.815 -1.3387  1.1951 -0.1459
 7039TIP3    H245313   6.425   4.814   7.732  2.6236  1.1322  0.4000
 7040TIP3   OH245314   0.583   1.266   6.545 -0.0713  0.2255 -0.5604
 7040TIP3    H145315   0.531   1.202   6.593  0.2845 -0.1577 -0.6813
 7040TIP3    H245316   0.534   1.282   6.465 -0.3625  0.4076 -0.3455
 7041TIP3   OH245317   3.224   3.916   7.654  0.6195 -0.3289 -0.1894
 7041TIP3    H145318   3.248   3.870   7.735 -0.7073  0.8776  0.9485
 7041TIP3    H245319   3.129   3.909   7.650  0.4758  1.3920 -0.5344
 7042TIP3   OH245320   1.823   6.697   7.341 -0.4164 -0.1338  0.7385
 7042TIP3    H145321   1.834   6.696   7.246 -1.4203 -2.8607  0.5547
 7042TIP3    H245322   1.908   6.670   7.375  0.5145  2.5865  0.8097
 7043TIP3   OH245323   2.982   3.377   8.565  0.2512  0.2574 -0.5420
 7043TIP3    H145324   3.051   3.396   8.629 -0.6560  0.1359  0.5079
 7043TIP3    H245325   2.992   3.283   8.548 -0.9724 -0.2805  1.3049
 7044TIP3   OH245326   3.992   2.205   5.752  0.2022 -0.6776 -0.6507
 7044TIP3    H145327   3.973   2.296   5.774 -0.4752 -1.1637  0.8843
 7044TIP3    H245328   4.080   2.190   5.786 -0.7451 -1.3538  1.6343
 7045TIP3   OH245329   3.874   4.234   7.522 -0.4579  0.2285 -0.3229
 7045TIP3    H145330   3.865   4.326   7.496 -0.3999  0.2497 -0.2677
 7045TIP3    H245331   3.862   4.235   7.617  2.3343  0.5628  0.0889
 7046TIP3   OH245332   3.901   4.028   6.708  0.2693 -0.4752  0.0442
 7046TIP3    H145333   3.858   3.947   6.681 -0.9613 -0.5609  2.0690
 7046TIP3    H245334   3.874   4.093   6.643  0.4662 -1.4617 -1.0424
 7047TIP3   OH245335   4.173   3.989   6.804 -0.5826 -0.0725  0.3890
 7047TIP3    H145336   4.088   3.999   6.761  0.3852  2.3443 -1.1998
 7047TIP3    H245337   4.236   3.984   6.732  0.6825 -1.4598  1.5321
 7048TIP3   OH245338   1.533   6.236   5.964 -0.1523 -0.3189 -0.2361
 7048TIP3    H145339   1.535   6.170   5.894 -2.8176 -0.4086 -0.3289
 7048TIP3    H245340   1.589   6.307   5.932  0.6385 -1.3842 -1.3229
 7049TIP3   OH245341   0.997   6.345   6.356  0.2882  0.1637 -0.2188
 7049TIP3    H145342   0.935   6.364   6.427  0.6381  1.0158 -0.1246
 7049TIP3    H245343   0.975   6.409   6.288 -1.1651 -1.7299 -1.6243
 7050TIP3   OH245344   1.575   0.842   8.178  0.6913 -0.2077  0.3174
 7050TIP3    H145345   1.547   0.821   8.267  1.2493 -0.4468  0.4456
 7050TIP3    H245346   1.643   0.908   8.189 -0.9519  1.6166 -0.0791
 7051TIP3   OH245347   0.338   5.811   8.350 -0.9447 -0.5770  0.3008
 7051TIP3    H145348   0.426   5.798   8.316 -1.2452 -0.8803 -0.3694
 7051TIP3    H245349   0.325   5.906   8.347 -1.2991 -0.6423 -1.3268
 7052TIP3   OH245350   1.954   0.757   6.829 -0.2792 -0.3028 -0.3497
 7052TIP3    H145351   1.916   0.829   6.779  0.1915 -1.3133 -2.2921
 7052TIP3    H245352   1.913   0.762   6.915 -1.5044  1.2534 -0.9861
 7053TIP3   OH245353   3.079   4.520   5.459 -0.3017  0.2791 -0.4529
 7053TIP3    H145354   3.154   4.536   5.402  0.6312  0.4578  0.7977
 7053TIP3    H245355   3.073   4.425   5.465  0.3077  0.2657  0.0456
 7054TIP3   OH245356   5.262   4.133   6.372 -0.1699  0.6826  0.0626
 7054TIP3    H145357   5.218   4.167   6.449 -0.7818 -1.0470  0.5290
 7054TIP3    H245358   5.325   4.070   6.406 -0.9717 -0.6737 -0.8400
 7055TIP3   OH245359   5.014   6.104   7.913 -0.5247 -0.3246 -0.4679
 7055TIP3    H145360   4.967   6.134   7.991  0.2420 -1.6288  0.5327
 7055TIP3    H245361   4.945   6.077   7.852 -1.0976 -1.2089  0.5532
 7056TIP3   OH245362   1.760   3.242   7.639 -0.1813 -0.1257  0.4398
 7056TIP3    H145363   1.669   3.250   7.612  0.5245 -0.4949 -2.3269
 7056TIP3    H245364   1.802   3.322   7.608  0.6522 -0.4793  0.6283
 7057TIP3   OH245365   4.145   2.763   6.924  0.0878  0.6887 -0.3302
 7057TIP3    H145366   4.103   2.817   6.857 -0.5157 -0.5164 -0.9574
 7057TIP3    H245367   4.229   2.738   6.885 -0.0053  0.4780 -0.3977
 7058TIP3   OH245368   3.415   1.939   6.555  0.3778  0.1188  0.6069
 7058TIP3    H145369   3.494   1.928   6.609 -0.8119 -0.7265  2.2660
 7058TIP3    H245370   3.384   2.027   6.575 -0.1506 -0.2508  1.4794
 7059TIP3   OH245371   3.011   0.901   6.180  0.3614 -0.2635  0.8229
 7059TIP3    H145372   3.063   0.959   6.125 -1.0731  1.3138  1.0632
 7059TIP3    H245373   2.945   0.958   6.220 -1.4202 -2.1277  0.7034
 7060TIP3   OH245374   3.892   6.293   6.054  0.2517 -0.1339 -0.8085
 7060TIP3    H145375   3.886   6.295   5.958 -0.9864 -1.0155 -0.7592
 7060TIP3    H245376   3.840   6.369   6.082  2.3380  1.4137 -0.8553
 7061TIP3   OH245377   2.418   3.881   8.276 -0.1741  0.5474 -0.2967
 7061TIP3    H145378   2.365   3.835   8.211 -0.2033  0.7468 -0.4151
 7061TIP3    H245379   2.391   3.843   8.359  1.0797 -0.9335 -0.5185
 7062TIP3   OH245380   6.671   5.315   7.987 -0.1942  0.1360  0.0774
 7062TIP3    H145381   6.581   5.290   8.007 -0.0129 -1.6664 -1.0518
 7062TIP3    H245382   6.724   5.259   8.044  0.2217 -2.0702 -2.2827
 7063TIP3   OH245383   3.359   5.343   8.266 -0.3106 -0.0852  0.4878
 7063TIP3    H145384   3.372   5.379   8.353 -1.0924  0.5588  0.3422
 7063TIP3    H245385   3.366   5.418   8.207 -0.3230 -0.4320  0.0380
 7064TIP3   OH245386   6.700   2.891   6.514  0.1002  0.1477  0.1671
 7064TIP3    H145387   6.758   2.925   6.446  1.4346 -0.5976  0.8905
 7064TIP3    H245388   6.615   2.931   6.495  0.7242  0.9053 -1.2021
 7065TIP3   OH245389   6.177   3.044   7.474  0.7220 -0.3991  0.5778
 7065TIP3    H145390   6.266   3.011   7.460  0.2296 -1.3333 -0.5553
 7065TIP3    H245391   6.121   2.982   7.426 -0.6362 -0.4622  2.1643
 7066TIP3   OH245392   1.590   1.911   7.082  0.1263  0.4856  0.8979
 7066TIP3    H145393   1.602   1.923   6.988  1.0849  1.3821  1.1061
 7066TIP3    H245394   1.497   1.930   7.097 -0.0852  0.1213  0.1094
 7067TIP3   OH245395   5.040   4.014   8.608 -0.6433  0.0267 -0.7476
 7067TIP3    H145396   5.047   4.098   8.654 -0.8709  1.2508 -2.8385
 7067TIP3    H245397   4.946   4.003   8.592 -0.6392 -0.7626 -0.2625
 7068TIP3   OH245398   6.750   1.829   5.660  0.1336  0.0192  0.3178
 7068TIP3    H145399   6.761   1.920   5.633 -1.5655  0.2452  0.3067
 7068TIP3    H245400   6.657   1.820   5.677  0.3500 -1.6000  0.7986
 7069TIP3   OH245401   1.807   3.695   8.553 -0.6689  0.0813 -0.0068
 7069TIP3    H145402   1.753   3.774   8.562  0.7202  0.8895  1.6585
 7069TIP3    H245403   1.757   3.627   8.599 -0.2505  0.8530  1.6490
 7070TIP3   OH245404   2.159   0.580   7.239 -0.4492  0.2068  0.1526
 7070TIP3    H145405   2.158   0.622   7.153  2.1102  0.4713  0.1731
 7070TIP3    H245406   2.178   0.488   7.221  0.3046  0.3041  0.4356
 7071TIP3   OH245407   4.408   6.012   5.953  0.1253 -0.8225  0.1204
 7071TIP3    H145408   4.348   5.940   5.934 -0.2956 -0.2670 -0.6879
 7071TIP3    H245409   4.491   5.969   5.975 -0.4520 -1.5848  0.8844
 7072TIP3   OH245410   5.720   6.183   6.945 -0.4655  0.0601  0.0068
 7072TIP3    H145411   5.750   6.273   6.960  1.2408 -0.6692  1.1239
 7072TIP3    H245412   5.629   6.183   6.975 -0.9686  1.7385 -1.3294
 7073TIP3   OH245413   1.567   2.160   6.463  0.2230 -0.1155 -0.3212
 7073TIP3    H145414   1.619   2.180   6.385  0.2610 -1.0884 -0.5549
 7073TIP3    H245415   1.477   2.182   6.438  0.3625  0.5021 -0.2979
 7074TIP3   OH245416   4.515   2.546   6.678  0.1343  0.1081 -0.1978
 7074TIP3    H145417   4.467   2.537   6.596  1.2172  1.3157 -1.0088
 7074TIP3    H245418   4.500   2.464   6.724 -2.0086  0.1319 -0.7729
 7075TIP3   OH245419   3.682   5.051   9.166  0.0633  0.2372 -0.6290
 7075TIP3    H145420   3.643   5.100   9.238  0.3545  0.7399 -0.8084
 7075TIP3    H245421   3.664   4.959   9.186  1.3919  0.2667  0.8185
 7076TIP3   OH245422   0.738   3.774   7.131 -0.1487  0.5449  0.3805
 7076TIP3    H145423   0.670   3.765   7.064  1.3694  1.0269 -1.2968
 7076TIP3    H245424   0.803   3.708   7.108  0.9194  1.4603  0.7025
 7077TIP3   OH245425   2.057   6.036   6.840 -0.1293 -0.8007  0.1543
 7077TIP3    H145426   2.150   6.046   6.818  0.1384 -1.9185  0.6864
 7077TIP3    H245427   2.038   6.111   6.896 -0.1127  0.5799 -1.5796
 7078TIP3   OH245428   2.226   2.630   8.014  1.0046 -0.8330  0.1772
 7078TIP3    H145429   2.134   2.614   8.038  0.3153  1.4069 -0.7414
 7078TIP3    H245430   2.265   2.666   8.093 -0.4150  3.3834 -0.7854
 7079TIP3   OH245431   5.736   0.775   8.057 -0.4228 -0.1007  0.2483
 7079TIP3    H145432   5.676   0.800   7.987  1.0077  0.6697 -0.7501
 7079TIP3    H245433   5.774   0.692   8.028 -0.0131  0.0956  0.2103
 7080TIP3   OH245434   4.507   1.960   7.179  0.2304  0.0712  0.5813
 7080TIP3    H145435   4.548   1.967   7.266  2.1161  2.0468 -0.3525
 7080TIP3    H245436   4.573   1.915   7.126  1.0576  2.6221 -0.7682
 7081TIP3   OH245437   3.277   5.808   7.029  0.2080  0.4078  0.2584
 7081TIP3    H145438   3.309   5.720   7.049 -0.0602  0.6936  2.0975
 7081TIP3    H245439   3.349   5.866   7.054 -0.3988  0.8280  1.0798
 7082TIP3   OH245440   2.757   5.382   7.759  0.5975  0.3831  0.0017
 7082TIP3    H145441   2.678   5.436   7.755  0.3674  0.1790  1.3504
 7082TIP3    H245442   2.799   5.407   7.842  1.9970  0.5418 -0.7187
 7083TIP3   OH245443   0.181   1.718   7.990  0.3440  0.5752 -0.2830
 7083TIP3    H145444   0.254   1.695   7.933 -1.0017 -1.1262 -1.4410
 7083TIP3    H245445   0.209   1.691   8.077  1.0459 -0.1962 -0.7379
 7084TIP3   OH245446   2.940   3.095   8.563 -0.0321 -0.1608  0.7803
 7084TIP3    H145447   2.845   3.089   8.562 -0.1457  1.0938 -1.3787
 7084TIP3    H245448   2.970   3.004   8.560 -1.1207 -0.5932  2.0561
 7085TIP3   OH245449   6.432   2.123   5.429 -0.0701  0.0787 -0.0192
 7085TIP3    H145450   6.343   2.088   5.430 -0.2259  0.3848 -1.3545
 7085TIP3    H245451   6.432   2.191   5.496 -1.3881  1.2778 -1.1483
 7086TIP3   OH245452   1.519   2.287   5.716 -0.2251 -0.1293  0.3227
 7086TIP3    H145453   1.595   2.284   5.774  0.7999 -2.6319 -0.9928
 7086TIP3    H245454   1.451   2.239   5.763 -0.6029  0.9695  0.9349
 7087TIP3   OH245455   6.298   0.517   5.757 -0.5128  0.5753 -0.4505
 7087TIP3    H145456   6.295   0.553   5.845 -0.3469  0.0171 -0.2087
 7087TIP3    H245457   6.344   0.583   5.705  0.6326  0.3091  0.1821
 7088TIP3   OH245458   0.617   3.347   8.356 -0.0353  0.5031  0.1356
 7088TIP3    H145459   0.618   3.442   8.348  0.3887  0.5036  0.1748
 7088TIP3    H245460   0.709   3.322   8.362 -0.0630 -0.0460 -1.3470
 7089TIP3   OH245461   0.114   2.226   8.925  0.0997  0.2528  0.1001
 7089TIP3    H145462   0.035   2.222   8.979 -0.1455  2.0858 -0.0607
 7089TIP3    H245463   0.130   2.135   8.898 -1.0140 -0.3726  1.4582
 7090TIP3   OH245464   0.894   3.115   5.507  0.3574  0.2075  0.2715
 7090TIP3    H145465   0.867   3.137   5.418 -0.2026 -0.3749  0.2921
 7090TIP3    H245466   0.821   3.144   5.562  1.7750  3.0544  0.8734
 7091TIP3   OH245467   6.186   4.377   7.308  0.9031 -0.6033  0.3347
 7091TIP3    H145468   6.156   4.295   7.348  0.9629 -0.8681 -0.1498
 7091TIP3    H245469   6.180   4.442   7.378  0.2767 -0.8912  0.5507
 7092TIP3   OH245470   4.108   0.945   6.593  0.2381 -0.3983  0.0135
 7092TIP3    H145471   4.179   0.894   6.632  1.2545 -0.4468 -1.8127
 7092TIP3    H245472   4.146   0.984   6.515 -1.6507 -0.1033 -0.8196
 7093TIP3   OH245473   0.145   6.217   6.676 -0.6135  0.8467  0.1889
 7093TIP3    H145474   0.122   6.290   6.619  0.1926  1.6196  0.8468
 7093TIP3    H245475   0.239   6.225   6.690 -0.5783 -0.1012  0.5724
 7094TIP3   OH245476   6.578   3.240   8.410 -0.4302  0.8201  0.3537
 7094TIP3    H145477   6.573   3.154   8.452 -1.3189  0.8782  0.3698
 7094TIP3    H245478   6.577   3.302   8.483  0.1550  0.8566  0.3385
 7095TIP3   OH245479   1.140   6.390   7.456  0.7261 -0.1879  0.0640
 7095TIP3    H145480   1.084   6.400   7.533  0.1931 -0.9805 -0.2068
 7095TIP3    H245481   1.084   6.349   7.390  1.0901  0.7263 -0.8516
 7096TIP3   OH245482   2.797   5.156   6.398 -0.2539 -0.2383  0.0244
 7096TIP3    H145483   2.871   5.202   6.359 -1.0508  1.4224  0.3683
 7096TIP3    H245484   2.784   5.080   6.341  1.9913 -0.8657  0.2526
 7097TIP3   OH245485   2.582   6.663   6.068 -0.1550 -0.1019  0.7594
 7097TIP3    H145486   2.547   6.751   6.054  1.5845  0.5316  0.1512
 7097TIP3    H245487   2.585   6.654   6.163 -1.0544  0.1788  0.8281
 7098TIP3   OH245488   0.544   0.794   6.592  0.4475 -0.1892 -0.0865
 7098TIP3    H145489   0.512   0.742   6.519  1.5525 -1.1774  0.1026
 7098TIP3    H245490   0.493   0.765   6.667 -0.0001  0.1149 -0.2690
 7099TIP3   OH245491   2.888   2.154   8.642  0.2740 -0.1226  0.1139
 7099TIP3    H145492   2.854   2.094   8.709 -0.6095  1.3670  1.0491
 7099TIP3    H245493   2.814   2.167   8.583  0.7043 -0.5352 -0.5280
 7100TIP3   OH245494   6.500   5.343   9.354  0.1294 -0.1141 -0.7692
 7100TIP3    H145495   6.417   5.297   9.360 -0.4521  0.9081 -0.7520
 7100TIP3    H245496   6.485   5.412   9.290  0.9690  0.0677 -0.7840
 7101TIP3   OH245497   3.557   6.313   6.553  0.2240 -0.1274 -0.3421
 7101TIP3    H145498   3.551   6.393   6.502 -2.0229  0.2552  0.4371
 7101TIP3    H245499   3.640   6.273   6.525  0.8907  1.9300 -1.4745
 7102TIP3   OH245500   2.701   0.308   7.864  0.0179  0.4548  0.3571
 7102TIP3    H145501   2.663   0.225   7.836 -1.1998  0.9936  0.3861
 7102TIP3    H245502   2.628   0.357   7.901  1.1083  0.6736  2.4161
 7103TIP3   OH245503   3.303   1.800   6.319 -0.0522 -0.1683 -0.3487
 7103TIP3    H145504   3.364   1.821   6.249  0.5640  0.2245  0.2832
 7103TIP3    H245505   3.334   1.851   6.394 -2.0960  1.2669 -0.4219
 7104TIP3   OH245506   4.158   6.184   8.863  0.6599  0.0774  0.1855
 7104TIP3    H145507   4.070   6.192   8.902  1.1219 -0.5702  1.4027
 7104TIP3    H245508   4.203   6.122   8.919  1.9931  0.6058 -0.2752
 7105TIP3   OH245509   5.746   3.812   7.523  0.0886  0.2881 -0.4114
 7105TIP3    H145510   5.725   3.826   7.431 -0.6786 -0.7315 -0.4048
 7105TIP3    H245511   5.755   3.900   7.559 -1.1029  0.7208 -1.1253
 7106TIP3   OH245512   3.043   1.278   6.777  0.1434  0.3071  0.9130
 7106TIP3    H145513   2.997   1.357   6.807 -0.1943 -0.0732  1.4286
 7106TIP3    H245514   2.979   1.208   6.789  0.2459  0.0365 -0.0801
 7107TIP3   OH245515   2.251   5.745   8.869 -0.1574 -0.3278  0.2385
 7107TIP3    H145516   2.324   5.771   8.812 -1.3235  0.0859 -1.1196
 7107TIP3    H245517   2.290   5.682   8.930  0.9668 -1.5572 -1.6264
 7108TIP3   OH245518   0.663   1.683   6.281 -0.1513 -0.1163 -0.3557
 7108TIP3    H145519   0.593   1.659   6.221 -1.8373 -0.3392  1.5654
 7108TIP3    H245520   0.666   1.612   6.345 -1.0332  1.7507  1.9462
 7109TIP3   OH245521   1.386   6.260   6.665  0.4393  0.2034 -0.1927
 7109TIP3    H145522   1.415   6.208   6.740  1.4765  2.2160  0.9142
 7109TIP3    H245523   1.444   6.234   6.593  0.8403 -0.2743  0.2953
 7110TIP3   OH245524   5.326   4.760   8.718 -0.3195 -0.8493 -0.3089
 7110TIP3    H145525   5.390   4.704   8.673  0.5784  0.0595 -0.1935
 7110TIP3    H245526   5.370   4.786   8.799 -1.2316 -1.0181  0.2562
 7111TIP3   OH245527   0.518   5.419   8.704 -0.1392 -0.0389  0.1158
 7111TIP3    H145528   0.461   5.492   8.681 -0.5570  0.2116  1.7844
 7111TIP3    H245529   0.595   5.430   8.648 -0.8417  0.7945 -0.7296
 7112TIP3   OH245530   2.490   0.261   7.132  0.2585 -0.0656 -0.7591
 7112TIP3    H145531   2.573   0.302   7.158 -0.3071  0.7842 -0.2942
 7112TIP3    H245532   2.517   0.175   7.098  1.1272 -0.9043  1.8059
 7113TIP3   OH245533   0.187   4.171   6.331  0.2220  0.5721 -0.4281
 7113TIP3    H145534   0.209   4.144   6.421 -0.4941  1.7876  0.1279
 7113TIP3    H245535   0.209   4.094   6.278  0.3870 -0.2768  0.8158
 7114TIP3   OH245536   3.462   1.080   6.332 -0.4381 -0.1005 -0.2977
 7114TIP3    H145537   3.499   1.169   6.332 -0.4088 -0.0739  1.4690
 7114TIP3    H245538   3.408   1.077   6.254  0.2111  1.1978 -0.8390
 7115TIP3   OH245539   3.257   0.945   7.781  0.1427  0.5177  0.2308
 7115TIP3    H145540   3.189   0.904   7.729 -0.9049  0.9944  1.1652
 7115TIP3    H245541   3.327   0.880   7.786  0.0024  0.2346 -1.2148
 7116TIP3   OH245542   3.050   5.659   6.921  0.3642 -0.1404 -0.0641
 7116TIP3    H145543   3.092   5.745   6.918 -1.7750  0.9717 -2.7775
 7116TIP3    H245544   3.025   5.647   7.012 -0.2574  2.6698  0.2079
 7117TIP3   OH245545   5.852   6.259   8.741 -0.4026  0.2422 -0.7918
 7117TIP3    H145546   5.899   6.206   8.806 -2.0467  0.2886  0.5026
 7117TIP3    H245547   5.899   6.343   8.740 -0.4340  0.3021  0.5003
 7118TIP3   OH245548   4.008   5.309   8.247 -0.4383  0.2606 -0.2176
 7118TIP3    H145549   3.985   5.317   8.340  1.5573 -1.0714  0.4617
 7118TIP3    H245550   4.095   5.349   8.241 -0.3242 -0.1375 -1.4218
 7119TIP3   OH245551   5.869   6.479   7.021  0.2242  0.5197 -0.0086
 7119TIP3    H145552   5.893   6.533   6.946  0.4205  1.4943  0.7348
 7119TIP3    H245553   5.776   6.499   7.036 -0.0670 -0.3758 -0.5490
 7120TIP3   OH245554   6.239   5.272   9.378  0.5735 -0.6865 -0.0812
 7120TIP3    H145555   6.241   5.190   9.427 -1.0943  0.2252  1.6584
 7120TIP3    H245556   6.184   5.253   9.302  0.0660 -1.1414  0.3910
 7121TIP3   OH245557   1.086   1.715   7.513 -0.0210  0.0305 -0.3708
 7121TIP3    H145558   1.070   1.654   7.584 -0.6437  0.3500 -0.2217
 7121TIP3    H245559   1.056   1.800   7.547  1.1560  0.4896 -0.4463
 7122TIP3   OH245560   6.561   6.135   8.881  0.1977 -0.2216 -0.1003
 7122TIP3    H145561   6.468   6.113   8.872 -0.1656  0.7425  1.0343
 7122TIP3    H245562   6.561   6.225   8.913  1.4894 -0.8222  1.6992
 7123TIP3   OH245563   5.093   5.838   7.767 -0.0791  0.2025  0.1097
 7123TIP3    H145564   5.061   5.912   7.819  1.1236  0.3004  0.7401
 7123TIP3    H245565   5.082   5.762   7.824  1.5105  0.3511  0.6567
 7124TIP3   OH245566   4.741   1.696   5.979  0.1990 -0.3613  0.1686
 7124TIP3    H145567   4.713   1.656   5.896  1.6027  0.5418 -0.7855
 7124TIP3    H245568   4.715   1.788   5.972  1.5482  0.0309  0.1188
 7125TIP3   OH245569   4.064   4.852   9.035  0.2785  0.0497 -0.3525
 7125TIP3    H145570   3.969   4.844   9.028 -0.1714  0.3131  3.5771
 7125TIP3    H245571   4.092   4.776   9.086  1.9150  0.9637  0.1941
 7126TIP3   OH245572   5.004   4.627   6.660 -0.0607 -0.1427  0.2300
 7126TIP3    H145573   4.935   4.694   6.656  1.1958  1.1825 -0.1673
 7126TIP3    H245574   4.957   4.545   6.672 -1.7163  0.7080 -0.1267
 7127TIP3   OH245575   4.263   4.248   6.214  0.2560 -0.4068  0.2454
 7127TIP3    H145576   4.278   4.296   6.132 -0.3673 -1.0966 -0.2914
 7127TIP3    H245577   4.194   4.185   6.192 -0.5620 -0.0026  1.5408
 7128TIP3   OH245578   3.866   5.072   6.697 -0.0875  0.1930  0.0355
 7128TIP3    H145579   3.960   5.059   6.706 -0.1183 -0.6009 -0.6666
 7128TIP3    H245580   3.832   5.062   6.786  0.2842 -1.4093  0.0260
 7129TIP3   OH245581   3.686   3.078   6.276  0.1134 -0.3203  0.1174
 7129TIP3    H145582   3.617   3.016   6.254  2.4778 -1.5689 -5.4664
 7129TIP3    H245583   3.657   3.161   6.238  0.5828 -0.1920  0.0354
 7130TIP3   OH245584   6.157   5.762   7.745 -0.3054 -0.2291  0.0256
 7130TIP3    H145585   6.222   5.712   7.696 -1.6426 -2.8390  0.7251
 7130TIP3    H245586   6.081   5.704   7.749 -2.0757  2.0035  0.7244
 7131TIP3   OH245587   5.329   1.221   6.778  0.1552  0.4073 -0.2577
 7131TIP3    H145588   5.349   1.136   6.738  1.3804  0.3683  0.3894
 7131TIP3    H245589   5.291   1.199   6.863 -0.2635  0.5011 -0.4217
 7132TIP3   OH245590   3.046   1.733   6.268 -0.5598 -0.0280 -0.4331
 7132TIP3    H145591   3.016   1.780   6.346 -1.3448  0.4784 -1.0163
 7132TIP3    H245592   3.136   1.762   6.255 -1.0908  1.4779 -0.8844
 7133TIP3   OH245593   4.718   3.875   5.617  0.3344 -0.1132 -0.4826
 7133TIP3    H145594   4.788   3.812   5.602  1.5644  0.8598  0.8439
 7133TIP3    H245595   4.759   3.960   5.600 -0.6448  0.4557 -0.0706
 7134TIP3   OH245596   6.726   5.082   6.878  0.4656  0.5845  0.0582
 7134TIP3    H145597   6.799   5.019   6.882 -1.0154 -1.1608  1.4429
 7134TIP3    H245598   6.727   5.123   6.965 -0.7289 -0.1459  0.4396
 7135TIP3   OH245599   2.379   2.327   6.003 -0.1315 -0.4192 -0.2308
 7135TIP3    H145600   2.318   2.400   5.999  0.1967 -0.1713 -0.8699
 7135TIP3    H245601   2.466   2.368   6.004  0.0339 -0.7682  0.5864
 7136TIP3   OH245602   2.451   4.267   8.811 -0.0260  0.1770  0.9872
 7136TIP3    H145603   2.490   4.230   8.732 -1.2720  2.0457 -0.5899
 7136TIP3    H245604   2.399   4.196   8.848  2.4706 -1.4934  1.5835
 7137TIP3   OH245605   0.416   0.044   6.510  0.8191  0.1475 -0.6935
 7137TIP3    H145606   0.450   0.104   6.443 -0.0484 -1.6374 -2.8820
 7137TIP3    H245607   0.343  -0.001   6.467  0.2725 -1.1677  1.4613
 7138TIP3   OH245608   3.322   3.433   6.770  0.0290  0.3458 -0.3187
 7138TIP3    H145609   3.377   3.381   6.828 -0.6504 -1.7284 -1.4428
 7138TIP3    H245610   3.383   3.495   6.730  1.4806 -1.3936 -0.9611
 7139TIP3   OH245611   5.780   3.237   9.333 -0.3834 -0.6439 -0.5020
 7139TIP3    H145612   5.687   3.256   9.335 -0.1285  0.5961  1.0788
 7139TIP3    H245613   5.800   3.205   9.421  0.7383 -0.6154 -0.7312
 7140TIP3   OH245614   4.874   2.693   6.474 -0.2921  0.0338  0.1991
 7140TIP3    H145615   4.907   2.752   6.541  0.6534  0.6816 -0.7975
 7140TIP3    H245616   4.810   2.744   6.425 -0.6227 -0.2782  0.2986
 7141TIP3   OH245617   4.233   2.484   8.683  0.6044 -0.5601 -0.4642
 7141TIP3    H145618   4.324   2.490   8.711  0.8170  1.6094 -1.4511
 7141TIP3    H245619   4.236   2.431   8.603  1.0457 -0.2437 -0.6596
 7142TIP3   OH245620   5.727   6.732   6.309  0.0737  0.5261  0.1503
 7142TIP3    H145621   5.712   6.802   6.246  1.0488  0.9514  0.3654
 7142TIP3    H245622   5.672   6.660   6.279 -1.8635  1.7568  0.5909
 7143TIP3   OH245623   2.345   5.595   9.092 -0.7575 -0.3701 -0.4132
 7143TIP3    H145624   2.426   5.629   9.055 -0.1327 -1.2803  0.0984
 7143TIP3    H245625   2.319   5.660   9.157  1.3485 -1.5898  1.7958
 7144TIP3   OH245626   0.588   6.657   7.926  0.2449 -0.1462  0.0734
 7144TIP3    H145627   0.511   6.714   7.927  0.1555 -0.2640 -0.0325
 7144TIP3    H245628   0.557   6.574   7.963  0.5621  0.1080  0.9079
 7145TIP3   OH245629   1.447   3.405   8.002 -0.0359 -0.1161 -0.0891
 7145TIP3    H145630   1.498   3.332   8.036 -0.6626 -0.9043 -0.8124
 7145TIP3    H245631   1.356   3.383   8.024 -0.1326  1.0337  0.7601
 7146TIP3   OH245632   4.109   0.665   8.719  0.1738 -0.1405 -0.1458
 7146TIP3    H145633   4.044   0.642   8.653 -0.4998 -1.7877  1.0427
 7146TIP3    H245634   4.088   0.610   8.794  0.3851  2.2520  1.7919
 7147TIP3   OH245635   1.578   4.454   9.320 -0.0763  0.1318 -0.2332
 7147TIP3    H145636   1.662   4.428   9.283 -0.0330  0.3659 -0.2957
 7147TIP3    H245637   1.600   4.496   9.403 -0.1497 -0.0447 -0.1224
 7148TIP3   OH245638   0.553   4.014   6.916  0.0436  0.5920 -0.2911
 7148TIP3    H145639   0.548   3.923   6.946  0.1905  1.1998  1.7165
 7148TIP3    H245640   0.646   4.031   6.903  0.1312  0.8422  0.6402
 7149TIP3   OH245641   1.288   5.553   6.062 -0.9310  0.3668 -0.2879
 7149TIP3    H145642   1.236   5.611   6.117 -0.5096  0.5710 -0.1017
 7149TIP3    H245643   1.375   5.592   6.060 -0.4649 -0.5984  0.3724
 7150TIP3   OH245644   0.868   5.986   7.050  0.0773 -0.8222  0.4321
 7150TIP3    H145645   0.808   6.017   6.982  0.5677 -1.2995 -0.2328
 7150TIP3    H245646   0.844   6.036   7.128  0.5630  0.9199 -0.4973
 7151TIP3   OH245647   1.180   3.413   7.194  0.4722 -0.3086 -0.3691
 7151TIP3    H145648   1.276   3.419   7.190  0.3856  0.5417 -1.8497
 7151TIP3    H245649   1.156   3.465   7.271  1.2235 -1.0318  0.3716
 7152TIP3   OH245650   5.480   1.687   6.338 -0.1262  0.1386 -0.2092
 7152TIP3    H145651   5.408   1.652   6.390 -0.0277 -2.8560 -1.8517
 7152TIP3    H245652   5.437   1.730   6.264 -0.2525 -0.2949 -0.3908
 7153TIP3   OH245653   1.287   6.590   7.322  0.5431  0.3411 -0.2180
 7153TIP3    H145654   1.227   6.630   7.259  0.5203 -0.3609 -0.6542
 7153TIP3    H245655   1.233   6.527   7.370  0.5834  0.7970  0.4505
 7154TIP3   OH245656   1.527   6.589   8.680  1.1043 -0.1632 -0.2254
 7154TIP3    H145657   1.466   6.577   8.753  1.7562 -2.2550  0.0476
 7154TIP3    H245658   1.531   6.684   8.667  0.1620  0.1945  1.7629
 7155TIP3   OH245659   5.883   3.618   6.740  0.0340  0.4392  0.5741
 7155TIP3    H145660   5.970   3.645   6.710 -0.0577  0.6132  0.4659
 7155TIP3    H245661   5.895   3.527   6.768  0.3761  0.6282  1.0668
 7156TIP3   OH245662   1.680   5.435   5.956  0.1043 -0.3953  0.1274
 7156TIP3    H145663   1.771   5.410   5.975  0.8890  0.9335 -1.5298
 7156TIP3    H245664   1.648   5.364   5.900 -0.2598 -1.3867  1.5498
 7157TIP3   OH245665   3.189   1.441   9.022 -0.2884 -0.1352  0.5660
 7157TIP3    H145666   3.271   1.454   9.070  0.1134  0.9403 -0.3560
 7157TIP3    H245667   3.164   1.529   8.994 -0.3644 -0.7192 -1.3776
 7158TIP3   OH245668   1.056   3.195   6.225 -0.1000  0.0884  0.3023
 7158TIP3    H145669   0.979   3.140   6.209  1.4037 -1.7248 -1.1534
 7158TIP3    H245670   1.039   3.235   6.310 -2.0626 -1.3040  0.6367
 7159TIP3   OH245671   1.457   3.826   5.553 -0.3823  0.1515 -0.7735
 7159TIP3    H145672   1.389   3.844   5.618 -0.2042 -0.9615 -0.2560
 7159TIP3    H245673   1.504   3.909   5.544  0.8304 -0.1156  1.9994
 7160TIP3   OH245674   4.960   6.508   7.907  0.0500  0.4815  0.6271
 7160TIP3    H145675   5.024   6.450   7.947  0.0595  0.5292  0.6821
 7160TIP3    H245676   4.977   6.502   7.813  0.7394  1.1791  0.6905
 7161TIP3   OH245677   2.581   5.703   6.180 -0.3495  0.2086 -0.5208
 7161TIP3    H145678   2.652   5.670   6.126 -1.0648 -1.0392 -0.7445
 7161TIP3    H245679   2.593   5.798   6.181  1.0990  0.0505 -0.8293
 7162TIP3   OH245680   3.580   4.245   7.255 -0.0584  0.1115  0.7776
 7162TIP3    H145681   3.583   4.206   7.342  0.3694 -1.1496  0.2239
 7162TIP3    H245682   3.658   4.211   7.211 -1.0074 -0.4105 -0.5559
 7163TIP3   OH245683   3.366   3.759   6.511  0.0460 -0.4958 -0.0103
 7163TIP3    H145684   3.413   3.679   6.486 -0.5560 -0.6501 -0.7059
 7163TIP3    H245685   3.427   3.830   6.494  0.4296 -0.7727  0.1929
 7164TIP3   OH245686   6.665   6.204   5.798 -0.6251 -0.3539 -0.3210
 7164TIP3    H145687   6.607   6.207   5.722 -1.4588  1.1312  0.3337
 7164TIP3    H245688   6.748   6.170   5.764 -0.1393  2.5824 -2.5011
 7165TIP3   OH245689   6.173   2.865   6.251  0.4705 -0.0823 -0.1490
 7165TIP3    H145690   6.208   2.882   6.339 -0.6172  1.3377  0.0525
 7165TIP3    H245691   6.089   2.822   6.267  0.1837  0.3522 -0.4891
 7166TIP3   OH245692   4.311   1.687   5.676  0.4050 -0.4815 -0.1138
 7166TIP3    H145693   4.321   1.726   5.763  2.2904  0.5363 -0.7165
 7166TIP3    H245694   4.255   1.748   5.628  1.5431  0.3999 -0.3778
 7167TIP3   OH245695   5.357   6.737   7.548  0.3159 -0.5698 -0.5516
 7167TIP3    H145696   5.373   6.650   7.513  0.9532 -1.2504  1.3069
 7167TIP3    H245697   5.284   6.771   7.497  1.3694 -1.3471 -2.6932
 7168TIP3   OH245698   2.448   2.171   7.218  0.1206  0.1835 -0.2078
 7168TIP3    H145699   2.532   2.201   7.182  1.4886 -1.2524  1.5740
 7168TIP3    H245700   2.439   2.218   7.300 -0.5897 -0.0025 -0.1791
 7169TIP3   OH245701   2.622   5.072   8.223 -0.2609  0.0487  0.2213
 7169TIP3    H145702   2.645   5.027   8.141 -1.7043 -1.2335  0.4739
 7169TIP3    H245703   2.660   5.159   8.214 -0.2772 -0.1039 -1.7645
 7170TIP3   OH245704   3.806   4.214   9.306  0.0361 -0.1685 -0.2468
 7170TIP3    H145705   3.901   4.220   9.319  0.1703 -1.0686 -0.6881
 7170TIP3    H245706   3.777   4.150   9.371 -0.7844  2.3381  2.0024
 7171TIP3   OH245707   0.231   5.834   9.031 -0.0901  0.1028  0.7151
 7171TIP3    H145708   0.164   5.880   9.082 -0.1577  0.1158  0.6135
 7171TIP3    H245709   0.236   5.883   8.949 -0.7141 -0.5446  0.2917
 7172TIP3   OH245710   2.886   3.018   6.534  0.1491  0.4220  0.3175
 7172TIP3    H145711   2.882   3.017   6.630  0.5574 -0.2293  0.3354
 7172TIP3    H245712   2.885   3.111   6.511  1.5018  0.6446  1.0317
 7173TIP3   OH245713   3.452   0.057   7.044 -0.2910  0.2288  0.3439
 7173TIP3    H145714   3.431  -0.031   7.076  0.9219 -0.3477 -0.3799
 7173TIP3    H245715   3.404   0.065   6.962  1.4985 -0.7607 -0.8725
 7174TIP3   OH245716   4.903   5.028   6.885 -0.0318 -0.1188  0.4070
 7174TIP3    H145717   4.935   5.004   6.972 -2.2576 -0.0495  1.2910
 7174TIP3    H245718   4.848   4.955   6.858 -3.1109  1.7614  1.1298
 7175TIP3   OH245719   5.955   2.587   7.975  0.3075 -0.1709  0.0198
 7175TIP3    H145720   5.970   2.515   8.036  1.8036 -0.2509 -0.4064
 7175TIP3    H245721   6.008   2.565   7.898  2.1055  2.1151  0.4880
 7176TIP3   OH245722   0.628   0.438   8.260  0.7424 -0.5371  0.4185
 7176TIP3    H145723   0.669   0.475   8.338  1.3625  0.6585 -0.4390
 7176TIP3    H245724   0.559   0.500   8.237  0.0396 -1.2892  0.4611
 7177TIP3   OH245725   4.438   6.671   6.881  0.1750  0.0388  0.1331
 7177TIP3    H145726   4.342   6.671   6.873  0.0411  2.0316  1.1351
 7177TIP3    H245727   4.458   6.588   6.924 -1.4090  0.7493  2.4508
 7178TIP3   OH245728   4.139   5.472   7.091 -0.2597  0.3870 -0.1839
 7178TIP3    H145729   4.114   5.468   6.998  0.7631 -2.2438 -0.4498
 7178TIP3    H245730   4.056   5.483   7.137 -1.0207 -0.0984 -1.3622
 7179TIP3   OH245731   1.486   3.953   6.616 -0.7118  0.0950  0.0228
 7179TIP3    H145732   1.531   3.919   6.538 -1.2388  1.6845 -1.0071
 7179TIP3    H245733   1.411   3.895   6.626  0.4490 -1.3813  0.6017
 7180TIP3   OH245734   5.162   5.090   8.336  0.0707 -0.7446  0.1140
 7180TIP3    H145735   5.187   5.076   8.244  1.0849  1.7619 -0.0788
 7180TIP3    H245736   5.223   5.035   8.385  0.2207 -1.3193 -0.6841
 7181TIP3   OH245737   4.608   3.467   6.274 -0.2796  0.1963 -0.5360
 7181TIP3    H145738   4.660   3.469   6.194  3.4927 -2.1271  1.5315
 7181TIP3    H245739   4.658   3.411   6.333 -3.8167  0.1639  2.8327
 7182TIP3   OH245740   2.163   3.145   6.681  0.1631 -0.2486  0.2431
 7182TIP3    H145741   2.115   3.117   6.602  1.6961  0.3189 -0.9394
 7182TIP3    H245742   2.234   3.082   6.689  0.5786  0.2596  0.6128
 7183TIP3   OH245743   4.152   2.370   6.391  0.3980 -0.0056  0.3132
 7183TIP3    H145744   4.085   2.315   6.350  0.7065 -0.6226  0.6122
 7183TIP3    H245745   4.232   2.317   6.387  0.9250  0.7986 -0.2163
 7184TIP3   OH245746   5.118   3.572   9.199  0.2911 -0.2898  0.2093
 7184TIP3    H145747   5.186   3.510   9.227  0.4747 -0.0178  0.3695
 7184TIP3    H245748   5.129   3.647   9.258  1.0001  0.5070 -0.9012
 7185TIP3   OH245749   0.053   1.880   6.249  0.8437 -0.2000  0.5175
 7185TIP3    H145750   0.058   1.974   6.234 -3.4580  0.2488  0.5890
 7185TIP3    H245751   0.112   1.842   6.185  1.0907  2.4800 -0.9760
 7186TIP3   OH245752   1.138   3.602   6.515 -0.9857  0.0773 -0.0862
 7186TIP3    H145753   1.115   3.562   6.599  2.3979  1.7181  1.8153
 7186TIP3    H245754   1.178   3.532   6.465 -1.8262 -0.6041  0.1630
 7187TIP3   OH245755   3.042   2.289   8.118  0.0952 -0.1198 -0.7276
 7187TIP3    H145756   3.030   2.295   8.213 -1.0795  1.0978 -0.9260
 7187TIP3    H245757   3.103   2.360   8.098  1.5588 -1.3282 -0.7272
 7188TIP3   OH245758   5.704   6.537   5.660 -0.4851 -0.4837  0.0431
 7188TIP3    H145759   5.633   6.600   5.668 -0.4386 -0.6466  3.8084
 7188TIP3    H245760   5.784   6.591   5.662 -0.4794 -0.5048  1.4243
 7189TIP3   OH245761   6.426   3.191   5.940  0.3625 -0.6459  0.5460
 7189TIP3    H145762   6.463   3.158   5.858 -1.2075  0.0044 -0.4775
 7189TIP3    H245763   6.334   3.164   5.937 -0.1299  0.8291  1.2899
 7190TIP3   OH245764   0.709   5.751   8.852 -0.3404 -0.2558 -0.2634
 7190TIP3    H145765   0.745   5.662   8.849  0.1868 -0.0947  0.7028
 7190TIP3    H245766   0.635   5.745   8.912  0.1265  0.0879  0.3626
 7191TIP3   OH245767   4.596   4.180   8.163  0.0161  0.0952 -0.4503
 7191TIP3    H145768   4.528   4.119   8.190  0.4357 -0.4265 -0.5500
 7191TIP3    H245769   4.677   4.142   8.197  0.4599 -0.1681 -1.7271
 7192TIP3   OH245770   3.478   4.939   8.910 -0.1824  0.0501  0.2033
 7192TIP3    H145771   3.513   4.950   8.821  1.0353  0.0394  0.6587
 7192TIP3    H245772   3.483   5.027   8.948 -0.6549  0.0454  0.2796
 7193TIP3   OH245773   2.254   3.684   8.148 -0.4517  0.0288 -0.0128
 7193TIP3    H145774   2.181   3.743   8.166  1.0062  1.2208  2.5366
 7193TIP3    H245775   2.265   3.634   8.229  0.6440 -1.1667 -0.8595
 7194TIP3   OH245776   5.539   1.833   6.686  0.1881 -0.0536  0.0081
 7194TIP3    H145777   5.443   1.836   6.684  0.1201 -1.6867 -1.3226
 7194TIP3    H245778   5.561   1.845   6.778 -1.3901 -1.1875  0.5760
 7195TIP3   OH245779   0.470   0.656   8.230  0.5077 -0.0438 -0.1453
 7195TIP3    H145780   0.420   0.731   8.263 -0.6297 -0.6696 -0.3764
 7195TIP3    H245781   0.545   0.694   8.186  0.2574  0.9378  0.2587
 7196TIP3   OH245782   6.668   2.105   5.648 -0.1095  0.1413  0.1131
 7196TIP3    H145783   6.671   2.116   5.553  3.0136  0.0717  0.1010
 7196TIP3    H245784   6.581   2.069   5.665 -1.0575  0.8690 -2.5984
 7197TIP3   OH245785   4.989   3.252   7.964  0.1432  0.4166 -0.4046
 7197TIP3    H145786   5.050   3.186   7.933  0.1991  0.0622  0.4218
 7197TIP3    H245787   5.032   3.291   8.040 -1.0027 -0.4429  0.7300
 7198TIP3   OH245788   3.688   0.015   8.834  0.7611  0.0033 -0.0887
 7198TIP3    H145789   3.615   0.045   8.781  1.0304  0.4729 -0.2010
 7198TIP3    H245790   3.659  -0.069   8.870  0.2346  0.1086 -0.2605
 7199TIP3   OH245791   3.945   0.868   7.593 -0.4430  0.5868  0.5128
 7199TIP3    H145792   3.910   0.791   7.549 -0.5507  1.2548 -0.5950
 7199TIP3    H245793   3.931   0.940   7.531 -0.5351  1.5438  1.6030
 7200TIP3   OH245794   3.514   0.353   6.869 -0.0199  0.6370  0.3599
 7200TIP3    H145795   3.562   0.426   6.908 -0.7878  0.6656  1.2876
 7200TIP3    H245796   3.552   0.275   6.908  0.0567  0.6013  0.2133
 7201TIP3   OH245797   1.081   3.956   7.496  0.2959  0.2841  0.2473
 7201TIP3    H145798   1.118   3.903   7.425 -0.0815 -0.1255  0.3511
 7201TIP3    H245799   0.991   3.974   7.468 -0.1114 -0.5475  0.9705
 7202TIP3   OH245800   6.011   3.908   8.120 -0.3255 -0.3881  0.3351
 7202TIP3    H145801   5.969   3.963   8.054 -0.5664 -1.0581 -0.0723
 7202TIP3    H245802   6.016   3.821   8.080  0.3878 -0.5876  0.8280
 7203TIP3   OH245803   0.411   2.210   7.075  0.4670 -0.6024  0.1694
 7203TIP3    H145804   0.474   2.176   7.138  0.6644  1.7400  1.3324
 7203TIP3    H245805   0.457   2.281   7.031 -1.4644  1.6096  1.5105
 7204TIP3   OH245806   1.615   5.795   8.233 -0.3004 -0.0923  0.0377
 7204TIP3    H145807   1.586   5.713   8.273  3.4644 -0.6114  2.2135
 7204TIP3    H245808   1.666   5.768   8.156 -1.7811  0.4958 -1.1924
 7205TIP3   OH245809   6.025   4.873   8.890  0.3645 -0.5701 -0.1273
 7205TIP3    H145810   5.994   4.891   8.801  0.6198  1.6119  0.1650
 7205TIP3    H245811   5.973   4.930   8.946  0.0961 -2.0404  1.1775
 7206TIP3   OH245812   5.578   0.798   7.833 -0.2194 -0.0874  0.3070
 7206TIP3    H145813   5.569   0.874   7.776 -0.4797  0.3417  0.9019
 7206TIP3    H245814   5.600   0.725   7.775 -0.3881  0.3588 -0.3154
 7207TIP3   OH245815   4.616   0.795   8.079  0.1964 -0.8081 -0.4911
 7207TIP3    H145816   4.609   0.882   8.040 -1.3366  0.2786  1.9840
 7207TIP3    H245817   4.710   0.779   8.086  0.5120 -0.2057 -2.6158
 7208TIP3   OH245818   5.274   4.366   7.728  0.7594 -0.7275 -0.1189
 7208TIP3    H145819   5.239   4.280   7.704  1.6054 -0.9604 -0.5332
 7208TIP3    H245820   5.210   4.401   7.790  0.0038 -1.3200 -0.5475
 7209TIP3   OH245821   0.056   2.150   6.876 -0.5419 -0.1257 -1.0051
 7209TIP3    H145822  -0.016   2.109   6.828 -1.0133  2.2071 -2.4071
 7209TIP3    H245823   0.015   2.188   6.954 -0.4385 -0.5991 -0.7144
 7210TIP3   OH245824   2.347   4.579   7.913  0.5233  0.5992 -0.0120
 7210TIP3    H145825   2.366   4.547   8.001  1.1280 -0.0751 -0.3772
 7210TIP3    H245826   2.253   4.565   7.903  0.4372  0.7506  0.5537
 7211TIP3   OH245827   4.729   2.886   5.635  0.0546 -0.2454  0.0607
 7211TIP3    H145828   4.771   2.836   5.705  0.9980  0.4642  0.0297
 7211TIP3    H245829   4.654   2.927   5.677 -0.4381 -1.2554  0.2073
 7212TIP3   OH245830   1.845   1.149   7.730  0.2019  0.1133  0.1767
 7212TIP3    H145831   1.783   1.221   7.729  0.8305  0.6630 -0.1820
 7212TIP3    H245832   1.819   1.095   7.804 -0.3124  0.6754  0.4090
 7213TIP3   OH245833   1.698   1.652   6.810 -0.1605  0.3031  0.3507
 7213TIP3    H145834   1.736   1.564   6.802 -0.4722  0.2257 -0.3698
 7213TIP3    H245835   1.668   1.657   6.901  0.9229  0.1067  0.7399
 7214TIP3   OH245836   5.986   5.331   7.965  0.2869  0.0434 -0.0212
 7214TIP3    H145837   6.067   5.379   7.984  0.0935  0.3814 -0.0290
 7214TIP3    H245838   5.941   5.326   8.049  1.2368 -1.9335  0.4178
 7215TIP3   OH245839   5.972   1.302   7.748 -0.6415 -0.5126  0.0429
 7215TIP3    H145840   5.995   1.262   7.832 -2.2400  0.1039  0.8156
 7215TIP3    H245841   5.931   1.232   7.698 -2.9284 -0.0743  1.1795
 7216TIP3   OH245842   3.725   0.068   5.867 -0.1225 -0.0717 -0.3728
 7216TIP3    H145843   3.784   0.113   5.807 -0.2894  1.9069  0.8287
 7216TIP3    H245844   3.742  -0.025   5.854  2.7540  0.4068 -0.5679
 7217TIP3   OH245845   5.355   0.102   6.681 -0.5673 -0.5630  0.3132
 7217TIP3    H145846   5.410   0.116   6.605 -0.3876 -1.7201  0.2154
 7217TIP3    H245847   5.394   0.027   6.726 -0.9409 -0.1976  1.2955
 7218TIP3   OH245848   3.989   2.167   6.321  0.2460  0.0626 -0.0548
 7218TIP3    H145849   3.964   2.140   6.233  2.5078 -2.6224 -0.0159
 7218TIP3    H245850   3.908   2.158   6.372 -0.8655  0.7310 -1.6317
 7219TIP3   OH245851   3.032   4.109   7.878 -0.1491 -0.2802  0.0125
 7219TIP3    H145852   2.997   4.141   7.961 -0.9381 -0.6836 -0.1509
 7219TIP3    H245853   3.103   4.170   7.857  0.0451 -0.1563  0.9584
 7220TIP3   OH245854   3.099   3.734   8.601  0.2521 -0.4232 -0.8673
 7220TIP3    H145855   3.089   3.801   8.533  0.2800  1.5315  0.9291
 7220TIP3    H245856   3.130   3.783   8.678 -0.2168 -2.4488  0.6938
 7221TIP3   OH245857   5.080   6.261   9.408 -0.2040 -0.0659 -0.3763
 7221TIP3    H145858   5.116   6.230   9.491  0.9722 -0.3533 -0.9727
 7221TIP3    H245859   5.118   6.202   9.343  0.2215  1.1932 -1.2886
 7222TIP3   OH245860   5.262   0.158   9.229 -0.2209 -0.2634 -0.2169
 7222TIP3    H145861   5.326   0.156   9.301  0.3732  1.7534 -0.6358
 7222TIP3    H245862   5.291   0.089   9.170  0.7642 -0.2837  0.2664
 7223TIP3   OH245863   4.865   3.236   5.476 -0.0167 -0.3916  0.2120
 7223TIP3    H145864   4.837   3.272   5.392 -2.9960 -0.7546  0.9189
 7223TIP3    H245865   4.960   3.237   5.472 -0.0399  0.3122 -2.8414
 7224TIP3   OH245866   4.089   1.231   7.469 -0.0392  0.2046 -0.1271
 7224TIP3    H145867   4.131   1.146   7.456 -1.2862 -0.3419 -0.7455
 7224TIP3    H245868   3.996   1.213   7.461 -0.2965  1.7468 -0.9294
 7225TIP3   OH245869   5.123   4.731   5.572 -0.5273  0.4208 -0.3619
 7225TIP3    H145870   5.184   4.777   5.630 -2.1727  0.4967  1.4193
 7225TIP3    H245871   5.115   4.643   5.610 -2.9221  0.9876  0.6564
 7226TIP3   OH245872   1.470   0.555   6.483 -0.0914 -0.3170  0.6380
 7226TIP3    H145873   1.528   0.609   6.538  1.6464 -0.4119 -1.0164
 7226TIP3    H245874   1.449   0.479   6.537  1.2151 -0.2045  1.3275
 7227TIP3   OH245875   5.606   2.846   6.356  0.1492 -0.4140 -0.6729
 7227TIP3    H145876   5.564   2.875   6.275 -1.1088 -0.5985 -0.1129
 7227TIP3    H245877   5.583   2.753   6.363 -0.5352 -0.1885  0.3398
 7228TIP3   OH245878   0.437   2.183   8.604 -0.2013 -0.6704 -0.1222
 7228TIP3    H145879   0.496   2.257   8.597 -0.6745 -0.3488 -0.8609
 7228TIP3    H245880   0.494   2.106   8.599  0.1955 -0.3628 -0.3849
 7229TIP3   OH245881   4.512   0.889   6.542  0.3081 -0.3652  0.1378
 7229TIP3    H145882   4.604   0.918   6.546  0.5909 -1.2073  4.4288
 7229TIP3    H245883   4.461   0.968   6.558  0.3568 -0.2176 -0.4072
 7230TIP3   OH245884   4.961   3.530   8.586 -0.4777 -0.9141 -0.0300
 7230TIP3    H145885   4.989   3.622   8.584  0.7256 -1.2730 -1.1459
 7230TIP3    H245886   4.965   3.506   8.679  1.9032 -0.5927  0.0193
 7231TIP3   OH245887   3.997   5.224   7.329 -0.3441  0.3338 -0.3461
 7231TIP3    H145888   3.994   5.138   7.288 -0.9035 -0.0436  0.4695
 7231TIP3    H245889   4.075   5.221   7.385 -1.8203 -0.6447  1.7826
 7232TIP3   OH245890   0.159   3.298   7.897  0.5866 -0.0724 -0.5056
 7232TIP3    H145891   0.107   3.258   7.828 -0.3056  2.0274 -1.1019
 7232TIP3    H245892   0.184   3.384   7.863 -0.0564  1.1330  1.8274
 7233TIP3   OH245893   1.143   1.142   7.491  0.2907 -0.2621  0.1911
 7233TIP3    H145894   1.110   1.214   7.546 -0.7248 -0.7929  0.2992
 7233TIP3    H245895   1.203   1.184   7.430 -1.3503  0.9196 -0.6731
 7234TIP3   OH245896   2.482   0.027   7.469 -0.1576  0.0967 -0.3420
 7234TIP3    H145897   2.438   0.058   7.390 -2.2322  0.2091  0.7887
 7234TIP3    H245898   2.417   0.038   7.538  1.5950 -0.0068  1.3931
 7235TIP3   OH245899   3.482   1.058   7.546  0.1886  0.1622 -0.2537
 7235TIP3    H145900   3.514   1.146   7.530  0.2559  0.3685  0.9587
 7235TIP3    H245901   3.436   1.063   7.630 -1.4604 -0.5285 -1.0506
 7236TIP3   OH245902   0.982   4.742   7.151 -0.2565  0.1488 -0.2154
 7236TIP3    H145903   0.943   4.768   7.235 -0.0919  0.4659 -0.2374
 7236TIP3    H245904   1.060   4.692   7.176 -1.5085 -1.8910 -0.1338
 7237TIP3   OH245905   5.541   2.022   5.745 -0.4551  0.5030  0.2755
 7237TIP3    H145906   5.554   1.958   5.675 -0.0631  1.2610 -0.3639
 7237TIP3    H245907   5.504   1.971   5.817  1.1984 -0.7561  0.3166
 7238TIP3   OH245908   3.755   4.739   8.518  0.2382 -0.1951 -0.1481
 7238TIP3    H145909   3.743   4.647   8.497  1.5682 -0.0398 -1.8339
 7238TIP3    H245910   3.815   4.740   8.592  0.4335 -0.6783 -0.2986
 7239TIP3   OH245911   5.717   5.026   8.739  0.2416  0.1092  0.3901
 7239TIP3    H145912   5.691   5.107   8.783  0.9208  0.2738  0.5128
 7239TIP3    H245913   5.715   4.959   8.808 -1.7591 -0.3110 -0.0282
 7240TIP3   OH245914   2.884   5.507   5.713  0.6494 -0.1041  0.3076
 7240TIP3    H145915   2.810   5.472   5.762  0.6650 -0.9476 -0.2480
 7240TIP3    H245916   2.945   5.434   5.705 -1.3715 -1.7272 -5.0028
 7241TIP3   OH245917   0.063   4.810   6.836  0.7733  0.2300 -0.6900
 7241TIP3    H145918  -0.016   4.823   6.783 -0.0902  0.1380  0.5315
 7241TIP3    H245919   0.127   4.872   6.800  1.0228 -1.4303 -3.3337
 7242TIP3   OH245920   2.349   0.102   6.326 -0.3373  0.4311  0.1877
 7242TIP3    H145921   2.294   0.170   6.365 -0.6732  0.7964 -0.8852
 7242TIP3    H245922   2.376   0.138   6.242  2.4441  0.7020  1.0921
 7243TIP3   OH245923   5.326   3.880   9.420 -0.3770 -0.7314  0.1167
 7243TIP3    H145924   5.401   3.823   9.401 -0.7077 -0.3731 -2.5695
 7243TIP3    H245925   5.354   3.930   9.497  2.6130  0.1187 -1.3507
 7244TIP3   OH245926   1.607   4.752   6.319 -0.1894 -0.2102 -0.2860
 7244TIP3    H145927   1.523   4.797   6.311  0.6842  1.5366 -0.2395
 7244TIP3    H245928   1.623   4.748   6.413  0.2784  0.4600 -0.3338
 7245TIP3   OH245929   1.089   0.952   7.230  0.5811 -0.3424  0.3888
 7245TIP3    H145930   1.143   0.997   7.166 -0.0508 -0.4098 -0.2076
 7245TIP3    H245931   1.111   0.992   7.314 -1.6273  2.7755 -0.3498
 7246TIP3   OH245932   3.448   0.533   5.911 -0.5298 -0.4300  0.6185
 7246TIP3    H145933   3.421   0.557   6.000 -0.2710  0.7474  0.3965
 7246TIP3    H245934   3.510   0.461   5.923 -0.9615 -0.6901  1.3487
 7247TIP3   OH245935   0.573   2.526   7.210 -0.2708  0.1685  0.5262
 7247TIP3    H145936   0.545   2.594   7.149 -0.2056  0.1356  0.4592
 7247TIP3    H245937   0.491   2.488   7.243 -0.3098  0.5724  0.8957
 7248TIP3   OH245938   5.448   6.012   6.757 -0.0138  0.0575 -0.3078
 7248TIP3    H145939   5.461   6.002   6.851  0.0315 -1.7564 -0.4785
 7248TIP3    H245940   5.535   6.033   6.723  0.6940 -2.4581 -0.2783
 7249TIP3   OH245941   1.985   2.303   7.938  0.2143 -0.5051 -0.2176
 7249TIP3    H145942   2.014   2.350   7.860  1.9158  0.0483  0.7139
 7249TIP3    H245943   1.951   2.371   7.996 -1.1676 -0.9316 -0.4884
 7250TIP3   OH245944   1.456   3.772   5.898 -0.1646  0.0425  0.6364
 7250TIP3    H145945   1.487   3.838   5.960 -0.8059  0.6442  0.3318
 7250TIP3    H245946   1.382   3.814   5.854 -0.9733 -1.0973  0.8621
 7251TIP3   OH245947   1.929   6.329   6.689  0.4840  0.2018  0.2386
 7251TIP3    H145948   1.964   6.359   6.605 -1.0874 -2.9066 -1.7250
 7251TIP3    H245949   2.003   6.283   6.730  1.1434  1.3856  0.4293
 7252TIP3   OH245950   4.947   5.210   6.032 -0.0932  0.2714  0.5245
 7252TIP3    H145951   5.022   5.189   6.087 -0.6604  2.2258  2.1783
 7252TIP3    H245952   4.969   5.294   5.991 -0.8333  0.2072 -0.0322
 7253TIP3   OH245953   2.994   5.571   7.458  0.7685 -0.1904 -0.3161
 7253TIP3    H145954   3.033   5.557   7.371 -1.6385 -1.0752 -1.3314
 7253TIP3    H245955   2.928   5.503   7.467  0.3372  0.4285  1.8631
 7254TIP3   OH245956   2.335   5.696   6.302 -0.3090 -0.3489  0.3144
 7254TIP3    H145957   2.321   5.784   6.337  0.2378 -0.8082  1.7367
 7254TIP3    H245958   2.421   5.701   6.259 -0.6477  0.0103 -0.3492
 7255TIP3   OH245959   5.169   6.670   8.677  0.5275  0.9149  0.2639
 7255TIP3    H145960   5.254   6.626   8.686 -0.0176 -0.1942  0.1219
 7255TIP3    H245961   5.119   6.642   8.753 -0.2808  0.2360 -0.5003
 7256TIP3   OH245962   4.853   1.677   7.148  0.8120  0.2351 -0.5492
 7256TIP3    H145963   4.809   1.759   7.122 -1.7519 -0.8496  0.0591
 7256TIP3    H245964   4.840   1.619   7.073  1.4709 -0.0373 -0.4543
 7257TIP3   OH245965   1.313   2.067   7.657 -0.4799  0.8301 -0.2276
 7257TIP3    H145966   1.336   1.999   7.594 -2.2419 -3.0355  2.8827
 7257TIP3    H245967   1.372   2.053   7.731 -1.2031  2.4015  0.7120
 7258TIP3   OH245968   3.497   3.124   9.283 -0.5132 -0.4970 -0.0136
 7258TIP3    H145969   3.585   3.161   9.292 -0.4904 -0.6503  0.4022
 7258TIP3    H245970   3.496   3.085   9.195 -0.5736  0.5736 -0.5107
 7259TIP3   OH245971   6.024   4.524   7.804  0.1910 -0.1932 -0.0414
 7259TIP3    H145972   5.930   4.507   7.801  0.3160 -0.7600 -1.7533
 7259TIP3    H245973   6.061   4.446   7.845  0.1621 -1.3689 -2.1250
 7260TIP3   OH245974   5.079   3.443   6.290  0.1850 -0.2314 -0.2524
 7260TIP3    H145975   5.133   3.455   6.212 -0.0278  0.3391 -0.3210
 7260TIP3    H245976   4.990   3.467   6.262 -0.2597 -1.8369 -0.3356
 7261TIP3   OH245977   3.014   4.207   8.138  0.4645  0.2273 -0.1227
 7261TIP3    H145978   3.021   4.295   8.103  0.5295 -0.1767 -1.1785
 7261TIP3    H245979   3.011   4.218   8.233  0.4140  1.3573 -0.2498
 7262TIP3   OH245980   2.506   2.913   5.943 -0.0713  0.4500 -0.5417
 7262TIP3    H145981   2.434   2.896   6.005 -0.8742 -0.4798 -1.6677
 7262TIP3    H245982   2.562   2.836   5.950 -0.2058  0.3028 -0.9896
 7263TIP3   OH245983   5.016   1.716   6.021  0.4797 -0.3136  0.0065
 7263TIP3    H145984   5.054   1.750   5.941 -0.9558  0.8350 -0.2118
 7263TIP3    H245985   4.922   1.717   6.006  0.2286 -1.0511  1.3360
 7264TIP3   OH245986   3.801   6.711   7.656 -0.0796  0.2799 -0.2057
 7264TIP3    H145987   3.749   6.638   7.625 -1.0383  1.3711 -1.2917
 7264TIP3    H245988   3.774   6.785   7.601  1.6438  1.2051  0.1021
 7265TIP3   OH245989   3.418   6.675  13.948 -0.1023  0.2394  0.5192
 7265TIP3    H145990   3.371   6.716  14.021  0.8368  0.5515  0.9677
 7265TIP3    H245991   3.399   6.581  13.958  0.7925  0.1582  1.7792
 7266TIP3   OH245992   2.992   4.819   6.485  0.4615 -0.3044 -0.5795
 7266TIP3    H145993   3.080   4.831   6.448  0.7039 -0.0383  0.0638
 7266TIP3    H245994   2.980   4.895   6.543  0.5308 -1.2518  0.7135
 7267TIP3   OH245995   3.715   3.864  10.008 -0.1984 -0.3146 -0.6561
 7267TIP3    H145996   3.622   3.887  10.016 -0.0875  0.0078 -0.2768
 7267TIP3    H245997   3.717   3.796   9.940 -0.3519  1.8180 -2.9156
 7268TIP3   OH245998   4.997   3.829   7.280 -0.0088 -0.3133  0.0718
 7268TIP3    H145999   4.950   3.752   7.313 -2.1922  1.7785  2.3000
 7268TIP3    H246000   5.031   3.872   7.358  1.1622  0.9845 -1.1062
 7269TIP3   OH246001   5.544   5.969   6.114  0.3988 -0.2184  0.2421
 7269TIP3    H146002   5.467   5.998   6.065 -0.3617 -1.3121  0.7476
 7269TIP3    H246003   5.609   5.948   6.047 -0.8595 -2.3555 -0.4027
 7270TIP3   OH246004   2.198   3.104   7.166  0.5637 -0.4192  0.3929
 7270TIP3    H146005   2.200   3.164   7.091 -2.7918  0.2829  0.7500
 7270TIP3    H246006   2.274   3.130   7.219  0.1329  2.4855 -0.2458
 7271TIP3   OH246007   5.961   6.267   7.186  0.1200 -0.5255 -0.4080
 7271TIP3    H146008   6.015   6.216   7.125  0.2135  0.0360 -0.8027
 7271TIP3    H246009   5.959   6.355   7.148  1.7911  0.3713  1.3734
 7272TIP3   OH246010   6.745   3.730   6.787 -0.0773 -0.2098  0.0489
 7272TIP3    H146011   6.755   3.650   6.839  0.2707  0.1395  0.5319
 7272TIP3    H246012   6.809   3.791   6.825 -0.3862  0.3201 -0.2737
 7273TIP3   OH246013   1.139   0.375   6.491  1.0087 -0.6729  0.3327
 7273TIP3    H146014   1.178   0.305   6.542 -2.4682 -2.0480  1.3730
 7273TIP3    H246015   1.111   0.333   6.409  1.5371  0.2319 -0.3337
 7274TIP3   OH246016   1.426   4.345   9.553  0.4685 -0.3385  0.1460
 7274TIP3    H146017   1.518   4.318   9.550  0.3528 -1.0554  1.9709
 7274TIP3    H246018   1.419   4.396   9.634 -1.0590 -1.6369  0.8906
 7275TIP3   OH246019   5.012   1.510   7.331  0.8363  0.4068 -0.3578
 7275TIP3    H146020   4.960   1.567   7.275  0.2357  0.3949  0.1882
 7275TIP3    H246021   4.952   1.442   7.359  1.1910  0.2886  0.1313
 7276TIP3   OH246022   0.231   0.204   7.140  0.2181  0.0220 -0.1414
 7276TIP3    H146023   0.325   0.199   7.126  0.0326  0.7608 -1.8803
 7276TIP3    H246024   0.218   0.289   7.183  0.3120  0.0969 -0.2592
 7277TIP3   OH246025   2.715   6.754   8.155 -0.2677 -0.0538  0.1853
 7277TIP3    H146026   2.780   6.796   8.099  0.2708  0.8839  1.4441
 7277TIP3    H246027   2.666   6.696   8.097 -0.7837  2.0383 -1.5599
 7278TIP3   OH246028   6.084   0.067   7.405 -0.4457 -0.1919 -0.4337
 7278TIP3    H146029   6.141  -0.008   7.421  1.2166  1.1532  0.3914
 7278TIP3    H246030   6.008   0.031   7.359  0.2542 -2.3519 -0.0192
 7279TIP3   OH246031   0.269   3.266   7.616 -0.1391  0.0576  0.0751
 7279TIP3    H146032   0.274   3.219   7.532 -1.0125  0.0712  0.0039
 7279TIP3    H246033   0.184   3.240   7.652  0.0704  0.3506  0.7832
 7280TIP3   OH246034   4.936   6.336   8.759  0.3946 -0.2274  0.4126
 7280TIP3    H146035   4.904   6.343   8.850  0.7826  0.7819  0.4885
 7280TIP3    H246036   5.031   6.333   8.768  0.4103 -2.3222  0.1362
 7281TIP3   OH246037   5.415   4.308   8.324  0.4434  0.1352  0.4609
 7281TIP3    H146038   5.349   4.366   8.285  2.5989  2.4665  0.0030
 7281TIP3    H246039   5.424   4.236   8.261 -0.7919  0.3824 -0.0308
 7282TIP3   OH246040   4.187   0.723   7.424 -0.2234 -0.1395  0.4775
 7282TIP3    H146041   4.125   0.793   7.406 -0.0080  0.1668  0.9134
 7282TIP3    H246042   4.178   0.663   7.350  1.1695  1.4289 -1.0526
 7283TIP3   OH246043   0.656   3.501   6.555  0.3826  0.0241 -0.0169
 7283TIP3    H146044   0.691   3.465   6.474  1.3386  0.8035  0.0270
 7283TIP3    H246045   0.580   3.446   6.576 -0.5785  0.5178 -2.0295
 7284TIP3   OH246046   5.953   6.101   7.397  0.1799 -0.2394  0.4170
 7284TIP3    H146047   5.882   6.038   7.391  1.1741 -1.3543 -0.0756
 7284TIP3    H246048   5.933   6.167   7.331  0.4947 -1.4908 -0.9784
 7285TIP3   OH246049   1.677   0.348   7.678  0.0343  0.2915  0.2770
 7285TIP3    H146050   1.710   0.378   7.593  1.1077 -3.0044 -0.6181
 7285TIP3    H246051   1.732   0.393   7.742  0.8102  1.0321 -0.8614
 7286TIP3   OH246052   0.997   4.322   6.966 -0.1447  0.4377  0.1785
 7286TIP3    H146053   0.918   4.317   6.911 -0.7491  2.1809  0.8315
 7286TIP3    H246054   0.967   4.296   7.053  0.4760 -0.8263  0.0406
 7287TIP3   OH246055   6.582   1.305   7.387 -0.1242  0.9169 -0.1884
 7287TIP3    H146056   6.623   1.279   7.305  1.1046 -0.6055  0.8713
 7287TIP3    H246057   6.622   1.389   7.408 -0.9577  1.6716 -1.4502
 7288TIP3   OH246058   0.098   5.568   7.352 -0.2534  0.5874 -0.4795
 7288TIP3    H146059   0.118   5.474   7.362 -3.1874 -0.0572  0.5290
 7288TIP3    H246060   0.119   5.605   7.438 -1.2875  0.3273 -0.0959
 7289TIP3   OH246061   2.542   4.678   7.145  0.2982  0.2437 -0.1806
 7289TIP3    H146062   2.596   4.757   7.150  0.1314  0.4069 -0.7862
 7289TIP3    H246063   2.520   4.657   7.235 -1.7881  2.3659 -0.0971
 7290TIP3   OH246064   4.971   4.348   7.195  0.1949  0.0446 -0.1790
 7290TIP3    H146065   5.010   4.297   7.125 -0.0872  0.0107 -0.3102
 7290TIP3    H246066   5.017   4.319   7.274 -0.1898 -0.6426 -0.2063
 7291TIP3   OH246067   6.164   0.917   7.045  0.1314 -0.3818  0.6111
 7291TIP3    H146068   6.111   0.875   6.978  1.7910 -0.1401 -0.9423
 7291TIP3    H246069   6.121   1.002   7.060  0.2990  0.0073 -0.9563
 7292TIP3   OH246070   1.358   3.287   6.580 -0.5276 -0.0819  0.5379
 7292TIP3    H146071   1.349   3.320   6.491 -2.9571 -0.9066  0.4163
 7292TIP3    H246072   1.330   3.196   6.575 -0.8635 -0.0945  2.1531
 7293TIP3   OH246073   5.275   4.673   6.006 -0.3969 -0.6130 -0.2970
 7293TIP3    H146074   5.333   4.699   6.078  0.6690 -1.5247 -0.7896
 7293TIP3    H246075   5.192   4.718   6.024  0.4983  0.8396  0.3512
 7294TIP3   OH246076   5.056   2.175   5.855  0.5567 -0.1395 -0.1379
 7294TIP3    H146077   5.054   2.167   5.760 -2.0911 -0.7125 -0.1033
 7294TIP3    H246078   5.040   2.268   5.872  1.4398  0.0356 -0.2448
 7295TIP3   OH246079   3.699   5.527   8.416  0.2180  0.3715 -0.6071
 7295TIP3    H146080   3.713   5.530   8.321  0.6627 -0.6644 -0.5947
 7295TIP3    H246081   3.716   5.616   8.446 -0.5381  0.8553 -1.5713
 7296TIP3   OH246082   1.404   4.939   8.155 -0.0874 -0.4551 -0.0496
 7296TIP3    H146083   1.465   4.869   8.178  0.3972  0.2396  0.8265
 7296TIP3    H246084   1.386   4.984   8.238  0.6435  1.2708 -0.7783
 7297TIP3   OH246085   5.925   4.877   6.956  0.6949  0.0955  0.1419
 7297TIP3    H146086   5.871   4.834   7.023 -0.2453 -0.2370 -0.8001
 7297TIP3    H246087   6.015   4.853   6.979  0.3853 -0.1254  1.2004
 7298TIP3   OH246088   3.658   5.999   6.618  0.0415 -0.5662 -0.5299
 7298TIP3    H146089   3.692   6.042   6.540  2.6110 -0.7633  0.3785
 7298TIP3    H246090   3.715   6.029   6.689 -1.7317 -0.9804  1.1594
 7299TIP3   OH246091   3.960   3.805   7.886 -0.2712  0.5913  0.0798
 7299TIP3    H146092   3.984   3.740   7.820 -1.1810  1.7087 -1.4146
 7299TIP3    H246093   3.923   3.754   7.958 -1.4202 -0.5594 -1.2610
 7300TIP3   OH246094   4.831   0.644   6.781  0.5851 -0.1656 -0.5726
 7300TIP3    H146095   4.887   0.570   6.803 -1.3953 -1.5616  0.1189
 7300TIP3    H246096   4.817   0.636   6.686  1.7156  0.3721 -0.8082
 7301TIP3   OH246097   1.774   4.746   5.954 -0.5037 -0.5038 -0.0260
 7301TIP3    H146098   1.803   4.832   5.925 -0.2327 -0.1060  1.3489
 7301TIP3    H246099   1.845   4.686   5.928 -0.3865 -0.2091 -0.3893
 7302TIP3   OH246100   5.108   3.374   8.184 -0.1189 -0.1470  0.0251
 7302TIP3    H146101   5.182   3.407   8.235 -0.1564  0.3816 -0.2652
 7302TIP3    H246102   5.031   3.396   8.237 -0.1670  0.5152 -0.3210
 7303TIP3   OH246103   4.701   2.941   6.862 -0.2118 -0.6866 -0.1116
 7303TIP3    H146104   4.687   2.848   6.882 -0.4089 -0.4749  0.7540
 7303TIP3    H246105   4.679   2.987   6.942  0.5035  0.0703 -0.3304
 7304TIP3   OH246106   6.539   2.323   6.562 -0.5384 -0.4754 -1.1069
 7304TIP3    H146107   6.570   2.290   6.477  0.9250 -1.3588 -0.2735
 7304TIP3    H246108   6.557   2.417   6.559 -2.1542 -0.1636 -2.4339
 7305TIP3   OH246109   6.222   3.398   5.777 -0.2015  0.0600 -0.3236
 7305TIP3    H146110   6.215   3.312   5.819  1.4511  1.0921  2.3613
 7305TIP3    H246111   6.136   3.437   5.790 -0.7476 -0.8861 -0.9380
 7306TIP3   OH246112   3.537   4.351   8.457 -0.1146 -0.0828 -0.1906
 7306TIP3    H146113   3.443   4.349   8.438 -0.2472  0.5008  0.3482
 7306TIP3    H246114   3.543   4.394   8.543  0.5556 -1.2625  0.3712
 7307TIP3   OH246115   5.024   1.900   8.466 -0.2590 -0.4021 -0.5986
 7307TIP3    H146116   4.936   1.875   8.494 -0.2983 -3.0981 -2.7077
 7307TIP3    H246117   5.082   1.849   8.522 -0.1074 -0.4270 -0.7801
 7308TIP3   OH246118   4.253   1.212   6.211  0.1404  0.0929 -0.2040
 7308TIP3    H146119   4.208   1.289   6.245  1.9546  1.8842 -1.5805
 7308TIP3    H246120   4.345   1.226   6.233  0.9111 -0.2461 -2.8793
 7309TIP3   OH246121   2.358   3.454   7.435 -0.1172  0.3504  0.0659
 7309TIP3    H146122   2.287   3.501   7.391 -0.2344 -0.6424 -0.8645
 7309TIP3    H246123   2.402   3.520   7.488 -1.2283  1.1551  0.0051
 7310TIP3   OH246124   2.665   3.081   8.574 -0.7044  0.3050 -0.2967
 7310TIP3    H146125   2.611   3.096   8.496  0.0314 -0.1254 -0.8954
 7310TIP3    H246126   2.650   2.989   8.596 -0.1479  0.1644 -0.5110
 7311TIP3   OH246127   5.306   2.143   7.304 -0.7283  0.3742  0.4885
 7311TIP3    H146128   5.246   2.139   7.379 -1.9103  0.2340 -0.4298
 7311TIP3    H246129   5.308   2.053   7.271 -0.8092  0.5765 -0.0795
 7312TIP3   OH246130   5.951   4.276   6.160  0.3225 -0.5010  0.2299
 7312TIP3    H146131   5.881   4.250   6.220  0.5943 -1.2390  0.2385
 7312TIP3    H246132   6.031   4.268   6.212  0.4649 -0.1507  0.0687
 7313TIP3   OH246133   6.475   2.435   8.055  0.7634 -0.1293  0.8532
 7313TIP3    H146134   6.464   2.346   8.089  0.9633  0.0039  1.2691
 7313TIP3    H246135   6.555   2.432   8.004 -0.0054 -0.5553 -0.3758
 7314TIP3   OH246136   5.901   3.345   6.752 -0.2850 -0.7064  0.1144
 7314TIP3    H146137   5.932   3.278   6.814  2.0116 -0.8951 -1.1464
 7314TIP3    H246138   5.892   3.298   6.669  2.4873  0.6972 -1.0765
 7315TIP3   OH246139   5.420   3.277   8.276  0.0508 -0.3850 -0.6774
 7315TIP3    H146140   5.502   3.317   8.250  0.0166 -0.3920 -0.7974
 7315TIP3    H246141   5.377   3.342   8.332  1.3112 -1.3762  1.5624
 7316TIP3   OH246142   1.518   2.650   7.786  0.0186 -0.1487 -0.0735
 7316TIP3    H146143   1.512   2.554   7.780 -2.3525 -0.1034  0.6307
 7316TIP3    H246144   1.496   2.680   7.697 -3.6228 -0.2422  0.6437
 7317TIP3   OH246145   1.855   6.441   7.068  0.2778  0.3178  0.5205
 7317TIP3    H146146   1.788   6.440   6.999  2.2188  0.4386 -1.4615
 7317TIP3    H246147   1.860   6.533   7.095 -0.6764  0.2258  1.0719
 7318TIP3   OH246148   1.403   1.666   8.350  0.6469 -0.2359 -0.0236
 7318TIP3    H146149   1.385   1.706   8.265  0.4852  0.9159  0.5469
 7318TIP3    H246150   1.347   1.588   8.352 -1.2906  1.1134  0.0720
 7319TIP3   OH246151   4.672   3.536   7.528  0.2836  0.3373  0.1477
 7319TIP3    H146152   4.645   3.618   7.486  0.0843 -0.0800 -0.5705
 7319TIP3    H246153   4.592   3.500   7.564 -0.0748 -0.6555 -1.5467
 7320TIP3   OH246154   5.650   4.339   6.681  0.1619  0.0810  0.1897
 7320TIP3    H146155   5.592   4.408   6.714 -2.1758 -0.9852 -1.4031
 7320TIP3    H246156   5.608   4.258   6.708  0.8016 -0.7470 -1.2162
 7321TIP3   OH246157   6.169   5.516   7.625 -0.2088  0.1012  0.4067
 7321TIP3    H146158   6.076   5.503   7.646 -0.5507  1.1213 -0.4102
 7321TIP3    H246159   6.182   5.469   7.543 -0.5034  1.5809 -0.5128
 7322TIP3   OH246160   3.382   5.852   7.399 -0.2150 -0.1047  0.2289
 7322TIP3    H146161   3.371   5.889   7.487  1.9430  1.6920 -0.1701
 7322TIP3    H246162   3.318   5.898   7.346  0.3444  0.8524  0.3566
 7323TIP3   OH246163   5.062   4.249   7.416 -1.4147  0.5871  0.4199
 7323TIP3    H146164   5.030   4.209   7.497  0.1270  0.0618  0.8154
 7323TIP3    H246165   5.143   4.293   7.442  0.5725 -1.8327 -1.2543
 7324TIP3   OH246166   1.138   4.928   9.585  0.6353  0.1495 -0.4549
 7324TIP3    H146167   1.207   4.990   9.559 -0.3320  0.5355 -2.2284
 7324TIP3    H246168   1.060   4.982   9.597  0.4800 -0.3539  1.0589
 7325TIP3   OH246169   2.233   5.490   8.695  0.6138  0.0251  0.2104
 7325TIP3    H146170   2.167   5.558   8.675  0.8787  0.7237  1.5976
 7325TIP3    H246171   2.224   5.475   8.789  1.1437 -1.2750  0.0676
 7326TIP3   OH246172   3.931   5.749   8.584  0.2495  0.0420 -0.1773
 7326TIP3    H146173   3.846   5.771   8.547  0.2190 -0.6195 -0.5119
 7326TIP3    H246174   3.930   5.788   8.671  0.8663  2.8051 -1.3306
 7327TIP3   OH246175   1.586   1.289   6.968 -0.2839  0.2103 -0.0700
 7327TIP3    H146176   1.551   1.376   6.986 -2.5315 -0.9613  1.8622
 7327TIP3    H246177   1.601   1.250   7.054  0.3049 -1.4450 -0.8707
 7328TIP3   OH246178   4.483   6.417   5.877 -0.4389  0.0196  0.2519
 7328TIP3    H146179   4.478   6.353   5.806 -2.1429 -0.6752  0.9460
 7328TIP3    H246180   4.402   6.466   5.871 -0.0068  0.8450  0.9115
 7329TIP3   OH246181   5.074   1.189   8.122  0.1955  0.0003 -0.0245
 7329TIP3    H146182   5.030   1.138   8.190  1.0624  1.1212  1.4503
 7329TIP3    H246183   5.014   1.263   8.105  0.1326 -0.1010 -0.2534
 7330TIP3   OH246184   1.987   2.375   7.670  0.1624 -0.1874 -0.2245
 7330TIP3    H146185   1.923   2.440   7.699 -0.1672 -0.7690  0.3825
 7330TIP3    H246186   1.977   2.373   7.575  1.4960  1.9830 -0.4732
 7331TIP3   OH246187   2.723   3.325   6.057 -0.1207  0.3825 -0.0152
 7331TIP3    H146188   2.777   3.402   6.039  1.3318 -0.5022  0.4203
 7331TIP3    H246189   2.672   3.312   5.977  1.3170  0.4550 -0.9785
 7332TIP3   OH246190   6.553   2.728   8.585 -0.2394  0.0817 -0.1231
 7332TIP3    H146191   6.465   2.763   8.566 -0.7427 -0.6848  0.7036
 7332TIP3    H246192   6.565   2.744   8.679 -0.7661 -2.4936  0.4376
 7333TIP3   OH246193   0.541   5.219   8.875  0.3066 -0.2206  0.2475
 7333TIP3    H146194   0.535   5.286   8.806  3.4764 -1.3595 -1.3790
 7333TIP3    H246195   0.609   5.159   8.843  0.1242 -2.2442  3.2687
 7334TIP3   OH246196   4.941   3.069   5.683  0.1507  0.3094 -0.0221
 7334TIP3    H146197   5.024   3.025   5.665 -0.6366 -1.6913  0.9002
 7334TIP3    H246198   4.877   3.022   5.629 -0.4704  1.5237 -0.3713
 7335TIP3   OH246199   1.433   0.640   7.475 -0.2890  1.0887 -0.1558
 7335TIP3    H146200   1.526   0.661   7.474 -0.2869  1.4599  2.3099
 7335TIP3    H246201   1.426   0.559   7.425  1.5374  0.4151  0.6217
 7336TIP3   OH246202   6.528   5.051   8.793  0.4741 -0.2022 -0.0908
 7336TIP3    H146203   6.515   5.091   8.879  0.0277  1.3098 -0.8329
 7336TIP3    H246204   6.445   5.009   8.773  0.0452  0.7882 -0.4436
 7337TIP3   OH246205   0.316   1.837   7.266  0.0861  0.1902 -0.2681
 7337TIP3    H146206   0.245   1.893   7.235 -2.2871 -1.3854  1.8760
 7337TIP3    H246207   0.287   1.748   7.244  2.4398 -0.4501 -1.1533
 7338TIP3   OH246208   4.961   1.432   6.514  0.0423  0.1104 -0.1554
 7338TIP3    H146209   5.043   1.452   6.560  0.5925 -2.0196 -0.1263
 7338TIP3    H246210   4.957   1.336   6.510 -1.6664  0.1713 -1.5825
 7339TIP3   OH246211   1.169   1.506   6.290  0.7059  0.2753 -0.2381
 7339TIP3    H146212   1.146   1.544   6.375  0.9718 -0.6258  0.2493
 7339TIP3    H246213   1.223   1.573   6.248  1.3276  0.3697  0.6882
 7340TIP3   OH246214   4.189   5.985   8.398 -0.5352  0.1389 -0.5625
 7340TIP3    H146215   4.093   5.981   8.404 -0.5128  0.0462 -0.2390
 7340TIP3    H246216   4.217   6.002   8.488 -0.2179 -0.4123 -0.5555
 7341TIP3   OH246217   3.813   4.247   6.584 -0.5375  0.2263 -0.2697
 7341TIP3    H146218   3.725   4.250   6.623 -0.6450  0.5834 -0.5361
 7341TIP3    H246219   3.826   4.334   6.546 -0.5430 -0.1875 -1.2631
 7342TIP3   OH246220   3.706   2.153   5.638  0.2649 -0.3533  0.3779
 7342TIP3    H146221   3.797   2.150   5.669  0.6417  0.3864 -0.5886
 7342TIP3    H246222   3.714   2.174   5.545 -0.9439  1.1106  0.5770
 7343TIP3   OH246223   2.196   3.610   6.471  0.4654 -0.4807  0.4605
 7343TIP3    H146224   2.184   3.546   6.400  0.7724 -0.4276  0.3570
 7343TIP3    H246225   2.199   3.558   6.551  0.5709 -0.5844  0.3892
 7344TIP3   OH246226   1.594   0.151   7.396  0.2915  0.4967 -0.1079
 7344TIP3    H146227   1.589   0.082   7.330  0.3277  0.8788 -0.5154
 7344TIP3    H246228   1.502   0.169   7.419  0.3085 -0.1246  0.4651
 7345TIP3   OH246229   4.982   3.218   6.834 -0.2171  0.2306 -0.4762
 7345TIP3    H146230   5.039   3.148   6.864 -0.2818  0.5460  0.4033
 7345TIP3    H246231   4.946   3.186   6.751 -1.9579 -1.7244  0.9389
 7346TIP3   OH246232   1.660   2.802   8.180 -0.0194  0.4035  0.0653
 7346TIP3    H146233   1.617   2.796   8.095  0.1737 -1.7448  0.0688
 7346TIP3    H246234   1.637   2.889   8.213 -0.9885  0.8496 -1.6862
 7347TIP3   OH246235   2.522   2.869   7.208  0.7148  0.7959 -0.1571
 7347TIP3    H146236   2.445   2.867   7.151  1.8469 -1.8227 -1.7771
 7347TIP3    H246237   2.489   2.840   7.294 -0.5220  2.2950 -0.0671
 7348TIP3   OH246238   5.985   4.360   7.123  0.1003 -0.9034  0.2565
 7348TIP3    H146239   5.914   4.413   7.158  0.5536  0.1391 -0.3296
 7348TIP3    H246240   6.065   4.405   7.152  0.5245 -1.9010  0.6775
 7349TIP3   OH246241   2.932   6.435   6.925  0.0342 -0.0965 -0.2310
 7349TIP3    H146242   2.941   6.426   6.830  0.4521 -1.2929 -0.0883
 7349TIP3    H246243   3.001   6.380   6.961  0.0442  0.5565  0.7767
 7350TIP3   OH246244   6.432   6.709   7.754  0.2630 -0.1988  0.3802
 7350TIP3    H146245   6.350   6.705   7.804 -0.1686 -1.1884 -0.3774
 7350TIP3    H246246   6.491   6.762   7.809 -1.0800  1.1062  0.6440
 7351TIP3   OH246247   2.408   4.121   6.175  0.0408  0.3932 -0.3218
 7351TIP3    H146248   2.342   4.159   6.116  0.7107  0.9406 -0.7403
 7351TIP3    H246249   2.417   4.185   6.245 -0.1139  0.1629 -0.0930
 7352TIP3   OH246250   3.373   1.018   8.340 -0.8212 -0.6571  0.3264
 7352TIP3    H146251   3.331   1.017   8.254 -0.3920 -0.3980  0.1107
 7352TIP3    H246252   3.368   1.110   8.368  1.9324 -0.0380 -0.8745
 7353TIP3   OH246253   4.822   2.436   6.544 -0.3900 -0.1964 -0.0236
 7353TIP3    H146254   4.829   2.529   6.521 -0.9761 -0.1572 -0.0728
 7353TIP3    H246255   4.804   2.435   6.638 -0.9335 -0.2302 -0.1225
 7354TIP3   OH246256   1.772   5.800   7.537  0.4556 -0.0818 -0.0967
 7354TIP3    H146257   1.747   5.811   7.628 -1.1185 -0.2039 -0.4772
 7354TIP3    H246258   1.867   5.788   7.539  0.5860  0.9018  1.4180
 7355TIP3   OH246259   3.815   6.377   7.881 -0.0775 -0.2461 -0.4455
 7355TIP3    H146260   3.873   6.406   7.951 -0.3600 -0.0505 -0.2928
 7355TIP3    H246261   3.838   6.285   7.868 -2.0064 -1.1819  1.9505
 7356TIP3   OH246262   3.280   5.599   5.810  0.0414  0.1176 -0.1226
 7356TIP3    H146263   3.266   5.668   5.745  1.0521  0.1717 -0.3069
 7356TIP3    H246264   3.318   5.644   5.885 -0.7590 -0.0062  0.3663
 7357TIP3   OH246265   5.694   3.818   7.253  0.1395  0.0698 -0.1234
 7357TIP3    H146266   5.734   3.737   7.219  0.3864  0.0760  0.1416
 7357TIP3    H246267   5.666   3.866   7.176  2.0441  0.7787 -0.4265
 7358TIP3   OH246268   3.286   2.427   8.060 -0.0389 -0.7221 -0.1291
 7358TIP3    H146269   3.356   2.422   7.993  0.1195  0.2990 -0.0426
 7358TIP3    H246270   3.322   2.483   8.128 -1.4854  1.0433 -0.7495
 7359TIP3   OH246271   3.265   5.639   8.124  0.1904  0.6997 -0.0381
 7359TIP3    H146272   3.236   5.688   8.048 -0.5371 -0.0622 -0.2709
 7359TIP3    H246273   3.331   5.578   8.091 -1.8754 -1.3841 -0.6117
 7360TIP3   OH246274   1.207   0.122   6.820 -0.5252  0.1164 -0.0570
 7360TIP3    H146275   1.202   0.126   6.724  0.6817 -1.1473 -0.2181
 7360TIP3    H246276   1.140   0.058   6.845 -0.7886  0.3890 -0.0680
 7361TIP3   OH246277   2.873   2.296   6.499  0.2743  0.2391  0.6815
 7361TIP3    H146278   2.908   2.379   6.465  0.2646  0.1663  0.4914
 7361TIP3    H246279   2.794   2.321   6.546 -0.0842  0.2692  0.0724
 7362TIP3   OH246280   4.101   6.447   8.745  0.3485  0.5208 -0.0879
 7362TIP3    H146281   4.092   6.460   8.651  1.2017 -0.3625 -0.3081
 7362TIP3    H246282   4.148   6.364   8.754  1.9284  1.4700  1.0636
 7363TIP3   OH246283   1.476   4.377   5.544 -0.0553  0.2797  0.0005
 7363TIP3    H146284   1.512   4.393   5.457  0.8471  2.3547  0.6910
 7363TIP3    H246285   1.394   4.427   5.546  0.0612  0.4581  0.4106
 7364TIP3   OH246286   2.199   3.513   6.770  0.0789  0.5630 -0.3820
 7364TIP3    H146287   2.167   3.544   6.855 -0.5543  2.2361 -1.1854
 7364TIP3    H246288   2.294   3.524   6.775  0.0367  0.7559  0.0600
 7365TIP3   OH246289   0.098   1.947   8.868 -0.3819  0.8504 -0.2720
 7365TIP3    H146290   0.167   1.923   8.805  0.0609  2.4563 -0.4501
 7365TIP3    H246291   0.078   1.865   8.913  1.7052  0.3275 -0.1610
 7366TIP3   OH246292   0.217   4.167   8.462  0.5225  0.6298  0.3161
 7366TIP3    H146293   0.294   4.165   8.519  0.6236  1.7332  0.2342
 7366TIP3    H246294   0.253   4.187   8.376  0.1024  1.6298  0.3664
 7367TIP3   OH246295   5.424   4.866   7.351 -0.3229  0.3184  0.0670
 7367TIP3    H146296   5.349   4.926   7.341 -0.9227 -0.2021  1.2325
 7367TIP3    H246297   5.405   4.794   7.291 -1.3634 -0.3653  1.1631
 7368TIP3   OH246298   1.203   3.988   8.504  0.0570  0.3942 -0.3025
 7368TIP3    H146299   1.290   3.960   8.533 -1.0220 -0.8829  1.9274
 7368TIP3    H246300   1.166   3.912   8.461 -0.3970  0.5532 -0.1976
 7369TIP3   OH246301   3.214   3.367   5.895 -1.0128 -0.1998  0.3089
 7369TIP3    H146302   3.125   3.350   5.864 -0.5531 -1.1116 -0.5856
 7369TIP3    H246303   3.227   3.304   5.965 -1.3326  0.4620  0.9729
 7370TIP3   OH246304   5.363   3.542   6.010 -0.2773 -0.2937  0.2483
 7370TIP3    H146305   5.412   3.487   6.072  0.0218 -0.8111 -0.4230
 7370TIP3    H246306   5.420   3.618   5.996 -0.5511  0.0492  0.9436
 7371TIP3   OH246307   0.400   0.962   8.001  0.0314  0.1828 -0.0829
 7371TIP3    H146308   0.449   0.887   8.032  0.9498  0.7990 -0.0134
 7371TIP3    H246309   0.451   1.038   8.029  0.4514  0.7911 -2.2829
 7372TIP3   OH246310   0.583   4.609   6.522 -0.2567  0.2936  0.6488
 7372TIP3    H146311   0.494   4.590   6.495 -0.2279 -0.1961  0.8889
 7372TIP3    H246312   0.574   4.656   6.605 -0.2615 -2.3515  2.2792
 7373TIP3   OH246313   6.705   1.382   5.684 -0.1022 -0.4570  0.1464
 7373TIP3    H146314   6.751   1.464   5.663  0.6814 -0.3837  1.9458
 7373TIP3    H246315   6.761   1.313   5.649 -1.3337 -0.2763 -2.4295
 7374TIP3   OH246316   0.604   2.034   6.598 -0.2407  0.4130  0.2820
 7374TIP3    H146317   0.691   2.016   6.561 -0.7327 -0.0037 -0.7111
 7374TIP3    H246318   0.546   2.039   6.522 -1.1889  0.1205  0.9664
 7375TIP3   OH246319   1.843   6.423   6.150 -0.0268 -0.0846 -0.4577
 7375TIP3    H146320   1.772   6.435   6.087 -0.4920 -0.0497  0.0670
 7375TIP3    H246321   1.819   6.479   6.223  1.2900  1.1141 -0.8820
 7376TIP3   OH246322   5.325   4.411   6.956  0.6466  0.5024 -0.7360
 7376TIP3    H146323   5.390   4.445   6.895  0.8956 -0.9090 -1.3082
 7376TIP3    H246324   5.370   4.341   7.003  0.1447  0.8832  0.3459
 7377TIP3   OH246325   6.571   3.582   7.328 -0.1629  0.7637  0.0740
 7377TIP3    H146326   6.477   3.563   7.321 -0.4581  2.2702 -0.4732
 7377TIP3    H246327   6.595   3.613   7.241  0.4055  2.1464  0.6918
 7378TIP3   OH246328   6.442   4.199   8.411 -0.5245 -0.2924 -0.2356
 7378TIP3    H146329   6.499   4.262   8.454  1.1710 -1.5427 -0.5493
 7378TIP3    H246330   6.444   4.122   8.467 -1.1077 -0.7019 -0.7611
 7379TIP3   OH246331   1.501   0.903   7.326 -0.3515 -0.2417 -0.3121
 7379TIP3    H146332   1.485   0.830   7.386  0.0820 -0.2453 -0.1982
 7379TIP3    H246333   1.572   0.952   7.366 -0.4519  0.0852 -0.5320
 7380TIP3   OH246334   5.467   3.375   8.774  0.0764  0.5497 -0.4486
 7380TIP3    H146335   5.440   3.299   8.722 -1.2585 -0.4906  1.6246
 7380TIP3    H246336   5.562   3.366   8.782 -0.0159 -0.7118 -0.5640
 7381TIP3   OH246337   4.170   0.647   6.961  0.4557 -0.4737  0.0376
 7381TIP3    H146338   4.103   0.613   6.902  0.9499  0.2773 -0.9790
 7381TIP3    H246339   4.202   0.570   7.007  0.0010 -1.0703 -0.6226
 7382TIP3   OH246340   1.039   5.654   5.975  0.3029 -0.1729 -0.2198
 7382TIP3    H146341   1.129   5.667   5.946 -0.0262  1.2214 -0.7208
 7382TIP3    H246342   1.047   5.612   6.060  1.3644 -1.6544 -1.0119
 7383TIP3   OH246343   3.476   5.584   7.407  0.2708 -0.2596  0.8210
 7383TIP3    H146344   3.461   5.678   7.405  1.5615 -0.0526 -0.6077
 7383TIP3    H246345   3.388   5.546   7.413 -0.6349  0.9739 -2.6592
 7384TIP3   OH246346   0.025   1.956   8.044  0.4098  0.1335  0.2842
 7384TIP3    H146347   0.089   2.024   8.067  0.7805  0.1603 -0.7481
 7384TIP3    H246348   0.078   1.884   8.011 -0.1017  0.5913 -1.6930
 7385TIP3   OH246349   2.119   0.749   5.701  0.5201  0.1892 -0.4141
 7385TIP3    H146350   2.124   0.657   5.674 -3.9804 -0.4964  0.1798
 7385TIP3    H246351   2.148   0.748   5.792  2.3704 -0.2008 -0.9714
 7386TIP3   OH246352   5.191   6.389   6.130  0.1220  0.0246  0.0576
 7386TIP3    H146353   5.263   6.371   6.190  1.2885  0.9322 -1.0205
 7386TIP3    H246354   5.118   6.416   6.186  1.6161  2.3236  1.0395
 7387TIP3   OH246355   3.824   1.414   6.248 -0.0644  0.1840  0.6685
 7387TIP3    H146356   3.791   1.349   6.310  0.0356  1.5501  2.2069
 7387TIP3    H246357   3.749   1.435   6.193  0.2410 -2.2132 -0.8186
 7388TIP3   OH246358   4.364   0.526   8.432  0.1401  0.0449 -0.5652
 7388TIP3    H146359   4.281   0.559   8.467 -0.8564 -0.6221 -2.1912
 7388TIP3    H246360   4.358   0.431   8.441  0.3498 -0.0585 -1.4740
 7389TIP3   OH246361   1.261   2.186   8.194 -0.6585 -0.3320  0.0931
 7389TIP3    H146362   1.172   2.185   8.229 -0.9702 -4.7003 -0.2479
 7389TIP3    H246363   1.317   2.180   8.271 -0.8251 -0.6579  0.1884
 7390TIP3   OH246364   0.096   3.707   5.465  0.2540  0.4520 -0.1316
 7390TIP3    H146365   0.076   3.798   5.488 -0.7513  0.0234  0.7962
 7390TIP3    H246366   0.014   3.660   5.483  0.4839 -0.4888 -1.4521
 7391TIP3   OH246367   5.017   2.720   7.315 -0.4186 -0.0070 -0.2420
 7391TIP3    H146368   4.944   2.750   7.261 -0.6805 -0.1728  0.0181
 7391TIP3    H246369   5.080   2.792   7.312  0.2400 -0.5899 -1.9736
 7392TIP3   OH246370   4.746   3.770   7.010 -0.3140 -0.5423 -0.2953
 7392TIP3    H146371   4.798   3.784   6.931 -1.5876 -1.5127 -1.3503
 7392TIP3    H246372   4.741   3.857   7.051  0.2871  0.0024 -1.3280
 7393TIP3   OH246373   2.596   1.740   6.419 -0.5278 -0.1059 -0.1119
 7393TIP3    H146374   2.636   1.715   6.335  0.1046  2.8082 -0.8089
 7393TIP3    H246375   2.657   1.708   6.485 -0.5513 -1.6260 -0.7820
 7394TIP3   OH246376   3.328   0.223   8.296 -0.0271  0.3916 -0.1649
 7394TIP3    H146377   3.250   0.250   8.248  0.2820  1.8265  0.0840
 7394TIP3    H246378   3.304   0.232   8.388  1.0620  2.9942 -0.0589
 7395TIP3   OH246379   3.614   1.482   7.879  0.1275  0.0059  0.2157
 7395TIP3    H146380   3.681   1.501   7.945  1.1024 -0.9500 -0.4532
 7395TIP3    H246381   3.633   1.543   7.808 -1.3005  1.4613  1.0063
 7396TIP3   OH246382   4.916   4.980   8.420  0.1783  0.2724  0.5886
 7396TIP3    H146383   4.985   5.044   8.399  1.1492 -1.6582 -2.8934
 7396TIP3    H246384   4.964   4.898   8.434 -1.2745 -0.6873  0.1244
 7397TIP3   OH246385   0.479   1.948   7.799 -0.0449 -0.3423  0.0218
 7397TIP3    H146386   0.431   1.991   7.729  1.2261  0.7509 -0.2217
 7397TIP3    H246387   0.562   1.996   7.804 -0.5393  0.4623  3.0546
 7398TIP3   OH246388   4.942   3.605   8.992 -0.0519 -0.0784  0.1944
 7398TIP3    H146389   5.000   3.584   9.064  1.5814 -1.2087 -1.3718
 7398TIP3    H246390   4.980   3.684   8.952 -0.1630 -0.2474 -0.2513
 7399TIP3   OH246391   3.035   6.607   7.419 -0.2997  0.5649  0.0308
 7399TIP3    H146392   2.942   6.588   7.409 -0.3665 -0.0142  1.4262
 7399TIP3    H246393   3.051   6.598   7.513  0.8134  2.3215  0.0634
 7400TIP3   OH246394   1.424   4.665   7.397 -0.2091  0.3405  0.1643
 7400TIP3    H146395   1.356   4.625   7.450 -0.7971 -2.1960 -2.2596
 7400TIP3    H246396   1.490   4.596   7.387  1.2803  1.7416  0.0050
 7401TIP3   OH246397   1.878   1.039   8.642  0.2727 -0.1506 -0.2117
 7401TIP3    H146398   1.972   1.024   8.634  0.1074 -1.0167 -0.6981
 7401TIP3    H246399   1.856   1.099   8.571  0.4435 -0.0195 -0.1524
 7402TIP3   OH246400   1.226   4.625   7.175  0.0339 -0.4879 -0.1344
 7402TIP3    H146401   1.254   4.534   7.174 -0.1538 -0.5474 -1.3850
 7402TIP3    H246402   1.300   4.673   7.212  0.6707 -0.9923 -0.7370
 7403TIP3   OH246403   2.540   2.713   7.430 -0.1378 -0.6297 -0.8063
 7403TIP3    H146404   2.542   2.647   7.360  1.1317 -0.4753 -0.9370
 7403TIP3    H246405   2.631   2.742   7.438 -0.3526 -0.2697  0.5620
 7404TIP3   OH246406   3.012   4.752   7.738  0.7271  0.2511 -0.1350
 7404TIP3    H146407   3.024   4.770   7.644  0.4504  0.0620 -0.2067
 7404TIP3    H246408   3.085   4.695   7.761  0.9365  0.5002 -0.1789
 7405TIP3   OH246409   2.504   3.217   6.823  0.4107 -0.1398  0.2560
 7405TIP3    H146410   2.466   3.147   6.770  0.6734 -0.0467 -0.0606
 7405TIP3    H246411   2.500   3.185   6.913 -0.9570  0.0977  0.3139
 7406TIP3   OH246412   3.408   0.368   9.038 -0.0715 -0.1687 -0.5880
 7406TIP3    H146413   3.375   0.437   9.096  0.3578  0.2530 -0.8401
 7406TIP3    H246414   3.476   0.325   9.089  2.2928  1.9837 -1.7074
 7407TIP3   OH246415   0.909   5.305   5.539 -0.7704  0.5633 -0.4415
 7407TIP3    H146416   0.820   5.314   5.505 -1.1826 -0.3182  0.3408
 7407TIP3    H246417   0.928   5.211   5.531 -0.7786  0.3593  1.4234
 7408TIP3   OH246418   0.689   0.977   6.859 -0.4543  0.0794  0.2918
 7408TIP3    H146419   0.744   0.933   6.794 -1.6074 -0.2630 -0.4743
 7408TIP3    H246420   0.625   1.026   6.808  0.3190  2.1009  1.1334
 7409TIP3   OH246421   2.970   2.155   7.494  0.4314  0.0904 -0.2190
 7409TIP3    H146422   2.968   2.242   7.453 -0.4485 -0.1650 -0.7504
 7409TIP3    H246423   2.941   2.170   7.584 -0.4923  0.2436 -0.5321
 7410TIP3   OH246424   6.097   4.058   8.557  0.6423  0.1436  0.0631
 7410TIP3    H146425   6.156   4.020   8.623  1.0979 -0.8066 -0.8574
 7410TIP3    H246426   6.112   4.005   8.479 -1.0594  0.2358 -0.3499
 7411TIP3   OH246427   2.035   0.523   6.436 -0.1171 -0.0161 -0.3298
 7411TIP3    H146428   1.988   0.487   6.361  1.8982 -0.1201 -1.6205
 7411TIP3    H246429   2.115   0.560   6.399  1.3291 -0.7279  1.8252
 7412TIP3   OH246430   0.877   2.576   7.701 -0.7261 -0.1377 -0.2684
 7412TIP3    H146431   0.954   2.619   7.740 -0.2809 -1.0330 -0.1331
 7412TIP3    H246432   0.820   2.648   7.676 -0.5773  0.5008  1.1387
 7413TIP3   OH246433   4.141   4.389   7.437 -0.1358  0.3733 -1.0395
 7413TIP3    H146434   4.066   4.376   7.379 -1.3204  0.6126  0.3788
 7413TIP3    H246435   4.127   4.328   7.509  2.5209 -1.6163 -2.0653
 7414TIP3   OH246436   1.432   6.315   7.797 -0.6983  0.2590 -0.1786
 7414TIP3    H146437   1.416   6.259   7.721  0.0351  1.2630 -1.1063
 7414TIP3    H246438   1.350   6.364   7.808 -0.2268  1.4207 -1.4937
 7415TIP3   OH246439   5.067   0.525   6.429  0.1680 -0.1056 -0.0392
 7415TIP3    H146440   5.044   0.467   6.502 -0.8860  0.3277 -0.0046
 7415TIP3    H246441   5.122   0.471   6.372 -0.4847 -1.0254  0.1735
 7416TIP3   OH246442   5.768   1.184   8.403 -0.3150 -0.2413 -0.3486
 7416TIP3    H146443   5.853   1.163   8.365  0.2875 -0.2462  0.9638
 7416TIP3    H246444   5.770   1.279   8.418  0.6508 -0.5953  2.3545
 7417TIP3   OH246445   3.778   3.349   7.374 -0.4058 -0.2592  0.4854
 7417TIP3    H146446   3.703   3.387   7.419 -0.4770 -0.3940  0.4810
 7417TIP3    H246447   3.829   3.307   7.443 -0.3107 -0.1274  0.4947
 7418TIP3   OH246448   6.304   4.854   8.839  0.4988  0.4679  0.6096
 7418TIP3    H146449   6.212   4.850   8.864  0.1933  0.7631 -0.4131
 7418TIP3    H246450   6.352   4.827   8.917 -0.5170 -1.0580  0.7416
 7419TIP3   OH246451   0.477   4.937   5.919  0.1401 -0.1368  0.1515
 7419TIP3    H146452   0.556   4.902   5.960 -1.0802 -0.8308  2.0115
 7419TIP3    H246453   0.457   4.875   5.848  2.0297  0.8470 -1.3484
 7420TIP3   OH246454   2.274   3.849   6.671 -0.2268  0.5274  0.0748
 7420TIP3    H146455   2.184   3.849   6.704 -0.0244 -0.3056  0.6629
 7420TIP3    H246456   2.265   3.823   6.579 -0.4955 -0.8507  0.4664
 7421TIP3   OH246457   3.986   1.931   8.224 -0.1716 -0.0295 -0.0806
 7421TIP3    H146458   4.072   1.892   8.239 -0.1461  0.5234  1.4317
 7421TIP3    H246459   3.981   2.003   8.288 -1.5704  0.2291 -0.4477
 7422TIP3   OH246460   2.653   2.873   6.386  0.1438  0.2416  0.6155
 7422TIP3    H146461   2.649   2.792   6.437  0.8565  0.1924  0.6076
 7422TIP3    H246462   2.719   2.926   6.431  0.3823  0.4192  0.0648
 7423TIP3   OH246463   3.282   0.930   6.939  0.0693 -0.7030  0.0125
 7423TIP3    H146464   3.249   1.003   6.992 -0.0263 -0.3000 -0.5846
 7423TIP3    H246465   3.219   0.924   6.867  0.5786 -0.7881 -0.4267
 7424TIP3   OH246466   3.203   4.002   7.402  0.2242 -0.1487  0.2293
 7424TIP3    H146467   3.169   3.917   7.374  0.3280 -0.4455  0.9688
 7424TIP3    H246468   3.211   3.994   7.497  2.6580 -0.1905  0.0767
 7425TIP3   OH246469   3.546   3.640   6.830 -0.2846 -0.4517  0.3448
 7425TIP3    H146470   3.588   3.568   6.782  0.8575  0.4217 -0.0215
 7425TIP3    H246471   3.560   3.619   6.922  1.2291 -0.0465  0.2258
 7426TIP3   OH246472   0.668   4.934   8.966 -0.4467 -0.3652 -0.4487
 7426TIP3    H146473   0.613   4.874   8.916 -0.2278 -0.4769 -0.5568
 7426TIP3    H246474   0.658   4.907   9.057 -1.0247 -0.0190 -0.4085
 7427TIP3   OH246475   4.237   6.089   8.159 -0.2087 -0.1672 -0.4145
 7427TIP3    H146476   4.238   6.184   8.151 -0.0836 -0.1416 -0.0904
 7427TIP3    H246477   4.235   6.072   8.253 -0.0227 -0.4859 -0.4646
 7428TIP3   OH246478   2.963   6.481   6.656  0.4094  0.5218  0.0831
 7428TIP3    H146479   2.904   6.554   6.633 -1.0624 -0.7353 -0.3331
 7428TIP3    H246480   2.932   6.409   6.602  1.4493 -0.5864  0.9313
 7429TIP3   OH246481   3.935   3.038   6.837 -0.0910 -0.4403 -0.4336
 7429TIP3    H146482   3.899   3.120   6.805  0.6958 -0.2065 -0.7404
 7429TIP3    H246483   3.957   2.989   6.758 -1.4746 -1.3888 -0.2833
 7430TIP3   OH246484   4.533   4.831   6.187 -0.5898  0.3455  0.1078
 7430TIP3    H146485   4.579   4.905   6.147  1.5320 -0.1113  1.5048
 7430TIP3    H246486   4.477   4.797   6.117 -0.6381  2.4600 -0.9453
 7431TIP3   OH246487   1.856   0.870   8.214 -0.2399 -0.1883 -0.2315
 7431TIP3    H146488   1.874   0.963   8.229  1.4171 -0.4030 -0.6969
 7431TIP3    H246489   1.914   0.825   8.275 -0.6607 -0.9303 -0.3736
 7432TIP3   OH246490   1.051   3.195   5.223  0.0290  0.4012 -0.3836
 7432TIP3    H146491   1.125   3.240   5.181 -0.1294  0.1603 -0.9220
 7432TIP3    H246492   1.053   3.226   5.313 -0.2014  1.6467 -0.7976
 7433TIP3   OH246493   5.606   0.217   8.492 -0.4208 -0.1692  0.0901
 7433TIP3    H146494   5.687   0.195   8.446  0.3298  1.0742  0.7461
 7433TIP3    H246495   5.596   0.149   8.559 -0.1478 -0.5624 -0.2708
 7434TIP3   OH246496   6.581   5.324   6.649  0.0721 -0.0069 -0.0779
 7434TIP3    H146497   6.570   5.401   6.704 -1.1028 -0.1774 -0.0388
 7434TIP3    H246498   6.569   5.356   6.560  3.7157  0.6135 -0.5012
 7435TIP3   OH246499   3.282   2.953   8.431  0.0818  0.0386  0.2134
 7435TIP3    H146500   3.374   2.935   8.450 -0.2457 -1.5303  0.4436
 7435TIP3    H246501   3.233   2.889   8.483 -1.0983  0.1627 -0.6889
 7436TIP3   OH246502   2.045   3.409   6.014  0.3830  0.2251 -0.6705
 7436TIP3    H146503   2.134   3.426   5.983  1.1039 -1.3531  0.3863
 7436TIP3    H246504   2.008   3.350   5.947  0.4051  0.2679 -0.7204
 7437TIP3   OH246505   4.962   0.186   7.541 -0.0509  0.6089  0.0938
 7437TIP3    H146506   4.952   0.177   7.636  0.6943 -0.6929  0.0703
 7437TIP3    H246507   4.947   0.279   7.524 -3.2320  0.3984  1.0905
 7438TIP3   OH246508   5.295   6.473   5.674 -0.3604  0.2836  0.0081
 7438TIP3    H146509   5.276   6.524   5.753 -0.2660  1.0771 -0.4797
 7438TIP3    H246510   5.214   6.476   5.623 -0.2760  0.1465 -0.1358
 7439TIP3   OH246511   3.244   3.986   5.611  0.2029  0.5142 -0.5790
 7439TIP3    H146512   3.179   3.982   5.541 -0.9027  1.7020  0.3239
 7439TIP3    H246513   3.271   3.895   5.624  0.6770  0.3115 -2.7178
 7440TIP3   OH246514   4.468   3.408   5.647 -0.4575  0.0373 -0.1163
 7440TIP3    H146515   4.503   3.378   5.731  0.5218  1.2294 -0.0729
 7440TIP3    H246516   4.537   3.462   5.610 -1.8205  1.5534 -0.5621
 7441TIP3   OH246517   1.968   5.914   6.580  0.1015 -0.5288  0.2780
 7441TIP3    H146518   1.873   5.904   6.590 -0.2277  1.5063 -0.4272
 7441TIP3    H246519   1.997   5.947   6.665  0.1020 -0.5768  0.2970
 7442TIP3   OH246520   2.718   5.385   5.510  0.1412 -0.0010  0.1790
 7442TIP3    H146521   2.799   5.433   5.489 -0.4758  0.8821 -0.2615
 7442TIP3    H246522   2.737   5.344   5.594  0.7712  0.8775  0.4917
 7443TIP3   OH246523   4.416   5.972   7.372 -0.2918  0.0345  0.4646
 7443TIP3    H146524   4.365   5.954   7.451  1.7344  0.7927  2.0625
 7443TIP3    H246525   4.456   5.888   7.350 -0.3818 -0.0506  0.6196
 7444TIP3   OH246526   2.226   1.742   5.568  0.4920  0.0517  0.2801
 7444TIP3    H146527   2.208   1.792   5.647  0.2048  1.1951 -0.4721
 7444TIP3    H246528   2.163   1.776   5.503  2.2803  0.8831 -1.1129
 7445TIP3   OH246529   5.735   0.814   6.848 -0.0157  0.1578 -1.2312
 7445TIP3    H146530   5.693   0.782   6.768  0.8617 -1.8086 -0.9623
 7445TIP3    H246531   5.828   0.794   6.835  0.5508  2.3499 -0.8555
 7446TIP3   OH246532   6.148   2.500   7.797  0.3066 -0.9626  0.1023
 7446TIP3    H146533   6.170   2.577   7.744 -2.3106  0.0201  0.2985
 7446TIP3    H246534   6.229   2.448   7.799  2.5748  2.2709  0.8675
 7447TIP3   OH246535   2.851   2.646   7.626 -0.1273  0.1330  0.2676
 7447TIP3    H146536   2.878   2.738   7.615  1.6246  0.0560  2.9617
 7447TIP3    H246537   2.923   2.595   7.590  0.0191 -0.1506  0.9490
 7448TIP3   OH246538   3.885   6.557   8.860  0.0679 -0.1378  0.2702
 7448TIP3    H146539   3.966   6.523   8.823  0.3774 -0.1935  0.9795
 7448TIP3    H246540   3.908   6.580   8.950 -0.3412  1.1954  0.0466
 7449TIP3   OH246541   3.740   3.746   7.202  0.1202  0.0280 -0.3256
 7449TIP3    H146542   3.797   3.766   7.128  0.8923 -2.1476 -0.3635
 7449TIP3    H246543   3.689   3.670   7.173 -0.2924 -0.2247  1.0201
 7450TIP3   OH246544   6.043   4.641   7.131  0.4583 -0.1505 -0.4906
 7450TIP3    H146545   6.101   4.714   7.109  0.8102 -0.0022  0.8464
 7450TIP3    H246546   5.964   4.683   7.165 -0.2225 -0.3689 -1.7145
 7451TIP3   OH246547   0.820   1.315   5.655 -0.1827 -0.1778  0.2529
 7451TIP3    H146548   0.851   1.227   5.635  1.0469  0.0493  1.0616
 7451TIP3    H246549   0.899   1.367   5.666 -0.8596  0.7156  1.1397
 7452TIP3   OH246550   1.521   4.576   8.599 -0.4156 -0.2943 -0.0503
 7452TIP3    H146551   1.452   4.591   8.535 -0.0319  0.8471 -0.2147
 7452TIP3    H246552   1.479   4.525   8.668 -0.7143 -1.9890 -1.4218
 7453TIP3   OH246553   4.062   5.743   6.550 -0.7081 -0.3524  0.2587
 7453TIP3    H146554   4.045   5.671   6.489 -1.4787 -1.1909  1.4193
 7453TIP3    H246555   4.158   5.752   6.550 -0.5762 -1.5735  0.3062
 7454TIP3   OH246556   0.495   5.135   6.632 -0.5184 -0.4390  0.6758
 7454TIP3    H146557   0.509   5.126   6.726  0.3068  2.1076  0.8673
 7454TIP3    H246558   0.583   5.142   6.594 -0.7270  3.4796  0.4235
 7455TIP3   OH246559   4.993   6.182   9.036  0.5925  0.3217  0.2559
 7455TIP3    H146560   5.034   6.158   8.953  0.2245 -1.7102  0.6130
 7455TIP3    H246561   5.026   6.117   9.098 -0.3012  0.9057  1.3734
 7456TIP3   OH246562   5.924   0.119   7.803 -0.4165 -0.4520  0.3312
 7456TIP3    H146563   5.996   0.077   7.757  0.7589  1.0967  0.6554
 7456TIP3    H246564   5.919   0.073   7.887  1.3105  0.4488  0.9718
 7457TIP3   OH246565   5.069   6.607   6.943  0.0731  0.3368  0.5762
 7457TIP3    H146566   4.988   6.559   6.926  0.2497 -0.2607  1.3492
 7457TIP3    H246567   5.047   6.667   7.015 -0.0748  1.2517 -0.2075
 7458TIP3   OH246568   4.059   2.728   8.792  0.2222  0.2739 -0.1342
 7458TIP3    H146569   4.120   2.654   8.789  2.0491  1.7012  0.4498
 7458TIP3    H246570   3.992   2.702   8.855  0.9485 -0.7942  0.2156
 7459TIP3   OH246571   5.946   2.167   5.774  0.7263 -0.0671  0.4568
 7459TIP3    H146572   6.035   2.137   5.753  0.9130  0.6026  0.2734
 7459TIP3    H246573   5.890   2.092   5.755  0.9992  0.1824 -1.4435
 7460TIP3   OH246574   0.019   0.396   7.766  0.3441 -0.4015 -0.0512
 7460TIP3    H146575  -0.068   0.369   7.739 -0.1996  0.9187  0.3112
 7460TIP3    H246576   0.067   0.407   7.684 -0.2179  0.1304 -0.3121
 7461TIP3   OH246577   0.074   0.483   7.456  0.1168 -0.0100 -0.3039
 7461TIP3    H146578   0.038   0.400   7.424 -0.1551  0.2838 -0.7807
 7461TIP3    H246579   0.160   0.488   7.413  0.4422 -0.3842  0.2934
 7462TIP3   OH246580   3.306   4.528   8.203  0.0380  0.3681 -0.5555
 7462TIP3    H146581   3.230   4.474   8.226 -0.1469  0.5800 -0.6612
 7462TIP3    H246582   3.269   4.614   8.183  0.5892  1.4702  2.6046
 7463TIP3   OH246583   6.311   5.711   7.434 -0.3171 -0.1411  0.2700
 7463TIP3    H146584   6.364   5.759   7.497 -0.2801 -0.9237  0.8379
 7463TIP3    H246585   6.270   5.780   7.381  0.0287  0.5071  0.8276
 7464TIP3   OH246586   3.286   4.996   5.883  0.0263 -0.1985 -0.2294
 7464TIP3    H146587   3.318   4.919   5.932 -0.5451  0.5684  1.4350
 7464TIP3    H246588   3.194   5.003   5.909  0.2124  1.3386  0.0673
 7465TIP3   OH246589   1.528   2.844   7.208  0.6582  0.1393  0.0604
 7465TIP3    H146590   1.549   2.762   7.164  0.7482 -1.2833  2.5396
 7465TIP3    H246591   1.601   2.858   7.268  0.4079  1.7977  0.0088
 7466TIP3   OH246592   4.660   2.214   7.828  0.2403  0.2406 -0.5871
 7466TIP3    H146593   4.719   2.164   7.884  1.4859  1.0361 -1.1567
 7466TIP3    H246594   4.574   2.204   7.870  0.9798  0.1471  0.9893
 7467TIP3   OH246595   4.424   6.656   6.383 -0.0570 -0.5387  0.2203
 7467TIP3    H146596   4.371   6.678   6.306  0.6323  2.0209  0.3609
 7467TIP3    H246597   4.470   6.576   6.359 -3.4446 -2.5602 -0.1329
 7468TIP3   OH246598   3.510   2.985   9.026  0.2087 -0.3434  0.1090
 7468TIP3    H146599   3.460   2.990   8.945 -0.0320 -0.2680  0.2579
 7468TIP3    H246600   3.571   2.913   9.013 -0.5117 -0.9806  0.2364
 7469TIP3   OH246601   4.102   2.867   6.639  0.6431  0.2399 -0.4644
 7469TIP3    H146602   4.191   2.892   6.660  1.4971 -1.2998 -1.9971
 7469TIP3    H246603   4.111   2.790   6.583 -1.6470  0.0967 -0.7429
 7470TIP3   OH246604   3.250   4.037   8.602  0.2679  0.2451 -0.4469
 7470TIP3    H146605   3.329   3.996   8.637  0.2033  1.5901  1.4679
 7470TIP3    H246606   3.262   4.130   8.620 -2.0314  0.4122  0.5788
 7471TIP3   OH246607   5.396   1.375   6.248  0.3969 -0.2203 -0.2719
 7471TIP3    H146608   5.380   1.283   6.269  1.5125 -0.8331 -1.9129
 7471TIP3    H246609   5.486   1.391   6.279  0.2404  0.3014 -0.0780
 7472TIP3   OH246610   2.560   3.997   6.932  0.3477  0.6646 -0.1819
 7472TIP3    H146611   2.542   3.906   6.909  1.1074  0.4055  0.2295
 7472TIP3    H246612   2.510   4.013   7.011 -2.2863  1.5611 -1.8894
 7473TIP3   OH246613   5.847   3.860   6.885 -0.2349  0.2737  0.5206
 7473TIP3    H146614   5.844   3.765   6.873  0.5530  0.3626 -0.4884
 7473TIP3    H246615   5.899   3.872   6.965  2.4271 -0.0968 -1.0288
 7474TIP3   OH246616   5.916   4.314   6.706  0.2180  0.4510  0.0204
 7474TIP3    H146617   5.821   4.329   6.700  0.1354 -0.3857 -1.2519
 7474TIP3    H246618   5.928   4.224   6.674  1.3794  0.3227  0.7880
 7475TIP3   OH246619   5.881   1.055   7.627 -0.0012  0.3654  0.3715
 7475TIP3    H146620   5.813   0.991   7.645  0.9137 -0.8470 -0.3767
 7475TIP3    H246621   5.958   1.023   7.673  0.3755  1.1112  0.2790
 7476TIP3   OH246622   1.193   5.867   7.003  0.0930 -0.1770 -0.4255
 7476TIP3    H146623   1.226   5.825   7.082  0.2631 -1.9927 -1.3956
 7476TIP3    H246624   1.108   5.902   7.028  1.1461  1.4333  1.1606
 7477TIP3   OH246625   3.879   1.665   6.332  0.3083 -0.2423  0.4078
 7477TIP3    H146626   3.891   1.574   6.305 -0.3100 -0.1523 -0.1769
 7477TIP3    H246627   3.964   1.706   6.315  0.5994 -0.7103  0.7015
 7478TIP3   OH246628   2.464   2.879   9.069  0.0227  0.0947 -0.4516
 7478TIP3    H146629   2.439   2.788   9.082 -2.2537  0.7126 -0.0600
 7478TIP3    H246630   2.419   2.905   8.989  0.5902  0.9004 -0.5226
 7479TIP3   OH246631   1.479   2.675  13.842 -0.2110 -0.1407  0.1954
 7479TIP3    H146632   1.506   2.762  13.812  1.1393 -0.6920 -0.2722
 7479TIP3    H246633   1.403   2.692  13.898  0.8606  1.4937  1.2797
 7480TIP3   OH246634   4.325   6.287   7.860  0.4127 -0.2675  0.0462
 7480TIP3    H146635   4.339   6.373   7.900  0.7406  0.0189 -0.6686
 7480TIP3    H246636   4.261   6.304   7.791  1.4236 -0.3411 -0.9386
 7481TIP3   OH246637   3.495   1.844   9.286  0.2312  0.1842  0.1101
 7481TIP3    H146638   3.410   1.858   9.246 -0.3457  1.1926  1.6122
 7481TIP3    H246639   3.555   1.897   9.233 -0.2854  0.4815 -0.1861
 7482TIP3   OH246640   3.181   0.624   7.508  0.0409  0.4110  1.0164
 7482TIP3    H146641   3.224   0.657   7.429  0.6723  0.2732  1.2944
 7482TIP3    H246642   3.177   0.529   7.495  0.1308  0.3901  1.1426
 7483TIP3   OH246643   3.942   2.022   7.267 -0.9256 -0.1165 -1.0512
 7483TIP3    H146644   3.960   2.093   7.205  0.1163 -0.8057 -1.5546
 7483TIP3    H246645   3.994   1.948   7.236 -1.6806 -0.9945 -0.3021
 7484TIP3   OH246646   2.338   3.622   9.219  0.0769 -0.1118 -0.3644
 7484TIP3    H146647   2.272   3.691   9.227  0.0584 -0.3851  3.1727
 7484TIP3    H246648   2.321   3.583   9.133 -2.3027  1.8365 -0.8924
 7485TIP3   OH246649   5.496   3.290   7.391 -0.3144 -0.0203  0.0332
 7485TIP3    H146650   5.582   3.250   7.402 -0.2562 -0.0297 -0.4115
 7485TIP3    H246651   5.512   3.383   7.407 -0.2790 -0.0606  0.2349
 7486TIP3   OH246652   0.189   3.737   5.996 -0.4226 -0.0868 -0.3001
 7486TIP3    H146653   0.126   3.714   6.064  0.2148 -1.0488 -0.0137
 7486TIP3    H246654   0.152   3.700   5.916 -1.1161  0.9478 -0.4777
 7487TIP3   OH246655   6.193   1.738   6.978  0.0772  0.2520 -0.5557
 7487TIP3    H146656   6.230   1.821   6.947  2.4058  0.0377  1.2825
 7487TIP3    H246657   6.193   1.682   6.901  1.1010  1.1362 -1.2474
 7488TIP3   OH246658   3.237   1.926   5.677  0.4441  0.1976 -0.4562
 7488TIP3    H146659   3.226   1.835   5.705 -0.6160  0.9010  1.6450
 7488TIP3    H246660   3.306   1.960   5.734 -1.7498  1.6720  1.5069
 7489TIP3   OH246661   5.126   1.906   7.045  0.0718  0.4661 -0.7110
 7489TIP3    H146662   5.037   1.935   7.068 -0.4553  0.8621 -3.0316
 7489TIP3    H246663   5.153   1.852   7.119 -1.8583  0.8428  0.3360
 7490TIP3   OH246664   2.083   6.247   5.873 -0.0096 -0.0914  0.0589
 7490TIP3    H146665   2.067   6.257   5.779  0.5054 -1.0154 -0.1421
 7490TIP3    H246666   2.057   6.331   5.911  1.1510  0.8358 -1.0978
 7491TIP3   OH246667   3.105   4.704   6.824 -0.0644 -0.2250 -0.3257
 7491TIP3    H146668   3.097   4.618   6.867  0.2657  0.3868  1.0339
 7491TIP3    H246669   3.015   4.730   6.808 -0.1605 -0.9430 -1.0023
 7492TIP3   OH246670   0.139   4.627   5.985  0.1423 -0.2390 -0.3190
 7492TIP3    H146671   0.178   4.596   6.066 -1.0850 -0.1387  0.3292
 7492TIP3    H246672   0.098   4.710   6.008 -2.0408 -1.1971 -0.4896
 7493TIP3   OH246673   2.824   0.726   7.764 -0.4881 -0.0716 -0.0598
 7493TIP3    H146674   2.868   0.641   7.763 -0.6810 -0.2018  1.3659
 7493TIP3    H246675   2.889   0.786   7.726  0.2270 -0.5799  0.3310
 7494TIP3   OH246676   4.770   1.171   8.052  0.2547  0.2881 -0.1729
 7494TIP3    H146677   4.754   1.257   8.011 -1.6199 -0.0379 -0.2165
 7494TIP3    H246678   4.746   1.108   7.984  2.7080 -0.3507 -0.5521
 7495TIP3   OH246679   1.180   0.716   7.452  0.0966 -0.7438 -0.1072
 7495TIP3    H146680   1.172   0.799   7.499  0.0800  0.3184 -1.8718
 7495TIP3    H246681   1.270   0.688   7.469  0.3196 -0.0097 -0.0176
 7496TIP3   OH246682   0.619   3.443   5.839  0.0249  0.4497 -0.2100
 7496TIP3    H146683   0.580   3.412   5.920  2.5109 -2.6425  0.0026
 7496TIP3    H246684   0.642   3.534   5.856  0.2163 -0.0353  2.4363
 7497TIP3   OH246685   1.221   3.695   8.543  0.4745  0.6014 -0.4400
 7497TIP3    H146686   1.204   3.649   8.461  0.5629 -0.1387 -0.0509
 7497TIP3    H246687   1.135   3.721   8.575 -0.1122 -3.0354  1.4710
 7498TIP3   OH246688   4.750   3.518   5.765  0.6930  0.3065 -0.3513
 7498TIP3    H146689   4.744   3.423   5.753 -0.0965  0.1645  1.0148
 7498TIP3    H246690   4.808   3.547   5.694 -0.1879 -0.9954 -1.6655
 7499TIP3   OH246691   2.607   5.717   7.497  0.2597 -0.0768 -0.2509
 7499TIP3    H146692   2.594   5.810   7.516  0.3012  0.0028 -0.6021
 7499TIP3    H246693   2.658   5.684   7.571 -0.6235 -0.0506  0.3884
 7500TIP3   OH246694   0.020   5.183   7.137  0.4085 -0.2853  0.0092
 7500TIP3    H146695   0.005   5.135   7.219  0.1427  1.2429  0.8994
 7500TIP3    H246696   0.073   5.259   7.163  0.1438  0.3389 -1.1948
 7501TIP3   OH246697   4.138   4.210   7.662 -0.0329  0.5399  0.4534
 7501TIP3    H146698   4.151   4.119   7.637 -2.7642  1.1234 -4.1047
 7501TIP3    H246699   4.058   4.208   7.716  0.3017  0.2386  0.9539
 7502TIP3   OH246700   6.445   1.183   6.024  0.6425  0.0433  0.1125
 7502TIP3    H146701   6.361   1.178   5.978  0.7237 -0.1863 -0.0154
 7502TIP3    H246702   6.490   1.258   5.983  1.6955 -1.5687 -1.8948
 7503TIP3   OH246703   4.769   1.639   7.631  0.8733  0.3507  0.2974
 7503TIP3    H146704   4.733   1.641   7.542 -1.6151 -1.4097  1.1641
 7503TIP3    H246705   4.711   1.696   7.682 -0.7121 -2.3040  1.6709
 7504TIP3   OH246706   6.062   3.560   7.182 -0.0662 -0.1793 -0.5142
 7504TIP3    H146707   5.985   3.503   7.172 -1.0980  0.7467  1.6405
 7504TIP3    H246708   6.030   3.647   7.157  0.2393  0.2325  0.5082
 7505TIP3   OH246709   2.947   3.499   8.984 -0.0873 -0.1294  0.5303
 7505TIP3    H146710   2.926   3.408   8.965  0.1093  0.0546 -0.6096
 7505TIP3    H246711   3.026   3.517   8.933 -1.0507  1.1579 -0.5839
 7506TIP3   OH246712   4.653   0.175   7.594 -0.1370 -0.0246  0.7430
 7506TIP3    H146713   4.568   0.184   7.552  0.0640  2.7175  0.7523
 7506TIP3    H246714   4.701   0.112   7.540 -1.4719 -0.1112 -0.3807
 7507TIP3   OH246715   4.179   6.008   7.883 -0.6379 -0.2809  0.0938
 7507TIP3    H146716   4.166   5.913   7.892  3.2641 -1.3144 -2.5145
 7507TIP3    H246717   4.197   6.038   7.972 -3.4577 -1.5657  1.2262
 7508TIP3   OH246718   4.807   0.757   7.729  0.1056 -0.1966 -0.1914
 7508TIP3    H146719   4.834   0.836   7.777 -1.6630  0.7331 -0.6256
 7508TIP3    H246720   4.787   0.693   7.798  0.4641  0.1211  0.2130
 7509TIP3   OH246721   1.547   4.723   8.227 -0.1220  0.4450 -0.1548
 7509TIP3    H146722   1.587   4.643   8.264 -0.6884  0.2634  0.0708
 7509TIP3    H246723   1.612   4.754   8.164  0.4288  0.2082  0.2749
 7510TIP3   OH246724   1.592   4.085   5.579  0.6482  0.0425 -0.4395
 7510TIP3    H146725   1.571   4.175   5.552 -0.8392 -0.1850 -0.1427
 7510TIP3    H246726   1.687   4.081   5.578  0.7525  1.7751  0.0333
 7511TIP3   OH246727   0.820   3.924   6.368  0.1221 -0.1754 -0.0490
 7511TIP3    H146728   0.854   3.964   6.448  2.0361 -1.8700  0.0612
 7511TIP3    H246729   0.841   3.831   6.376 -1.4315 -0.7319 -1.6562
 7512TIP3   OH246730   2.192   1.056   6.209  0.5644 -0.3669 -0.0489
 7512TIP3    H146731   2.148   1.140   6.222  1.6113  0.0680  0.8520
 7512TIP3    H246732   2.224   1.060   6.119  1.7470  0.7707  0.3948
 7513TIP3   OH246733   2.903   3.970   6.234 -0.2322 -0.3536 -0.4538
 7513TIP3    H146734   2.843   3.983   6.306 -0.6005 -0.3248 -0.7628
 7513TIP3    H246735   2.976   4.030   6.252  0.4584 -1.5243  0.7341
 7514TIP3   OH246736   5.327   6.172   7.903 -0.2890  0.3246  0.1067
 7514TIP3    H146737   5.401   6.111   7.895 -0.9224 -0.4721  0.1620
 7514TIP3    H246738   5.287   6.172   7.816  0.1167  1.2099 -0.0866
 7515TIP3   OH246739   2.943   3.611   6.654  0.0208  0.0379 -0.2953
 7515TIP3    H146740   2.854   3.644   6.637 -0.0227 -0.7599 -1.8513
 7515TIP3    H246741   2.930   3.528   6.699 -0.0354 -0.0602 -0.4887
 7516TIP3   OH246742   3.254   5.305   6.069 -0.2834 -0.1143  0.5111
 7516TIP3    H146743   3.321   5.264   6.015 -0.6211  2.0200 -1.7172
 7516TIP3    H246744   3.178   5.247   6.061 -0.1289 -0.1636 -0.8429
 7517TIP3   OH246745   0.795   5.066   6.631 -0.7314  0.5575 -0.0822
 7517TIP3    H146746   0.855   5.093   6.562  0.2932 -1.7171 -0.1641
 7517TIP3    H246747   0.848   5.064   6.710 -0.4117 -2.1811 -0.2799
 7518TIP3   OH246748   5.936   2.620   6.809 -0.3061  0.2049  0.4934
 7518TIP3    H146749   5.871   2.571   6.861 -0.5064 -0.1714 -0.0951
 7518TIP3    H246750   6.009   2.559   6.799 -0.6048 -0.0241 -0.3426
 7519TIP3   OH246751   4.757   3.040   8.024 -0.3652  0.0411 -0.3014
 7519TIP3    H146752   4.816   3.077   7.959 -1.2914 -0.6231 -1.5683
 7519TIP3    H246753   4.704   3.113   8.054 -0.7440  0.1486 -1.2045
 7520TIP3   OH246754   1.749   6.541   6.703 -0.1358 -0.5562  0.5565
 7520TIP3    H146755   1.665   6.517   6.741 -0.1667 -1.5154 -0.0647
 7520TIP3    H246756   1.802   6.462   6.711 -0.1534 -0.8107 -1.3579
 7521TIP3   OH246757   3.881   2.633   7.565  0.2560 -0.0729 -0.4142
 7521TIP3    H146758   3.939   2.656   7.637  0.7775 -0.0748 -0.8269
 7521TIP3    H246759   3.932   2.572   7.511  0.0129  0.2131 -0.9833
 7522TIP3   OH246760   6.092   2.820   7.733 -0.6315 -0.1990 -0.1836
 7522TIP3    H146761   5.997   2.824   7.725 -0.7114 -1.8449 -0.4068
 7522TIP3    H246762   6.120   2.764   7.661  0.3698 -0.7512  0.6012
 7523TIP3   OH246763   2.083   4.473   6.229 -0.5570 -0.2155  0.3932
 7523TIP3    H146764   2.089   4.389   6.274 -0.2549  0.1362  1.0158
 7523TIP3    H246765   2.056   4.535   6.297  0.4798  0.4273  0.2258
 7524TIP3   OH246766   5.713   1.938   7.271 -0.4686  0.7450 -0.6358
 7524TIP3    H146767   5.646   1.870   7.269 -0.1000  0.2681  1.2022
 7524TIP3    H246768   5.679   2.004   7.332 -0.3979  1.7558 -1.6621
 7525TIP3   OH246769   3.736   6.417   7.158 -0.1476  0.1340 -0.3517
 7525TIP3    H146770   3.770   6.430   7.246  0.1354 -1.6080 -0.1599
 7525TIP3    H246771   3.732   6.505   7.120  2.0279  0.6848  0.5531
 7526TIP3   OH246772   1.439   5.868   9.138  0.1189 -0.8352  0.1974
 7526TIP3    H146773   1.379   5.865   9.213 -0.0044 -0.5154  0.1116
 7526TIP3    H246774   1.458   5.961   9.126 -1.4297 -0.6699 -1.4143
 7527TIP3   OH246775   6.624   3.383   6.195  0.1369  0.5165  0.0338
 7527TIP3    H146776   6.614   3.292   6.167 -0.9293  0.9034 -0.9247
 7527TIP3    H246777   6.550   3.398   6.254 -0.0453  0.9273 -0.2930
 7528TIP3   OH246778   2.866   0.222   5.900  0.2496  0.3574  0.3226
 7528TIP3    H146779   2.784   0.270   5.887 -0.1219  0.0331  1.3489
 7528TIP3    H246780   2.934   0.287   5.884 -0.1980  0.5759 -0.7583
 7529TIP3   OH246781   1.142   0.894   7.853  0.3860 -0.2620  0.2203
 7529TIP3    H146782   1.173   0.953   7.783 -0.7774 -2.1552 -2.0250
 7529TIP3    H246783   1.195   0.815   7.842 -0.6667 -1.0395  0.6637
 7530TIP3   OH246784   3.897   3.485   6.006  0.3658  0.2703  0.2116
 7530TIP3    H146785   3.813   3.444   5.984 -1.0376  2.0330  1.9274
 7530TIP3    H246786   3.891   3.573   5.968  1.0546  0.7194  1.1129
 7531TIP3   OH246787   1.276   5.335   8.787  0.8361  0.6075  0.2222
 7531TIP3    H146788   1.217   5.327   8.861  0.3927 -1.1555 -0.2667
 7531TIP3    H246789   1.247   5.414   8.741 -0.5650  0.2852  0.4984
 7532TIP3   OH246790   1.947   5.939   6.323  0.2270 -0.5646  0.1991
 7532TIP3    H146791   1.985   6.020   6.290 -0.5982 -0.0099  0.5628
 7532TIP3    H246792   1.960   5.943   6.418 -1.1413 -0.1015  0.4041
 7533TIP3   OH246793   1.913   0.846   5.866  0.3460 -0.1778  0.0486
 7533TIP3    H146794   1.910   0.939   5.843 -0.2311 -0.6002 -1.7790
 7533TIP3    H246795   1.963   0.805   5.794 -2.1597 -1.7021 -0.9530
 7534TIP3   OH246796   2.198   1.678   7.812 -0.2012 -0.3040 -0.2625
 7534TIP3    H146797   2.118   1.638   7.845  0.4086 -1.8415 -0.5652
 7534TIP3    H246798   2.240   1.609   7.761  1.7198  0.1953  0.5630
 7535TIP3   OH246799   0.637   2.179   7.197  0.3762  0.8014 -0.1658
 7535TIP3    H146800   0.657   2.118   7.269 -2.2997  0.6567  0.5431
 7535TIP3    H246801   0.658   2.265   7.234 -0.2021  0.6637  0.5110
 7536TIP3   OH246802   5.358   5.593   8.834  0.1140 -0.3462 -0.2763
 7536TIP3    H146803   5.292   5.578   8.767  0.1717  0.3235 -0.4971
 7536TIP3    H246804   5.399   5.508   8.848  0.8222 -0.3019 -1.8639
 7537TIP3   OH246805   5.750   1.544   7.258 -0.0969 -0.1002  0.2718
 7537TIP3    H146806   5.839   1.556   7.225 -0.5151 -0.9711 -1.2514
 7537TIP3    H246807   5.761   1.525   7.351  1.2724  0.1972  0.1888
 7538TIP3   OH246808   2.518   0.397   6.445 -0.0627  0.0863  0.0910
 7538TIP3    H146809   2.458   0.436   6.509  0.2603  2.7925 -1.0762
 7538TIP3    H246810   2.501   0.447   6.364  2.7076 -0.0646 -0.6710
 7539TIP3   OH246811   4.693   4.345   9.200  0.1749  0.2633  0.1135
 7539TIP3    H146812   4.787   4.343   9.220 -0.0996  0.6253  1.5643
 7539TIP3    H246813   4.688   4.365   9.107  1.5552 -0.7758 -0.2205
 7540TIP3   OH246814   6.695   6.200   6.842 -0.6396 -0.1096  0.0566
 7540TIP3    H146815   6.754   6.195   6.767 -1.0214 -0.4594 -0.2277
 7540TIP3    H246816   6.642   6.120   6.836 -0.3302 -0.3984  0.9887
 7541TIP3   OH246817   1.958   2.140   6.641 -0.0049 -0.4576  0.5389
 7541TIP3    H146818   2.025   2.136   6.573 -0.1225 -1.2784  0.4608
 7541TIP3    H246819   1.952   2.050   6.674  0.1008 -0.0672  1.6800
 7542TIP3   OH246820   2.253   5.563   5.886  0.2522  0.1947  0.7137
 7542TIP3    H146821   2.208   5.639   5.921 -3.2170  0.7367 -3.9496
 7542TIP3    H246822   2.319   5.599   5.827  0.8625 -0.5016  0.9534
 7543TIP3   OH246823   6.111   4.337   9.227 -0.1514  0.0904  0.1970
 7543TIP3    H146824   6.129   4.431   9.217 -2.0312  0.5478  0.7048
 7543TIP3    H246825   6.124   4.320   9.321  1.9408 -0.6181 -0.1560
 7544TIP3   OH246826   1.962   3.918   8.438  0.8140 -0.2888 -0.6842
 7544TIP3    H146827   1.994   3.970   8.512 -1.1147 -1.4080  1.0509
 7544TIP3    H246828   1.920   3.843   8.479  0.9847 -1.7383 -3.0212
 7545TIP3   OH246829   5.036   3.176   6.481  0.0706 -0.1449  0.4041
 7545TIP3    H146830   4.973   3.137   6.541 -1.6510  0.5889 -0.8254
 7545TIP3    H246831   5.037   3.269   6.504 -1.3808  0.3427 -1.2402
 7546TIP3   OH246832   6.585   6.198   6.539 -0.3790 -0.5760  0.0816
 7546TIP3    H146833   6.583   6.141   6.616  1.4935  0.1282  0.6957
 7546TIP3    H246834   6.493   6.211   6.517 -0.9021 -2.7572  0.6992
 7547TIP3   OH246835   3.460   0.844   8.672  0.4634  0.1873  0.4913
 7547TIP3    H146836   3.511   0.895   8.735  1.1221 -0.0498  0.1594
 7547TIP3    H246837   3.519   0.774   8.645 -0.6336 -1.1092  1.3784
 7548TIP3   OH246838   3.389   0.306   7.597  0.4055 -0.3572  0.3577
 7548TIP3    H146839   3.348   0.245   7.535  0.3248 -1.2215  1.2485
 7548TIP3    H246840   3.320   0.326   7.660  0.5291  0.4199  0.2591
 7549TIP3   OH246841   2.710   3.372   7.442 -0.7240 -0.2999 -0.2098
 7549TIP3    H146842   2.678   3.292   7.401  0.6477 -1.1663  0.3454
 7549TIP3    H246843   2.704   3.355   7.536 -0.1680  0.1423 -0.0869
 7550TIP3   OH246844   0.307   1.551   6.335 -0.1600 -0.1557  0.2489
 7550TIP3    H146845   0.313   1.592   6.421 -1.4935  0.3392  0.1299
 7550TIP3    H246846   0.379   1.589   6.285 -1.5088  2.3822  0.0432
 7551TIP3   OH246847   1.055   3.690   5.676 -0.0947  0.1267 -0.6439
 7551TIP3    H146848   0.981   3.750   5.686  0.0007  0.0033  0.9079
 7551TIP3    H246849   1.016   3.603   5.682  0.0077  0.0391 -1.1681
 7552TIP3   OH246850   0.824   2.625   6.772  0.3264 -0.4769  0.2898
 7552TIP3    H146851   0.886   2.692   6.799 -0.0457  0.7020 -1.6138
 7552TIP3    H246852   0.872   2.571   6.709 -0.3953  0.1359 -0.8128
 7553TIP3   OH246853   1.098   6.649   7.128  0.1070  0.0476  0.3478
 7553TIP3    H146854   1.075   6.655   7.035  0.8663 -1.6314  0.0226
 7553TIP3    H246855   1.079   6.736   7.162 -0.9353  0.4773 -1.2037
 7554TIP3   OH246856   2.119   2.095   6.458  0.1268 -0.0107  0.5737
 7554TIP3    H146857   2.155   2.145   6.385  2.0408 -1.2418  0.5961
 7554TIP3    H246858   2.110   2.006   6.425  0.5891 -0.4912  1.6823
 7555TIP3   OH246859   2.733   0.742   8.317  0.1443 -0.5584 -0.1066
 7555TIP3    H146860   2.756   0.831   8.292 -1.9929  1.1473  3.2846
 7555TIP3    H246861   2.796   0.718   8.385 -1.5998  0.0613  1.8296
 7556TIP3   OH246862   4.514   1.572   7.072 -0.3460  0.0545 -0.0962
 7556TIP3    H146863   4.511   1.535   7.161 -2.0833  2.8237  1.1418
 7556TIP3    H246864   4.594   1.537   7.035 -1.3968 -4.2462  1.0893
 7557TIP3   OH246865   1.941   3.383   8.514  0.2118  0.4372  0.3506
 7557TIP3    H146866   1.909   3.412   8.600  0.1442  1.8177 -0.1239
 7557TIP3    H246867   1.939   3.287   8.519  0.9662  0.4688  2.1734
 7558TIP3   OH246868   1.941   3.543   8.072  0.7170  0.2711 -0.4011
 7558TIP3    H146869   1.926   3.595   7.993  0.5198  0.7261 -0.0666
 7558TIP3    H246870   1.955   3.607   8.141  1.3631 -0.1343 -0.1544
 7559TIP3   OH246871   6.701   1.370   6.668  0.3449 -0.1055 -0.1805
 7559TIP3    H146872   6.795   1.385   6.683  0.0958  0.9922  0.3867
 7559TIP3    H246873   6.679   1.431   6.598 -0.3911  1.2083  1.1567
 7560TIP3   OH246874   0.195   2.952   7.923 -0.4167  0.8090  0.3549
 7560TIP3    H146875   0.256   3.020   7.894 -0.8963  0.3593 -1.8799
 7560TIP3    H246876   0.251   2.879   7.951  0.0726  1.1877  0.3695
 7561TIP3   OH246877   2.193   6.556   6.660 -0.0904  0.2379  0.1139
 7561TIP3    H146878   2.105   6.593   6.658 -0.1165  0.1837 -2.0095
 7561TIP3    H246879   2.228   6.572   6.572  2.8753  2.2085  1.4782
 7562TIP3   OH246880   1.750   0.852   6.596  0.0150  0.4135 -0.6877
 7562TIP3    H146881   1.816   0.825   6.532 -0.0656 -0.6807 -0.3287
 7562TIP3    H246882   1.708   0.929   6.556  1.2844  0.9367 -1.0509
 7563TIP3   OH246883   0.245   4.377   6.197 -0.2387  0.3517 -0.5820
 7563TIP3    H146884   0.296   4.351   6.121  0.6705 -0.0690  0.1491
 7563TIP3    H246885   0.220   4.294   6.239 -1.0241  0.5676 -0.6051
 7564TIP3   OH246886   4.855   0.399   8.318 -0.5019  0.0543 -0.3076
 7564TIP3    H146887   4.805   0.338   8.371  0.2724 -0.5279 -0.2279
 7564TIP3    H246888   4.801   0.478   8.314 -0.3918  0.3034  1.7723
 7565TIP3   OH246889   4.712   3.464   9.626 -0.5942 -0.3814 -0.5791
 7565TIP3    H146890   4.712   3.397   9.558 -0.6159 -0.6767 -0.2906
 7565TIP3    H246891   4.624   3.500   9.624 -0.1672  0.6333 -1.7021
 7566TIP3   OH246892   6.317   1.491   5.813 -0.1873  0.7011  0.5365
 7566TIP3    H146893   6.304   1.405   5.771 -1.4394  0.7617  0.7594
 7566TIP3    H246894   6.389   1.477   5.874  3.0486  1.0660 -2.8533
 7567TIP3   OH246895   1.444   3.006   7.517 -0.1967 -0.2310  0.4600
 7567TIP3    H146896   1.519   3.042   7.469  0.2820 -2.8471 -0.9864
 7567TIP3    H246897   1.387   3.081   7.534  1.0784  1.2949 -1.5936
 7568TIP3   OH246898   4.325   4.562   5.561  0.3340 -0.1566 -0.1549
 7568TIP3    H146899   4.392   4.605   5.614 -0.5411  0.3374  0.5700
 7568TIP3    H246900   4.295   4.630   5.501 -0.5788  0.0630  0.5403
 7569TIP3   OH246901   6.472   4.060   8.930 -0.6775 -1.0931 -0.2693
 7569TIP3    H146902   6.557   4.096   8.956 -1.1253 -0.1418 -0.0615
 7569TIP3    H246903   6.412   4.087   8.999 -0.8305 -3.3365  0.5494
 7570TIP3   OH246904   4.961   6.569   7.386 -0.0431  0.0073  0.3550
 7570TIP3    H146905   4.929   6.530   7.305 -0.0154 -3.2036  1.7354
 7570TIP3    H246906   4.883   6.602   7.430 -0.4364 -0.6841  0.1924
 7571TIP3   OH246907   1.296   6.724   7.751 -0.0986 -0.3121 -0.1889
 7571TIP3    H146908   1.377   6.756   7.712  1.4460 -2.9444  0.6364
 7571TIP3    H246909   1.287   6.773   7.832  1.0225 -0.4410  0.0273
 7572TIP3   OH246910   2.061   2.379   5.702  0.0433 -0.0955 -0.4344
 7572TIP3    H146911   2.124   2.311   5.679  0.9877  0.9760 -1.1800
 7572TIP3    H246912   2.097   2.421   5.780 -0.1805 -0.0140 -0.3720
 7573TIP3   OH246913   1.988   5.051   6.480  0.0667 -0.0189 -0.1104
 7573TIP3    H146914   2.063   5.108   6.499 -0.2938  0.4234 -0.0093
 7573TIP3    H246915   1.996   5.031   6.387 -0.3619  1.0110 -0.3721
 7574TIP3   OH246916   4.053   0.765   5.717  0.4351  0.2532  0.1737
 7574TIP3    H146917   4.098   0.745   5.799 -0.4443 -1.8211  0.2207
 7574TIP3    H246918   3.980   0.822   5.743 -0.2938 -1.0087  1.0052
 7575TIP3   OH246919   4.478   4.727   9.310  0.3329 -0.2856 -0.1464
 7575TIP3    H146920   4.486   4.789   9.238  0.4176 -0.8484 -0.6265
 7575TIP3    H246921   4.385   4.725   9.331  0.2885 -0.2491 -0.3442
 7576TIP3   OH246922   3.580   4.173   5.905 -0.3648  0.2488 -0.0455
 7576TIP3    H146923   3.578   4.089   5.951 -0.2000  1.2119  1.7995
 7576TIP3    H246924   3.510   4.224   5.945  1.7432  2.2236  1.3848
 7577TIP3   OH246925   1.811   4.433   7.651 -0.6308  0.7469 -0.6128
 7577TIP3    H146926   1.857   4.416   7.569  1.3970  0.2531  0.5480
 7577TIP3    H246927   1.754   4.507   7.632 -1.0429 -0.0474 -2.7325
 7578TIP3   OH246928   5.887   3.958   5.975 -0.5702 -0.4300 -0.6194
 7578TIP3    H146929   5.964   3.984   5.924 -1.0169 -1.1479 -1.7076
 7578TIP3    H246930   5.821   4.023   5.953 -0.2516  0.2588  0.4127
 7579TIP3   OH246931   6.617   3.038   8.609  0.2173 -0.3677  0.1343
 7579TIP3    H146932   6.662   2.957   8.636 -0.1153 -0.4639  0.4067
 7579TIP3    H246933   6.630   3.098   8.683 -0.2801 -0.4662  0.3006
 7580TIP3   OH246934   6.750   3.898   6.189 -0.1288  0.0076 -0.0264
 7580TIP3    H146935   6.747   3.807   6.221  0.3339 -0.5048 -1.3686
 7580TIP3    H246936   6.833   3.903   6.141  0.8079  1.7220  1.6316
 7581TIP3   OH246937   4.265   2.715   9.303  0.0457  0.5023 -0.0933
 7581TIP3    H146938   4.214   2.759   9.372  0.9525 -0.6676  1.3648
 7581TIP3    H246939   4.209   2.644   9.274 -0.3334  0.9901 -0.5826
 7582TIP3   OH246940   2.696   0.871   7.452  0.6320  0.0792 -0.0920
 7582TIP3    H146941   2.678   0.786   7.490  2.7572 -0.1528  0.5123
 7582TIP3    H246942   2.648   0.933   7.507 -1.9413 -0.7326 -1.2602
 7583TIP3   OH246943   2.053   6.311   7.731 -0.7389 -0.3704 -0.4536
 7583TIP3    H146944   2.135   6.319   7.779 -0.6104 -1.1531 -0.5311
 7583TIP3    H246945   1.994   6.374   7.772 -0.6987 -1.1620  0.8658
 7584TIP3   OH246946   0.967   3.768   7.718  0.0635 -0.2939 -0.1711
 7584TIP3    H146947   0.921   3.812   7.790  0.9376 -2.0743  1.5480
 7584TIP3    H246948   0.964   3.832   7.646 -2.2980  0.8898  0.8625
 7585TIP3   OH246949   0.841   2.519   7.086  0.3449  0.7473  0.4179
 7585TIP3    H146950   0.816   2.477   7.004  1.5187  1.5093 -0.3583
 7585TIP3    H246951   0.760   2.523   7.136 -0.3387  0.0288 -0.5949
 7586TIP3   OH246952   3.057   2.573   8.308  0.0602  0.5768 -0.1355
 7586TIP3    H146953   3.048   2.566   8.403 -1.8414 -0.6429 -0.3407
 7586TIP3    H246954   3.145   2.541   8.289 -0.6096 -2.2108  0.9982
 7587TIP3   OH246955   3.585   0.302   6.009  0.3955 -0.1674  0.4140
 7587TIP3    H146956   3.630   0.233   5.960  1.7481  0.8929  0.1089
 7587TIP3    H246957   3.505   0.259   6.042  0.4318 -1.4537 -1.0301
 7588TIP3   OH246958   1.518   5.240   6.895  0.0217 -0.0797  0.1171
 7588TIP3    H146959   1.452   5.188   6.849 -0.5513  1.1019 -0.4603
 7588TIP3    H246960   1.542   5.308   6.832 -0.0051  0.9440  1.1782
 7589TIP3   OH246961   5.095   6.126   8.494  0.2475 -0.1709  0.4234
 7589TIP3    H146962   5.069   6.146   8.404 -3.0882  0.0400  1.3039
 7589TIP3    H246963   5.181   6.086   8.486  1.3757  2.4782 -2.5863
 7590TIP3   OH246964   4.894   0.077   8.288 -0.0447 -0.0433 -0.1192
 7590TIP3    H146965   4.847   0.104   8.368  0.8803  2.5822 -0.3523
 7590TIP3    H246966   4.986   0.076   8.314  0.1328 -0.9299 -0.7382
 7591TIP3   OH246967   4.862   6.729   5.845 -0.1635  0.0230 -0.1400
 7591TIP3    H146968   4.914   6.800   5.881  0.0362 -0.0118 -0.3546
 7591TIP3    H246969   4.816   6.768   5.770 -1.3371  0.3510  0.7160
 7592TIP3   OH246970   6.720   4.732   8.170  0.3837  0.2887 -0.0233
 7592TIP3    H146971   6.626   4.717   8.178  0.4153 -0.6741 -1.2538
 7592TIP3    H246972   6.741   4.793   8.242 -0.9760 -0.3145  0.9138
 7593TIP3   OH246973   2.253   6.218   6.541  0.3760  0.4940 -0.0191
 7593TIP3    H146974   2.344   6.203   6.515  0.3643  1.7025 -0.8632
 7593TIP3    H246975   2.215   6.268   6.469 -0.4616  1.5051  1.0634
 7594TIP3   OH246976   0.740   3.968   5.925  0.6834 -0.1388  0.2628
 7594TIP3    H146977   0.744   4.026   5.849 -0.2279 -0.3687  0.0323
 7594TIP3    H246978   0.703   4.023   5.995  1.2857  0.0012  0.4744
 7595TIP3   OH246979   0.638   4.193   6.665  0.0556 -0.8000  0.2430
 7595TIP3    H146980   0.626   4.117   6.721 -0.7709 -0.4652  0.5376
 7595TIP3    H246981   0.685   4.257   6.719  0.1698 -0.8579  0.2121
 7596TIP3   OH246982   1.128   4.810   5.598  0.3412 -0.3303  0.4253
 7596TIP3    H146983   1.096   4.770   5.680 -0.1109 -0.1141  0.3617
 7596TIP3    H246984   1.175   4.888   5.627 -2.3102  1.4114  0.3818
 7597TIP3   OH246985   2.830   1.438   6.424 -0.3577  0.4206 -0.2567
 7597TIP3    H146986   2.908   1.401   6.465 -0.5016  0.6760  0.2452
 7597TIP3    H246987   2.766   1.367   6.428 -0.5366  0.6155  0.4325
 7598TIP3   OH246988   1.995   6.024   8.331 -0.1288  0.0875 -0.4218
 7598TIP3    H146989   2.032   6.084   8.396  1.2917 -0.1791 -0.9454
 7598TIP3    H246990   1.909   6.060   8.311  1.5263  3.3207 -2.4143
 7599TIP3   OH246991   2.193   4.999   8.985 -0.2811  0.3603 -0.4027
 7599TIP3    H146992   2.140   4.931   8.943 -0.2666  1.2686 -1.9609
 7599TIP3    H246993   2.188   5.074   8.925 -0.1597  1.6877  1.1745
 7600TIP3   OH246994   5.382   1.105   5.836 -0.3727 -0.1772 -0.4523
 7600TIP3    H146995   5.404   1.162   5.763 -0.8965  1.2514  0.4543
 7600TIP3    H246996   5.363   1.165   5.908 -0.1982 -1.5251  0.7695
 7601TIP3   OH246997   6.472   0.884   6.662 -0.5265 -0.2855 -0.5431
 7601TIP3    H146998   6.485   0.962   6.715 -1.0625 -0.1963 -0.5387
 7601TIP3    H246999   6.415   0.828   6.714 -2.1506  0.3618 -1.5442
 7602TIP3   OH247000   0.858   3.013   6.202  0.1428  0.8549 -0.2522
 7602TIP3    H147001   0.835   2.974   6.118  0.7996  1.5764 -0.7887
 7602TIP3    H247002   0.817   2.957   6.267  0.6935 -0.4717 -1.0094
 7603TIP3   OH247003   5.493   4.060   8.191  0.2636  0.5929  0.0061
 7603TIP3    H147004   5.505   4.077   8.098 -2.3414 -0.6450 -0.6497
 7603TIP3    H247005   5.552   3.987   8.210  0.0283  0.1250 -0.9757
 7604TIP3   OH247006   4.796   0.206   7.166 -0.0935 -0.2381  0.6364
 7604TIP3    H147007   4.770   0.261   7.240  0.4702  1.8817 -0.6448
 7604TIP3    H247008   4.748   0.242   7.091  0.9960 -0.9013 -0.4237
 7605TIP3   OH247009   3.451   2.805   5.886 -0.6110  0.0315 -0.3036
 7605TIP3    H147010   3.359   2.781   5.896 -0.9501  1.6114  0.6539
 7605TIP3    H247011   3.451   2.900   5.883  1.0203  0.0711 -0.0793
 7606TIP3   OH247012   2.609   2.920   6.794 -0.1440 -0.5315 -0.2926
 7606TIP3    H147013   2.699   2.950   6.783 -0.6944  0.9084 -1.0717
 7606TIP3    H247014   2.613   2.858   6.867  0.9263  2.1860  2.1339
 7607TIP3   OH247015   4.010   6.220   7.459 -0.0742  0.2279  0.3127
 7607TIP3    H147016   4.080   6.194   7.400 -0.5113  0.7769 -0.4662
 7607TIP3    H247017   3.979   6.138   7.498  0.5333 -0.0832  0.1419
 7608TIP3   OH247018   6.103   1.052   8.107  0.2866 -0.7960  0.0919
 7608TIP3    H147019   6.025   1.016   8.065 -0.2256 -0.3806  0.6644
 7608TIP3    H247020   6.117   0.996   8.184  0.0044 -0.3253  0.4960
 7609TIP3   OH247021   4.741   5.612   7.565 -0.1015  0.1803 -0.0161
 7609TIP3    H147022   4.682   5.564   7.508 -0.6960 -0.7044  1.2887
 7609TIP3    H247023   4.769   5.547   7.630 -0.5487  1.4777  1.5116
 7610TIP3   OH247024   2.941   1.634   8.206  0.2275  0.1604  0.4091
 7610TIP3    H147025   2.892   1.561   8.243  0.6769  0.2002  1.0911
 7610TIP3    H247026   3.032   1.616   8.229  0.4481  0.4835 -0.1867
 7611TIP3   OH247027   0.596   1.959   6.939  0.0720  0.0613 -0.1739
 7611TIP3    H147028   0.603   2.016   7.015 -2.0036  0.0672  0.0466
 7611TIP3    H247029   0.628   2.013   6.866 -0.9082  1.1655  0.1882
 7612TIP3   OH247030   1.504   6.751   7.187  0.4061 -0.6876  0.3649
 7612TIP3    H147031   1.482   6.775   7.098  0.0246 -0.3935  0.5381
 7612TIP3    H247032   1.438   6.687   7.212  0.5373 -0.8022  0.4258
 7613TIP3   OH247033   5.224   0.283   5.514 -0.0653 -0.2262  0.5777
 7613TIP3    H147034   5.228   0.304   5.607  3.6922  0.3188  0.4677
 7613TIP3    H247035   5.191   0.362   5.472 -0.0743  0.1661  1.3221
 7614TIP3   OH247036   5.421   4.967   8.422 -0.2892 -0.4087 -0.3117
 7614TIP3    H147037   5.505   4.932   8.452  0.2624  0.2120 -1.1072
 7614TIP3    H247038   5.377   4.892   8.381  0.9587 -0.1978 -2.1680
 7615TIP3   OH247039   1.806   3.831   7.632 -0.3394 -0.1157 -0.3703
 7615TIP3    H147040   1.818   3.847   7.538 -0.2521 -0.1483 -0.3645
 7615TIP3    H247041   1.749   3.755   7.636 -1.5447  0.7558 -0.4049
 7616TIP3   OH247042   3.351   2.475   5.614  0.4784  0.4462  0.4127
 7616TIP3    H147043   3.395   2.400   5.573  0.0587  0.4822 -0.1171
 7616TIP3    H247044   3.423   2.531   5.644  0.8062 -0.4446  1.3519
 7617TIP3   OH247045   1.689   5.488   8.340 -0.3075  0.4752  0.2125
 7617TIP3    H147046   1.750   5.555   8.369 -2.8894  2.6394  1.0350
 7617TIP3    H247047   1.682   5.428   8.414 -1.4983  2.0113  1.4179
 7618TIP3   OH247048   5.729   2.475   6.576  0.4548  0.5829  0.4584
 7618TIP3    H147049   5.796   2.463   6.508 -0.5269  1.7092 -0.7578
 7618TIP3    H247050   5.765   2.430   6.653  2.2130  0.4216 -0.3987
 7619TIP3   OH247051   0.997   6.365   8.498 -0.3763 -0.4855  0.1831
 7619TIP3    H147052   0.992   6.340   8.591 -0.0229  0.6538  0.5322
 7619TIP3    H247053   0.995   6.461   8.500 -2.8309 -0.4391 -1.1582
 7620TIP3   OH247054   0.584   1.758   8.491 -0.0218 -0.1228  0.1668
 7620TIP3    H147055   0.520   1.783   8.424 -1.0124 -1.4321  0.6086
 7620TIP3    H247056   0.590   1.835   8.548  0.2902  0.7406 -0.9851
 7621TIP3   OH247057   1.741   5.839   7.819  0.0211 -0.1755  0.2784
 7621TIP3    H147058   1.663   5.879   7.857  0.4211 -0.0236  0.9569
 7621TIP3    H247059   1.802   5.829   7.893  0.2057 -1.3738 -0.0163
 7622TIP3   OH247060   0.010   3.444   7.453 -0.5102 -0.1639 -0.0878
 7622TIP3    H147061  -0.012   3.352   7.442 -3.9498  0.3301  1.4720
 7622TIP3    H247062  -0.059   3.491   7.406  1.8879  1.7257 -1.9922
 7623TIP3   OH247063   0.144   4.039   5.949 -0.0170  0.0260  0.3141
 7623TIP3    H147064   0.225   4.042   5.900 -1.5144  2.6985 -2.2883
 7623TIP3    H247065   0.082   3.994   5.891 -1.1459  0.7467  0.9179
 7624TIP3   OH247066   2.686   4.508   8.940 -0.5838  0.0141 -0.4677
 7624TIP3    H147067   2.625   4.445   8.979 -0.3919 -0.2717 -0.6294
 7624TIP3    H247068   2.637   4.546   8.867  0.0486 -1.5565 -1.7740
 7625TIP3   OH247069   4.788   5.360   8.568  0.5581  0.3729 -0.5362
 7625TIP3    H147070   4.884   5.362   8.571  0.5814  0.9101 -1.3523
 7625TIP3    H247071   4.764   5.285   8.622  1.4518 -0.0177 -0.6669
 7626TIP3   OH247072   0.828   3.533   8.490 -0.7172 -0.0033  0.4667
 7626TIP3    H147073   0.887   3.581   8.549 -1.2115  1.1273  0.0672
 7626TIP3    H247074   0.742   3.540   8.530 -0.8430 -0.3546  0.2695
 7627TIP3   OH247075   1.674   1.326   8.643  0.0342  0.0343  0.3833
 7627TIP3    H147076   1.712   1.411   8.619  0.8415 -0.2178  0.7141
 7627TIP3    H247077   1.692   1.270   8.567  0.0763 -0.0068  0.4234
 7628TIP3   OH247078   6.269   1.995   6.876 -0.3984 -0.0895  0.0220
 7628TIP3    H147079   6.348   2.034   6.914  0.5508 -0.6932 -1.2230
 7628TIP3    H247080   6.267   2.029   6.787 -0.7454 -1.1816 -0.4031
 7629TIP3   OH247081   6.548   1.724   6.769 -0.0695 -0.3618 -0.4175
 7629TIP3    H147082   6.543   1.805   6.818 -2.2438 -0.0300 -1.0443
 7629TIP3    H247083   6.456   1.704   6.747  0.6225 -1.5371 -2.5894
 7630TIP3   OH247084   1.402   4.932   8.609  0.6206  0.2967 -0.0704
 7630TIP3    H147085   1.315   4.916   8.571  0.2637  3.1738 -0.6466
 7630TIP3    H247086   1.460   4.875   8.559 -0.6139  0.0044 -1.2391
 7631TIP3   OH247087   5.467   0.852   9.151 -0.1975 -0.2146  0.1017
 7631TIP3    H147088   5.469   0.922   9.085 -0.2527 -0.2065  0.1086
 7631TIP3    H247089   5.392   0.874   9.206  1.0811  0.9375  1.4429
 7632TIP3   OH247090   0.954   3.971   7.211  0.0593  0.0934  0.4251
 7632TIP3    H147091   1.008   3.994   7.136 -0.7789  0.5760 -0.0473
 7632TIP3    H247092   1.014   3.927   7.272  1.4914  2.4801  0.8625
 7633TIP3   OH247093   3.629   4.478   6.352  0.0886  0.2925 -0.4606
 7633TIP3    H147094   3.617   4.526   6.270 -0.7981  0.2343 -0.3666
 7633TIP3    H247095   3.637   4.386   6.324  0.2457  0.3209 -0.5132
 7634TIP3   OH247096   2.024   6.709   5.775 -0.3037 -0.6074 -0.0925
 7634TIP3    H147097   1.975   6.784   5.809  0.9630 -0.2316  0.9707
 7634TIP3    H247098   2.031   6.649   5.849  0.9981 -0.5540 -0.1501
 7635TIP3   OH247099   3.089   5.028   7.249 -0.1081  0.3617  0.2820
 7635TIP3    H147100   3.179   5.009   7.224 -1.0205 -1.6972 -1.7812
 7635TIP3    H247101   3.079   4.986   7.335  1.2376  1.8922  1.2539
 7636TIP3   OH247102   0.166   5.502   8.075  0.7755 -0.5031 -0.4538
 7636TIP3    H147103   0.226   5.427   8.073  0.2271 -0.9600 -0.1502
 7636TIP3    H247104   0.169   5.533   8.166  0.6509 -0.4477 -0.4680
 7637TIP3   OH247105   3.258   3.795   7.925 -0.0151  0.0884  0.2946
 7637TIP3    H147106   3.204   3.727   7.965  1.0875 -0.0694  1.5884
 7637TIP3    H247107   3.237   3.875   7.973  0.8342  0.0342  0.7808
 7638TIP3   OH247108   4.665   6.413   7.658 -0.1201  0.0489 -0.0868
 7638TIP3    H147109   4.705   6.424   7.745 -0.1365 -1.4060  0.1292
 7638TIP3    H247110   4.622   6.328   7.663 -1.1887  0.5120 -1.1267
 7639TIP3   OH247111   6.120   5.220   9.125 -0.3311 -0.0647 -0.0707
 7639TIP3    H147112   6.033   5.182   9.136 -0.6703 -0.0180 -2.2036
 7639TIP3    H247113   6.177   5.145   9.110 -0.4463  0.0202 -1.0352
 7640TIP3   OH247114   2.554   2.624   6.469  0.4738 -0.3071 -0.2536
 7640TIP3    H147115   2.610   2.567   6.521  0.9639  0.3580 -0.0389
 7640TIP3    H247116   2.485   2.652   6.529 -0.6894 -1.9066 -0.7751
 7641TIP3   OH247117   4.545   1.789   6.885  0.3977 -0.6893 -0.4389
 7641TIP3    H147118   4.481   1.859   6.881  0.9454 -0.2197 -3.5015
 7641TIP3    H247119   4.512   1.729   6.952 -1.9513  0.7164 -0.2655
 7642TIP3   OH247120   1.622   6.080   5.580  0.2004 -0.4676 -0.4090
 7642TIP3    H147121   1.571   6.021   5.635 -1.1546  1.9381  1.0335
 7642TIP3    H247122   1.651   6.025   5.507 -1.5006 -2.7440  0.5302
 7643TIP3   OH247123   0.484   5.695   9.018 -0.3529 -0.6955 -0.2691
 7643TIP3    H147124   0.404   5.744   9.039  1.1317  1.3722  0.9574
 7643TIP3    H247125   0.462   5.604   9.038 -2.1993 -0.0972  0.6800
 7644TIP3   OH247126   5.153   2.910   5.647  0.6764 -0.1770 -0.3938
 7644TIP3    H147127   5.223   2.933   5.708  1.3164 -0.1353 -1.1275
 7644TIP3    H247128   5.145   2.815   5.655  1.2841 -0.2652 -0.7919
 7645TIP3   OH247129   6.052   2.066   7.926 -0.3689 -0.9754 -0.1992
 7645TIP3    H147130   5.987   2.097   7.862  0.6254 -0.3159 -0.9307
 7645TIP3    H247131   6.053   1.971   7.914 -0.0741 -0.8521 -1.3214
 7646TIP3   OH247132   0.071   0.772   7.524 -0.1708 -0.9015  0.0362
 7646TIP3    H147133   0.082   0.679   7.545 -0.5838 -0.8194  0.6253
 7646TIP3    H247134   0.004   0.774   7.455 -2.3873 -0.8752  2.0567
 7647TIP3   OH247135   5.530   0.791   8.271 -0.1962  0.3961  0.0791
 7647TIP3    H147136   5.556   0.702   8.247 -0.1611  0.2184  0.7432
 7647TIP3    H247137   5.557   0.845   8.197  2.6608  0.3238  0.9299
 7648TIP3   OH247138   1.496   2.473   5.513  0.0798  0.7546  0.3046
 7648TIP3    H147139   1.525   2.423   5.589  2.2000  1.5682  0.1009
 7648TIP3    H247140   1.475   2.406   5.447  1.1945  0.0753  0.6144
 7649TIP3   OH247141   4.112   1.454   8.118  0.3942  0.3330 -0.2324
 7649TIP3    H147142   4.103   1.541   8.157 -1.1710  0.1707 -0.1439
 7649TIP3    H247143   4.071   1.463   8.032  0.6318 -0.2003 -0.3997
 7650TIP3   OH247144   0.668   3.063   8.608 -0.0996 -0.2438  0.1545
 7650TIP3    H147145   0.763   3.055   8.603  0.0851  1.1710  0.9600
 7650TIP3    H247146   0.653   3.153   8.636 -1.6520 -0.7488  1.0512
 7651TIP3   OH247147   4.993   2.780   7.832 -0.6258 -0.1509  0.1672
 7651TIP3    H147148   4.913   2.829   7.811 -0.7003 -0.1035  0.5558
 7651TIP3    H247149   5.040   2.774   7.749 -0.1270  1.4599  0.3080
 7652TIP3   OH247150   6.647   4.545   8.819 -0.0715 -0.2453 -0.5227
 7652TIP3    H147151   6.573   4.533   8.879  0.0718  1.8881  0.1616
 7652TIP3    H247152   6.724   4.543   8.876  0.0180  2.6783 -0.3969
 7653TIP3   OH247153   5.814   0.665   6.380  0.2549  0.4360 -0.0024
 7653TIP3    H147154   5.869   0.736   6.414  0.7355  0.7867 -1.4039
 7653TIP3    H247155   5.868   0.625   6.311 -0.9263  0.2481 -0.8453
 7654TIP3   OH247156   1.110   2.707   8.187  0.2906  0.2823  0.2187
 7654TIP3    H147157   1.167   2.763   8.240 -1.9798  1.6315  1.4014
 7654TIP3    H247158   1.115   2.621   8.229  0.0348  0.8464  1.4231
 7655TIP3   OH247159   2.493   1.038   6.321 -0.2396 -0.6299  0.5896
 7655TIP3    H147160   2.541   0.955   6.315  1.9515  0.6763 -1.9033
 7655TIP3    H247161   2.415   1.024   6.267  1.0585 -0.5568 -1.3998
 7656TIP3   OH247162   4.280   5.144   8.302 -0.0077  0.5474 -0.0112
 7656TIP3    H147163   4.279   5.054   8.270 -0.1842  0.3063  0.6459
 7656TIP3    H247164   4.330   5.140   8.383  0.1888  1.0861 -0.1051
 7657TIP3   OH247165   3.258   3.966   9.235 -0.0242 -0.5062 -0.3795
 7657TIP3    H147166   3.284   3.890   9.288 -0.6928 -0.9904 -0.7364
 7657TIP3    H247167   3.208   4.021   9.295 -1.7321 -1.5776 -0.7446
 7658TIP3   OH247168   6.496   3.322   8.141 -0.0854  0.4570  0.1996
 7658TIP3    H147169   6.414   3.292   8.103 -1.4215  2.9956  0.8517
 7658TIP3    H247170   6.493   3.295   8.232 -0.1978  0.5537  0.2244
 7659TIP3   OH247171   0.193   6.009   6.133 -0.4140  0.1257  0.0531
 7659TIP3    H147172   0.209   5.958   6.054  0.4415  0.3764  0.0588
 7659TIP3    H247173   0.126   5.959   6.180 -1.1065  0.0970 -0.9326
 7660TIP3   OH247174   6.302   2.795   7.260  0.1271  0.3109  0.2676
 7660TIP3    H147175   6.308   2.727   7.327  0.0844  0.7404  0.7141
 7660TIP3    H247176   6.361   2.765   7.191 -1.5011 -1.2519 -0.5296
 7661TIP3   OH247177   0.738   1.718   5.876  0.3934 -0.0072  0.0725
 7661TIP3    H147178   0.663   1.759   5.920  0.8568  0.9359  0.0116
 7661TIP3    H247179   0.794   1.688   5.948  0.4882  0.2842  0.1201
 7662TIP3   OH247180   2.185   3.409   6.262 -0.0819  0.0615 -0.2885
 7662TIP3    H147181   2.202   3.343   6.195 -3.1031  0.6485 -1.8296
 7662TIP3    H247182   2.090   3.404   6.277  0.0125  2.1840  1.5759
 7663TIP3   OH247183   0.443   5.570   5.796 -0.2776 -0.7146 -0.2530
 7663TIP3    H147184   0.526   5.613   5.816 -1.0551  0.1652  1.2355
 7663TIP3    H247185   0.430   5.584   5.702 -0.0249  1.4760 -0.0005
 7664TIP3   OH247186   4.437   0.850   7.244 -0.1105 -0.3543  0.1958
 7664TIP3    H147187   4.505   0.801   7.197  0.0187 -0.5498  0.5730
 7664TIP3    H247188   4.363   0.853   7.184 -0.0694 -0.8995  0.1151
 7665TIP3   OH247189   4.212   4.923   8.118 -0.1104  0.2912  0.0765
 7665TIP3    H147190   4.219   4.891   8.028 -0.5680  0.8925 -0.1803
 7665TIP3    H247191   4.127   4.967   8.121 -1.4485 -2.2043  1.6273
 7666TIP3   OH247192   5.402   0.572   8.737 -1.0126  0.3428  0.1188
 7666TIP3    H147193   5.489   0.555   8.702 -2.0533 -0.1241 -2.5106
 7666TIP3    H247194   5.416   0.595   8.828  1.9889  1.7256 -0.5806
 7667TIP3   OH247195   4.722   3.807   7.420  0.3048 -0.0419 -0.6811
 7667TIP3    H147196   4.779   3.746   7.372  1.2315  0.6648 -0.5089
 7667TIP3    H247197   4.762   3.812   7.508 -0.3800 -0.0020 -0.3696
 7668TIP3   OH247198   4.249   0.398   7.574  0.8746 -0.2600  0.1046
 7668TIP3    H147199   4.222   0.306   7.581  2.1595 -1.2110 -4.2083
 7668TIP3    H247200   4.335   0.401   7.616  1.4050 -1.4477 -0.8193
 7669TIP3   OH247201   5.099   5.427   6.958 -0.0512  0.0380  0.1487
 7669TIP3    H147202   5.053   5.379   7.026 -3.3407 -1.0455 -2.5784
 7669TIP3    H247203   5.107   5.516   6.992  2.4949 -1.3090  3.6197
 7670TIP3   OH247204   0.884   6.452   6.910 -0.3500 -0.6135 -0.0700
 7670TIP3    H147205   0.891   6.357   6.901 -1.7678 -1.1146  2.9302
 7670TIP3    H247206   0.801   6.474   6.869  0.3507 -0.5132 -1.4742
 7671TIP3   OH247207   1.202   6.706   8.207 -0.3738  0.6500 -0.2558
 7671TIP3    H147208   1.182   6.706   8.114  1.1144 -1.1819 -0.6312
 7671TIP3    H247209   1.127   6.751   8.248 -1.4881  0.6730 -2.2145
 7672TIP3   OH247210   3.729   5.170   7.057  0.0540 -0.1052  0.0043
 7672TIP3    H147211   3.677   5.141   6.982  0.5259 -0.3048 -0.2494
 7672TIP3    H247212   3.718   5.101   7.122  0.4212 -0.4020 -0.2465
 7673TIP3   OH247213   0.863   5.480   6.634 -0.2419 -0.6786  0.4072
 7673TIP3    H147214   0.900   5.393   6.616 -2.3532 -1.3655 -1.0271
 7673TIP3    H247215   0.795   5.491   6.567  1.6550  3.2452 -1.1667
 7674TIP3   OH247216   5.875   3.394   8.490  0.1525 -0.2238 -0.2806
 7674TIP3    H147217   5.786   3.369   8.511 -0.4074 -0.0980 -2.2698
 7674TIP3    H247218   5.921   3.311   8.474  0.8979 -0.3963  2.3247
 7675TIP3   OH247219   3.434   0.104   8.712 -0.2372 -0.7999  0.1739
 7675TIP3    H147220   3.350   0.077   8.673 -0.4351 -0.9285  0.6770
 7675TIP3    H247221   3.410   0.175   8.772 -0.1472 -1.6253  1.1938
 7676TIP3   OH247222   5.075   3.795   9.364  0.4475  0.3705 -0.0019
 7676TIP3    H147223   5.027   3.762   9.440  1.8790 -2.9941 -0.3709
 7676TIP3    H247224   5.157   3.828   9.401  0.4031  0.3708  0.0976
 7677TIP3   OH247225   2.092   1.798   6.399 -0.3743  0.0772 -0.6524
 7677TIP3    H147226   2.024   1.740   6.434  0.5143 -0.6932 -0.1529
 7677TIP3    H247227   2.174   1.756   6.425  0.2916  1.5085 -0.3826
 7678TIP3   OH247228   3.673   4.108   9.778 -0.3450 -0.3033 -0.4420
 7678TIP3    H147229   3.604   4.059   9.822  0.1460  0.1940  0.9178
 7678TIP3    H247230   3.746   4.110   9.840  1.6072 -2.3156 -2.4718
 7679TIP3   OH247231   1.738   1.132   5.687  0.4587 -0.0414  0.2267
 7679TIP3    H147232   1.760   1.137   5.594  0.4249 -1.2139  0.1389
 7679TIP3    H247233   1.820   1.153   5.732  1.1997 -1.9991 -0.0979
 7680TIP3   OH247234   6.327   3.825   7.158 -0.0099 -0.4699 -0.1747
 7680TIP3    H147235   6.238   3.843   7.189  0.5280  1.6429  0.3099
 7680TIP3    H247236   6.383   3.846   7.232  0.8679 -3.2317  0.0412
 7681TIP3   OH247237   2.699   4.012   5.829  0.2046 -0.2704 -0.3240
 7681TIP3    H147238   2.738   4.077   5.771 -1.1681  0.4846 -0.4141
 7681TIP3    H247239   2.630   3.971   5.777 -0.3933 -0.2680  0.4495
 7682TIP3   OH247240   0.568   0.018   7.640 -0.4425 -0.2612  0.2066
 7682TIP3    H147241   0.558   0.078   7.713 -1.4900  1.0883 -0.9920
 7682TIP3    H247242   0.503  -0.051   7.656 -1.1366  0.3873  0.2235
 7683TIP3   OH247243   2.727   4.130   8.901  0.2203  0.4067 -0.1113
 7683TIP3    H147244   2.651   4.105   8.955 -0.1249  1.0407 -0.2926
 7683TIP3    H247245   2.779   4.050   8.895 -0.2627  0.0504  0.3009
 7684TIP3   OH247246   2.066   6.265   6.980 -0.1251 -0.1328 -0.3836
 7684TIP3    H147247   2.113   6.272   7.064 -0.9076 -0.0030  0.0518
 7684TIP3    H247248   2.007   6.340   6.979  0.8297  0.6374 -1.6788
 7685TIP3   OH247249   1.036   2.813   6.826 -0.3396  0.1360  0.2753
 7685TIP3    H147250   1.035   2.811   6.921 -1.5237 -0.9491  0.2724
 7685TIP3    H247251   1.000   2.899   6.803 -1.2339 -0.0877  0.8119
 7686TIP3   OH247252   4.506   5.064   5.675  0.1167 -0.2797  0.1399
 7686TIP3    H147253   4.473   5.145   5.713  1.1450  0.5033 -0.5876
 7686TIP3    H247254   4.592   5.052   5.715  0.2021 -0.7152 -0.1697
 7687TIP3   OH247255   6.720   3.780   8.228  0.4189 -0.2121 -0.5743
 7687TIP3    H147256   6.767   3.822   8.157 -0.7697  1.6516 -0.3236
 7687TIP3    H247257   6.760   3.814   8.308 -0.7948  0.8166 -0.3644
 7688TIP3   OH247258   0.069   6.696   7.712  0.1382  0.1350 -0.0515
 7688TIP3    H147259   0.020   6.660   7.786  0.5754  0.8304  0.5865
 7688TIP3    H247260   0.060   6.630   7.643 -0.4025 -0.4495  0.5648
 7689TIP3   OH247261   4.820   4.063   8.917 -0.1736 -0.1098 -0.6312
 7689TIP3    H147262   4.879   4.096   8.850 -0.1708  0.3433 -0.4162
 7689TIP3    H247263   4.852   4.103   8.998  0.3541 -1.3280 -0.2147
 7690TIP3   OH247264   5.433   1.911   7.650 -0.2611 -0.3695 -0.2429
 7690TIP3    H147265   5.473   1.996   7.630 -0.3169 -0.7524 -2.1741
 7690TIP3    H247266   5.428   1.867   7.566 -2.4222 -1.3687  0.3482
 7691TIP3   OH247267   2.235   4.656   7.079  0.0156 -0.2437 -0.2357
 7691TIP3    H147268   2.218   4.665   6.985 -0.1102 -0.9287 -0.2865
 7691TIP3    H247269   2.330   4.660   7.087  0.0171  0.0138 -0.3672
 7692TIP3   OH247270   1.718   2.270   6.673 -0.6735  0.3384 -0.3518
 7692TIP3    H147271   1.801   2.228   6.651 -0.1817  0.5940  0.9320
 7692TIP3    H247272   1.653   2.227   6.617 -0.2682 -2.3944  1.1043
 7693TIP3   OH247273   4.280   5.107  16.528 -0.4439 -0.0559 -0.4634
 7693TIP3    H147274   4.277   5.198  16.556  0.3124 -1.0683  3.6360
 7693TIP3    H247275   4.373   5.091  16.508 -0.4847 -0.0583 -0.6522
 7694TIP3   OH247276   1.744   4.176   8.025  0.4550  0.3870  0.5809
 7694TIP3    H147277   1.801   4.237   7.978  0.7027 -0.5028 -0.3081
 7694TIP3    H247278   1.664   4.173   7.973 -0.7363  2.1447  2.1767
 7695TIP3   OH247279   2.057   4.142   7.161  0.4275  0.2194 -0.2817
 7695TIP3    H147280   2.044   4.050   7.185 -0.7585  0.7768  1.4579
 7695TIP3    H247281   2.138   4.143   7.110  1.3218 -1.5864  1.0026
 7696TIP3   OH247282   3.977   5.275   6.933 -0.0528 -0.1775 -0.0835
 7696TIP3    H147283   4.046   5.214   6.960  0.5729  0.2721 -0.6440
 7696TIP3    H247284   3.902   5.250   6.986  1.3871  1.3073  2.9301
 7697TIP3   OH247285   3.146   2.216   8.590  0.3568  0.4552  0.5687
 7697TIP3    H147286   3.069   2.196   8.643 -0.1854  1.8165  0.3344
 7697TIP3    H247287   3.115   2.208   8.499  0.2405  1.8554  0.4742
 7698TIP3   OH247288   0.285   6.460   5.978 -0.1817 -0.5630  0.7066
 7698TIP3    H147289   0.224   6.479   5.907 -0.9502 -0.7478  1.3102
 7698TIP3    H247290   0.296   6.365   5.976  0.5413 -0.4795  0.2411
 7699TIP3   OH247291   1.651   4.225   6.766 -0.3848 -0.1269  0.4773
 7699TIP3    H147292   1.601   4.281   6.706 -1.4341 -1.8904 -0.3725
 7699TIP3    H247293   1.626   4.255   6.853 -0.4643  1.0794  0.0672
 7700TIP3   OH247294   2.440   5.230   5.822 -0.1380 -0.0732 -0.2985
 7700TIP3    H147295   2.349   5.255   5.840  0.5191  1.2744  1.3876
 7700TIP3    H247296   2.469   5.185   5.902  0.3954 -1.4061 -1.2070
 7701TIP3   OH247297   6.680   2.350   5.763 -0.0618 -0.2222 -0.1482
 7701TIP3    H147298   6.648   2.265   5.734  1.3514 -0.2383 -1.7977
 7701TIP3    H247299   6.761   2.364   5.714  1.5389  0.6088  2.5282
 7702TIP3   OH247300   2.342   2.523   8.739  0.4744 -0.1061 -0.2181
 7702TIP3    H147301   2.345   2.429   8.724 -0.9304  0.0214 -1.6050
 7702TIP3    H247302   2.255   2.549   8.709  0.6494  1.5630  0.6078
 7703TIP3   OH247303   2.943   6.561   8.539 -0.8482 -0.1111  0.2167
 7703TIP3    H147304   2.882   6.635   8.539 -0.5991  0.1260 -1.2284
 7703TIP3    H247305   2.900   6.494   8.591 -0.4673  1.5061  2.7801
 7704TIP3   OH247306   4.680   6.632   7.501  0.2243 -0.1464  0.0082
 7704TIP3    H147307   4.680   6.549   7.547 -0.7518 -0.2738 -0.2063
 7704TIP3    H247308   4.596   6.635   7.455  0.8321  0.3297 -1.1228
 7705TIP3   OH247309   1.606   3.005   5.704  0.1007 -0.2347 -0.4927
 7705TIP3    H147310   1.549   2.952   5.648 -1.5686 -0.0735  0.9243
 7705TIP3    H247311   1.670   2.942   5.739 -0.5587 -0.9106 -0.4572
 7706TIP3   OH247312   1.897   5.652   5.604 -0.0800  0.1482  0.2112
 7706TIP3    H147313   1.984   5.690   5.593  1.1228 -2.0542  1.5275
 7706TIP3    H247314   1.902   5.566   5.563 -2.0574  0.4458 -0.7803
 7707TIP3   OH247315   2.128   1.689   6.135  0.2971  0.4794 -0.5360
 7707TIP3    H147316   2.221   1.672   6.148 -0.1423 -1.6401  0.2861
 7707TIP3    H247317   2.100   1.733   6.216  0.7164  1.8796 -1.1277
 7708TIP3   OH247318   3.766   1.504   5.884  0.3957 -0.5059 -0.0551
 7708TIP3    H147319   3.713   1.470   5.956 -0.4284  0.9979  0.0745
 7708TIP3    H247320   3.726   1.468   5.805 -0.8826  0.6434  0.0387
 7709TIP3   OH247321   0.486   1.870   5.891 -0.3214 -0.3174  0.0278
 7709TIP3    H147322   0.451   1.804   5.831  0.8048 -0.6034 -0.3381
 7709TIP3    H247323   0.431   1.947   5.878 -0.1902 -0.4190 -1.2807
 7710TIP3   OH247324   2.990   5.885   8.788  0.4806 -0.2079 -0.7261
 7710TIP3    H147325   3.045   5.834   8.847 -0.4562 -0.4584 -0.0306
 7710TIP3    H247326   2.902   5.847   8.799 -0.1362  1.2054 -0.5862
 7711TIP3   OH247327   4.515   0.050   8.549  0.0132 -1.0182  0.1489
 7711TIP3    H147328   4.529  -0.044   8.534  2.2588 -0.4243 -1.9867
 7711TIP3    H247329   4.600   0.090   8.533 -1.0001  1.4846  0.5699
 7712TIP3   OH247330   0.919   0.753   7.222  0.0248  0.7713 -0.2270
 7712TIP3    H147331   0.973   0.831   7.230 -0.1110  0.7667  0.9962
 7712TIP3    H247332   0.839   0.774   7.270 -0.7411  0.4879 -1.3406
 7713TIP3   OH247333   5.687   4.062   6.402 -0.1696  0.6122 -0.1083
 7713TIP3    H147334   5.636   4.042   6.481  0.2503 -2.0254 -0.4142
 7713TIP3    H247335   5.716   3.977   6.370 -0.1181  1.6036 -3.0055
 7714TIP3   OH247336   4.918   3.618   9.522 -0.2700 -0.0358 -0.0956
 7714TIP3    H147337   4.834   3.594   9.562 -0.8879 -1.2266 -1.9734
 7714TIP3    H247338   4.983   3.564   9.567 -0.7962 -0.5863  0.0112
 7715TIP3   OH247339   6.308   3.237   8.609 -0.6334  0.0438 -0.0327
 7715TIP3    H147340   6.393   3.236   8.652 -0.8100 -0.4062  0.3193
 7715TIP3    H247341   6.301   3.152   8.566 -0.3541  0.5915 -1.1767
 7716TIP3   OH247342   4.515   6.427   6.252 -0.0278  0.4679 -0.1590
 7716TIP3    H147343   4.566   6.423   6.171  0.0905  0.6622 -0.0949
 7716TIP3    H247344   4.434   6.380   6.231  0.8899 -1.4042  0.2885
 7717TIP3   OH247345   1.877   4.762   7.312 -0.1903 -0.3400 -0.4285
 7717TIP3    H147346   1.816   4.690   7.297  0.0128 -0.6896  0.3436
 7717TIP3    H247347   1.912   4.783   7.225 -2.5591  0.9395 -1.1670
 7718TIP3   OH247348   3.624   5.822   7.249 -0.1407  0.1379  0.1127
 7718TIP3    H147349   3.555   5.836   7.314 -0.8903  0.0154 -0.6299
 7718TIP3    H247350   3.588   5.860   7.168 -0.5745 -2.4593 -1.0014
 7719TIP3   OH247351   2.573   2.655   6.015 -0.2954  0.2016 -0.3432
 7719TIP3    H147352   2.506   2.612   6.069  0.0073 -0.0131 -0.1308
 7719TIP3    H247353   2.655   2.638   6.062 -0.0283  0.0325 -0.8627
 7720TIP3   OH247354   4.465   3.898   7.349  0.8407 -0.0706  0.2668
 7720TIP3    H147355   4.405   3.831   7.381 -1.2974  1.0563 -1.1409
 7720TIP3    H247356   4.552   3.863   7.365 -0.1930 -2.6912  0.5249
 7721TIP3   OH247357   5.043   1.454   5.912 -0.1934  0.1197  0.5186
 7721TIP3    H147358   5.027   1.538   5.955 -2.0906 -0.6313  1.3785
 7721TIP3    H247359   4.977   1.451   5.842  0.4494 -0.2958 -0.0841
 7722TIP3   OH247360   3.773   2.129   6.692 -0.0027  0.3551  0.1817
 7722TIP3    H147361   3.811   2.217   6.692 -0.9151  0.7613 -0.0932
 7722TIP3    H247362   3.685   2.141   6.656  0.0091 -0.7380 -0.2507
 7723TIP3   OH247363   0.535   5.977   8.074 -0.2470  0.2740 -0.3960
 7723TIP3    H147364   0.548   5.972   7.979 -2.4047  2.0029 -0.8542
 7723TIP3    H247365   0.579   5.899   8.108  0.0776 -0.7151 -2.8705
 7724TIP3   OH247366   3.057   1.041   8.311  0.2153  0.0785  0.2896
 7724TIP3    H147367   3.072   0.959   8.359  0.0664 -0.0841  0.0559
 7724TIP3    H247368   2.962   1.045   8.298  0.2794  0.0121 -0.1917
 7725TIP3   OH247369   5.201   4.019   6.120 -0.0195 -0.0526  0.2463
 7725TIP3    H147370   5.261   4.057   6.184 -1.9386  1.2922  1.3825
 7725TIP3    H247371   5.161   3.945   6.165  0.9940 -1.1518 -0.6225
 7726TIP3   OH247372   5.037   5.095   6.369  0.0112  0.0979 -0.6316
 7726TIP3    H147373   5.054   5.060   6.456 -1.5652 -0.6145 -0.5844
 7726TIP3    H247374   5.100   5.050   6.313  2.4285  2.0181  0.3608
 7727TIP3   OH247375   3.612   1.477   6.657  0.3329  0.4431 -0.5669
 7727TIP3    H147376   3.630   1.563   6.620 -1.4069  2.2404  2.3674
 7727TIP3    H247377   3.639   1.483   6.748 -1.9899 -1.2475  0.3530
 7728TIP3   OH247378   6.755   6.254   8.487 -0.1484 -0.1159 -0.6354
 7728TIP3    H147379   6.828   6.194   8.502  0.4595  1.1361  1.8077
 7728TIP3    H247380   6.789   6.340   8.510 -1.6102  0.9178 -2.1084
 7729TIP3   OH247381   0.674   0.811   7.380  0.0283  0.2307 -0.4110
 7729TIP3    H147382   0.614   0.793   7.453  0.4715 -0.9352 -0.3200
 7729TIP3    H247383   0.733   0.879   7.414  0.2422 -0.3079  0.3270
 7730TIP3   OH247384   3.545   5.020   6.901 -0.1227  0.1358  0.4992
 7730TIP3    H147385   3.460   4.976   6.911 -1.1848  1.4890 -1.8316
 7730TIP3    H247386   3.603   4.951   6.867 -0.7731 -0.3409  0.3319
 7731TIP3   OH247387   5.015   4.091   7.072  0.1754 -0.5314  0.2130
 7731TIP3    H147388   5.077   4.053   7.010  2.0523 -0.3449  1.8569
 7731TIP3    H247389   4.955   4.019   7.093  0.8781 -1.2417 -0.1341
 7732TIP3   OH247390   1.972   4.963   5.965 -0.0928 -0.4013 -0.1159
 7732TIP3    H147391   1.961   4.927   6.053  0.7574  1.3540  0.7528
 7732TIP3    H247392   2.064   4.949   5.944 -0.2442 -0.6264 -0.6627
 7733TIP3   OH247393   6.672   3.997   7.607  0.1509 -0.1436 -0.0036
 7733TIP3    H147394   6.687   3.914   7.562  1.4414  0.4463 -0.6914
 7733TIP3    H247395   6.735   3.998   7.678 -0.0152  0.1521  0.1445
 7734TIP3   OH247396   1.866   2.614   6.423 -0.4126  0.1567 -0.3642
 7734TIP3    H147397   1.826   2.640   6.506  2.5665 -1.8586  1.9248
 7734TIP3    H247398   1.958   2.638   6.432  0.2935 -1.3662 -2.5590
 7735TIP3   OH247399   5.548   5.505   7.369 -0.2967  0.2249 -0.3416
 7735TIP3    H147400   5.514   5.499   7.280 -1.7480  1.0197  0.1094
 7735TIP3    H247401   5.504   5.434   7.416  1.2199 -0.8240 -0.4507
 7736TIP3   OH247402   6.130   5.390   6.984  0.2532  0.1256  0.0257
 7736TIP3    H147403   6.036   5.392   7.003 -0.1552 -2.5911 -1.1932
 7736TIP3    H247404   6.140   5.446   6.907 -0.3680  0.3849  0.1275
 7737TIP3   OH247405   5.453   4.173   7.163 -0.2851 -0.6341  0.4462
 7737TIP3    H147406   5.477   4.256   7.204 -2.8938 -0.2538  1.4043
 7737TIP3    H247407   5.537   4.135   7.136  1.0045  2.3098 -0.1428
 7738TIP3   OH247408   6.460   0.585   7.530 -0.3428  0.3331 -0.3100
 7738TIP3    H147409   6.486   0.501   7.570 -0.9497 -1.2324 -2.9453
 7738TIP3    H247410   6.380   0.609   7.576 -0.0095 -0.3736  0.6843
 7739TIP3   OH247411   0.468   5.579   6.775  0.8029  0.2167 -0.3192
 7739TIP3    H147412   0.478   5.603   6.683 -1.5215 -0.8022 -0.9072
 7739TIP3    H247413   0.382   5.613   6.800  0.8812 -0.5590  1.1289
 7740TIP3   OH247414   4.162   5.780   5.868 -0.0791  0.2554 -1.2993
 7740TIP3    H147415   4.251   5.747   5.872  0.0057  0.6445  0.7412
 7740TIP3    H247416   4.118   5.741   5.943 -1.3840  0.7706 -1.7680
 7741TIP3   OH247417   6.438   6.252   7.895  0.2248  0.0455  0.5663
 7741TIP3    H147418   6.375   6.181   7.901 -0.0140  0.1950 -0.0913
 7741TIP3    H247419   6.474   6.245   7.807  0.8339  0.2097  0.7949
 7742TIP3   OH247420   6.073   0.758   7.853 -0.0453 -0.4679  0.3848
 7742TIP3    H147421   6.046   0.696   7.920  0.9339 -0.4380  0.8294
 7742TIP3    H247422   6.009   0.829   7.858  0.6650  0.0990  2.1212
 7743TIP3   OH247423   0.613   5.432   8.212 -0.0758 -0.4876 -0.0147
 7743TIP3    H147424   0.688   5.458   8.265  0.1029 -0.7728 -0.1258
 7743TIP3    H247425   0.626   5.339   8.196 -0.3396 -0.4905 -0.2193
 7744TIP3   OH247426   6.351   5.637   8.308  0.4854 -0.0124 -0.3690
 7744TIP3    H147427   6.390   5.584   8.238  2.0440  1.0479 -0.3738
 7744TIP3    H247428   6.277   5.681   8.265  1.8848  1.2344 -1.6473
 7745TIP3   OH247429   1.506   1.471   7.475 -0.1733 -0.4534  0.1363
 7745TIP3    H147430   1.509   1.540   7.409 -0.9360  0.3164  0.8734
 7745TIP3    H247431   1.591   1.476   7.519 -0.8328  1.2816  1.3751
 7746TIP3   OH247432   4.941   4.298   6.102 -0.3873 -0.0202 -0.0891
 7746TIP3    H147433   5.030   4.264   6.113 -1.0393 -1.1249  2.5556
 7746TIP3    H247434   4.947   4.390   6.130 -0.5922 -0.9440  3.4591
 7747TIP3   OH247435   0.982   6.368   5.907  0.1093 -0.1008  0.0999
 7747TIP3    H147436   1.061   6.409   5.873 -0.0077  0.9560  1.0523
 7747TIP3    H247437   0.923   6.363   5.832  0.8039 -0.2097 -0.4442
 7748TIP3   OH247438   5.599   6.328   8.607 -0.1147  0.6634  0.6927
 7748TIP3    H147439   5.692   6.326   8.628  0.1021  0.1153 -0.2591
 7748TIP3    H247440   5.595   6.350   8.514 -0.7985 -1.4582  0.1445
 7749TIP3   OH247441   2.911   5.007   6.642 -0.0468 -0.2740 -0.0984
 7749TIP3    H147442   2.874   5.059   6.571 -0.4721 -0.2898  0.1088
 7749TIP3    H247443   2.902   5.062   6.720  1.4533  0.2218 -0.2317
 7750TIP3   OH247444   3.138   1.495   6.427  0.2514  0.2115 -0.6731
 7750TIP3    H147445   3.061   1.439   6.426  0.6413 -0.3437  0.0440
 7750TIP3    H247446   3.112   1.572   6.375 -0.6370 -0.1473 -0.7753
 7751TIP3   OH247447   2.936   6.301   8.865 -0.0620  0.0298 -0.1535
 7751TIP3    H147448   2.876   6.320   8.793 -0.9161  2.3537  1.0680
 7751TIP3    H247449   2.881   6.261   8.932  0.5036 -1.0656 -0.3189
 7752TIP3   OH247450   4.248   3.905   6.260 -0.1983 -0.0570 -0.0186
 7752TIP3    H147451   4.249   3.810   6.272 -0.6660  0.0184  0.7066
 7752TIP3    H247452   4.191   3.919   6.185 -1.1144 -0.2898  0.6185
 7753TIP3   OH247453   4.388   5.061   8.523 -0.6340 -0.0915 -0.1733
 7753TIP3    H147454   4.393   5.076   8.617  2.3084  1.5966 -0.4611
 7753TIP3    H247455   4.383   4.965   8.514 -0.5760 -0.3011  1.6838
 7754TIP3   OH247456   0.704   2.106   7.943 -0.2264 -0.6256 -0.0326
 7754TIP3    H147457   0.621   2.152   7.956  1.2179  1.8291  1.1239
 7754TIP3    H247458   0.742   2.099   8.030  1.1101 -1.0679 -0.6175
 7755TIP3   OH247459   1.072   4.148   6.390 -0.2833 -0.3027 -0.3101
 7755TIP3    H147460   1.098   4.238   6.408  0.8686 -0.3173 -1.6474
 7755TIP3    H247461   1.028   4.119   6.470  0.7846  0.9086  0.7737
 7756TIP3   OH247462   2.737   1.021   7.011  0.1949 -0.0397 -0.5480
 7756TIP3    H147463   2.738   0.931   6.977  1.3391  0.7216 -2.7628
 7756TIP3    H247464   2.783   1.072   6.944  0.5562  2.0310  1.1823
 7757TIP3   OH247465   0.868   5.768   5.813  0.3337 -0.3235  0.0170
 7757TIP3    H147466   0.921   5.728   5.882  0.1721  1.2601  1.1133
 7757TIP3    H247467   0.879   5.710   5.738  1.2643 -1.6030  1.0826
 7758TIP3   OH247468   0.663   3.840   7.921 -0.1773  0.1314  0.1452
 7758TIP3    H147469   0.674   3.933   7.903  0.3859  0.2480  1.0321
 7758TIP3    H247470   0.573   3.821   7.894 -0.7185  1.2261  1.1141
 7759TIP3   OH247471   5.760   1.259   6.058 -0.0795  0.0896  0.6903
 7759TIP3    H147472   5.729   1.234   5.971  1.2137 -0.2970  0.3124
 7759TIP3    H247473   5.749   1.180   6.111  1.0512 -0.3303  0.3233
 7760TIP3   OH247474   6.101   1.751   6.594  0.0228  0.0136 -0.4425
 7760TIP3    H147475   6.133   1.804   6.521  2.5670  0.9907  1.2674
 7760TIP3    H247476   6.061   1.813   6.654  0.1382 -0.4516  0.1228
 7761TIP3   OH247477   4.322   0.172   9.209 -0.2384 -0.4767 -0.4033
 7761TIP3    H147478   4.243   0.120   9.196  0.7259 -1.9127 -0.8094
 7761TIP3    H247479   4.383   0.112   9.252  1.1410  0.0914 -1.4883
 7762TIP3   OH247480   4.452   0.704   6.344 -0.6523 -0.1110  0.8655
 7762TIP3    H147481   4.432   0.629   6.399  0.3622  0.1654  1.6446
 7762TIP3    H247482   4.457   0.778   6.404 -1.2283  0.5108  0.1672
 7763TIP3   OH247483   5.239   4.022   7.338  0.0230 -0.4541 -0.7250
 7763TIP3    H147484   5.175   4.087   7.308  0.1384  0.3506  0.6536
 7763TIP3    H247485   5.314   4.033   7.279 -0.7390 -0.7546 -1.7673
 7764TIP3   OH247486   2.021   3.067   8.178 -0.0052  0.1843  0.3870
 7764TIP3    H147487   1.970   3.146   8.196  0.2310  0.2965  0.5747
 7764TIP3    H247488   2.029   3.024   8.263  0.0602  0.0740  0.3260
 7765TIP3   OH247489   0.976   5.810   7.680  0.1531 -0.4457  0.6541
 7765TIP3    H147490   0.907   5.801   7.614 -0.1338  2.6963  0.3722
 7765TIP3    H247491   0.928   5.817   7.763  0.4972 -3.9759  1.2912
 7766TIP3   OH247492   0.385   5.631   8.570  0.4139  0.1245 -0.6291
 7766TIP3    H147493   0.430   5.702   8.616  0.9401 -1.0068  0.6762
 7766TIP3    H247494   0.384   5.658   8.478 -2.6549  3.5271  0.2025
 7767TIP3   OH247495   5.775   2.283   6.791 -0.5877  0.1286  0.0898
 7767TIP3    H147496   5.839   2.219   6.759 -0.9531 -1.6246  2.5498
 7767TIP3    H247497   5.690   2.245   6.768 -0.7968  0.5198  0.2071
 7768TIP3   OH247498   5.871   0.980   7.933  0.2467 -0.6780  0.2406
 7768TIP3    H147499   5.807   0.916   7.964 -0.2501 -1.2879 -1.9382
 7768TIP3    H247500   5.826   1.064   7.939 -0.8145 -1.0997 -1.2633
 7769TIP3   OH247501   4.833   3.116   8.820  0.1544  1.1502  0.6787
 7769TIP3    H147502   4.758   3.161   8.781 -0.2094  0.8264  1.0020
 7769TIP3    H247503   4.800   3.080   8.902  1.5145  3.9083  2.5924
 7770TIP3   OH247504   1.331   2.157   8.447  0.1093 -0.3849 -0.7410
 7770TIP3    H147505   1.263   2.213   8.483  0.9325  0.0076  0.2427
 7770TIP3    H247506   1.310   2.070   8.481  0.5535 -0.1177  0.2597
 7771TIP3   OH247507   3.272   4.077   6.732  0.2780 -0.0870 -0.2558
 7771TIP3    H147508   3.255   3.983   6.738 -0.0757 -0.0853 -1.0833
 7771TIP3    H247509   3.190   4.114   6.702  0.6392  0.3943 -0.6636
 7772TIP3   OH247510   1.000   0.455   6.898  0.3513  0.0782  0.7165
 7772TIP3    H147511   0.976   0.496   6.981  2.2710  1.2113  0.7798
 7772TIP3    H247512   0.917   0.425   6.861 -1.2312  3.6764  0.8609
 7773TIP3   OH247513   1.255   0.665   7.758  0.0915  0.0233  0.7534
 7773TIP3    H147514   1.267   0.713   7.675  0.6501  0.1743  0.9135
 7773TIP3    H247515   1.340   0.623   7.773  0.0849  0.2314  1.3931
 7774TIP3   OH247516   6.680   0.483   6.419 -0.2025 -0.4712 -0.1582
 7774TIP3    H147517   6.604   0.541   6.409  0.1084 -0.3316 -2.0161
 7774TIP3    H247518   6.754   0.537   6.393  0.2199 -1.3685 -0.8678
 7775TIP3   OH247519   4.779   5.207   6.395 -0.4601  0.1104  0.1994
 7775TIP3    H147520   4.860   5.163   6.369 -0.9997 -0.8645  0.1628
 7775TIP3    H247521   4.787   5.295   6.357 -0.0177 -0.3995 -0.9277
 7776TIP3   OH247522   2.029   5.112   6.223 -0.2822 -0.3514  1.0674
 7776TIP3    H147523   1.966   5.181   6.243 -0.7327 -0.8606  1.4301
 7776TIP3    H247524   2.097   5.155   6.171 -0.2317  0.5116  1.8371
 7777TIP3   OH247525   4.271   2.323   7.394  0.2607  0.4410 -0.6167
 7777TIP3    H147526   4.205   2.376   7.349  1.3116  3.0093  0.6642
 7777TIP3    H247527   4.263   2.347   7.486 -0.6416 -3.3568  0.4684
 7778TIP3   OH247528   2.003   0.298   9.050 -0.2827  0.6794 -0.6206
 7778TIP3    H147529   2.000   0.394   9.047  0.0732  0.7310  0.3555
 7778TIP3    H247530   1.911   0.272   9.053 -0.3706  1.0692  0.6852
 7779TIP3   OH247531   4.851   6.240   9.262 -0.1533  0.4524  0.0635
 7779TIP3    H147532   4.905   6.219   9.185  2.0466  0.9436  1.3757
 7779TIP3    H247533   4.915   6.262   9.330 -1.9948 -0.4625  2.2015
 7780TIP3   OH247534   1.125   2.026   5.881 -0.0019 -0.0963 -0.0632
 7780TIP3    H147535   1.159   2.090   5.818 -1.4940 -1.0795 -1.9698
 7780TIP3    H247536   1.192   1.957   5.883 -0.9711 -1.2483 -2.5764
 7781TIP3   OH247537   2.103   6.168   6.272  0.2124  0.0793  0.2893
 7781TIP3    H147538   2.067   6.257   6.262 -3.4178 -1.0299  1.9516
 7781TIP3    H247539   2.155   6.155   6.193 -3.5629  1.7981 -2.8066
 7782TIP3   OH247540   2.899   0.967   6.531 -0.1462  0.4831 -0.0366
 7782TIP3    H147541   2.958   0.963   6.606 -0.6581 -1.2670  0.3277
 7782TIP3    H247542   2.927   0.895   6.475 -1.0923  0.4520 -0.4970
 7783TIP3   OH247543   0.082   2.635   8.139 -0.3950  0.0284  0.3223
 7783TIP3    H147544   0.063   2.689   8.216 -0.8509  2.0031 -1.0918
 7783TIP3    H247545   0.089   2.698   8.067  0.1224 -1.7392 -1.2396
 7784TIP3   OH247546   3.505   2.149   7.934 -0.2948 -0.0111 -0.0745
 7784TIP3    H147547   3.571   2.157   8.003  0.6954 -0.5353 -0.9365
 7784TIP3    H247548   3.495   2.238   7.900 -0.5941  0.2025  0.5542
 7785TIP3   OH247549   3.373   3.196   8.670 -0.1677 -0.3590  0.5333
 7785TIP3    H147550   3.286   3.235   8.681  1.0559  2.6848  0.6560
 7785TIP3    H247551   3.361   3.104   8.690 -4.0951 -0.9206 -2.9786
 7786TIP3   OH247552   5.772   3.614   7.084 -0.7076  0.2869 -0.1522
 7786TIP3    H147553   5.693   3.656   7.049 -1.1745 -2.0987 -2.2791
 7786TIP3    H247554   5.751   3.520   7.083  2.6318 -0.5825 -2.2880
 7787TIP3   OH247555   0.926   2.327   8.040 -0.4505  0.1275  0.4571
 7787TIP3    H147556   0.851   2.384   8.028  0.9291  1.7083 -1.1379
 7787TIP3    H247557   0.903   2.273   8.117 -2.5884  1.4845  0.8505
 7788TIP3   OH247558   2.610   4.862   8.415  0.1953  0.1668 -0.1946
 7788TIP3    H147559   2.571   4.949   8.405  1.7941  0.9443 -0.0273
 7788TIP3    H247560   2.608   4.825   8.327  0.0883  0.6410 -0.3978
 7789TIP3   OH247561   5.543   3.557   8.423 -0.8502  0.3882  0.3517
 7789TIP3    H147562   5.599   3.598   8.490  1.2961 -0.2850 -0.9091
 7789TIP3    H247563   5.568   3.464   8.425 -1.3324  0.2145 -0.8097
 7790TIP3   OH247564   0.256   1.322   6.771 -0.6941 -0.2511  0.2889
 7790TIP3    H147565   0.333   1.378   6.782 -0.1858 -1.0528  0.9131
 7790TIP3    H247566   0.249   1.309   6.676 -1.8256  2.2098 -0.0498
 7791TIP3   OH247567   5.506   5.791   7.274 -0.2188  0.3461 -0.2257
 7791TIP3    H147568   5.567   5.729   7.234  0.1766 -0.5702  1.7018
 7791TIP3    H247569   5.432   5.737   7.302 -0.5135  0.9712  0.2182
 7792TIP3   OH247570   1.922   1.650   7.631 -0.0153  0.3483 -0.1529
 7792TIP3    H147571   1.932   1.679   7.721  2.4555 -1.2673  0.2060
 7792TIP3    H247572   1.987   1.700   7.582  1.0712 -1.1865 -0.3480
 7793TIP3   OH247573   3.501   5.978   6.040  0.2225 -0.0269 -0.0104
 7793TIP3    H147574   3.551   5.977   5.959  0.1663 -0.2811 -0.0457
 7793TIP3    H247575   3.549   6.037   6.098 -0.5539  1.3255 -0.7262
 7794TIP3   OH247576   2.800   1.138   6.752  0.0656 -0.0936  0.0042
 7794TIP3    H147577   2.715   1.181   6.756  0.4987  0.9479 -1.1829
 7794TIP3    H247578   2.795   1.081   6.676  0.0027 -1.0249  0.6969
 7795TIP3   OH247579   3.735   5.772   5.693  0.2403  0.2071 -0.1097
 7795TIP3    H147580   3.827   5.792   5.676 -0.0425  0.0079 -2.0866
 7795TIP3    H247581   3.725   5.680   5.666 -0.5276  0.2037  0.1561
 7796TIP3   OH247582   4.742   1.498   6.952  0.1023  0.7617  0.4070
 7796TIP3    H147583   4.801   1.429   6.983  0.1792  0.9349  0.6579
 7796TIP3    H247584   4.726   1.478   6.860  4.6664  3.4695 -1.3436
 7797TIP3   OH247585   2.181   6.250   7.241  0.1676 -0.0579  0.4828
 7797TIP3    H147586   2.204   6.317   7.305  1.1856  0.9540 -0.8881
 7797TIP3    H247587   2.146   6.177   7.293  2.7213 -0.0530  2.3608
 7798TIP3   OH247588   4.455   5.132   6.071  0.0843  0.0883  0.1008
 7798TIP3    H147589   4.547   5.137   6.098  0.4934  0.6450 -1.2909
 7798TIP3    H247590   4.405   5.155   6.149  1.1369  0.1052  0.7874
 7799TIP3   OH247591   3.991   1.184   5.913  0.1246  0.1098 -0.9494
 7799TIP3    H147592   3.978   1.263   5.967 -2.3118 -1.3880  0.8787
 7799TIP3    H247593   4.070   1.144   5.948 -0.6490 -0.1030  0.6371
 7800TIP3   OH247594   4.008   4.605  10.114  0.7585 -0.0516 -0.0245
 7800TIP3    H147595   3.965   4.671  10.060 -0.1692  0.6234  1.4820
 7800TIP3    H247596   4.100   4.607  10.086  0.4436  0.7786 -1.0472
 7801TIP3   OH247597   4.198   2.115   7.224 -0.5956  0.0700 -0.1069
 7801TIP3    H147598   4.177   2.053   7.294 -0.6690  0.2852  0.0676
 7801TIP3    H247599   4.234   2.191   7.270 -2.0793  0.8466 -0.1442
 7802TIP3   OH247600   2.616   5.694   8.034  0.1824  0.3281  0.3406
 7802TIP3    H147601   2.688   5.658   8.085  0.4365 -0.7631 -0.7324
 7802TIP3    H247602   2.657   5.759   7.976  0.1663  0.3225  0.3232
 7803TIP3   OH247603   4.615   4.009   5.822  0.4825  0.8879 -0.2404
 7803TIP3    H147604   4.594   4.090   5.776 -1.6705  0.8677  0.5958
 7803TIP3    H247605   4.639   3.947   5.752 -2.2944  0.9657 -1.3804
 7804TIP3   OH247606   2.154   2.164   6.124 -0.0072 -0.2369 -0.0688
 7804TIP3    H147607   2.191   2.242   6.082 -1.6550  0.2654 -0.6470
 7804TIP3    H247608   2.083   2.137   6.066 -0.3212 -1.3869  0.8193
 7805TIP3   OH247609   0.997   6.094   6.683 -0.1030  0.2559  0.1753
 7805TIP3    H147610   1.041   6.177   6.699  0.2785  0.4153 -1.5147
 7805TIP3    H247611   1.055   6.028   6.720  0.6241  0.6047 -0.3258
 7806TIP3   OH247612   5.485   0.136   9.355  0.0481  0.0357  1.0519
 7806TIP3    H147613   5.539   0.101   9.284 -0.4771  0.4698  0.4250
 7806TIP3    H247614   5.540   0.203   9.396 -0.3138  1.1212 -0.1610
 7807TIP3   OH247615   3.545   1.861   8.245  0.3762 -0.2436  0.1972
 7807TIP3    H147616   3.484   1.797   8.280 -2.1740  0.8797 -1.8260
 7807TIP3    H247617   3.591   1.815   8.175 -2.1147  0.2136 -1.8823
 7808TIP3   OH247618   2.963   2.924   7.652 -0.0707  0.0718  0.1501
 7808TIP3    H147619   3.053   2.945   7.674 -0.1972 -0.0338  0.7971
 7808TIP3    H247620   2.916   2.928   7.736 -0.6198 -0.0928 -0.1418
 7809TIP3   OH247621   6.655   1.992   8.689 -0.4973  0.2784 -0.2597
 7809TIP3    H147622   6.621   2.079   8.712 -0.6248  0.6270 -1.6985
 7809TIP3    H247623   6.721   1.975   8.756  0.1728  1.8895 -0.4488
 7810TIP3   OH247624   3.646   1.849   5.535 -0.3321  0.2216 -0.1366
 7810TIP3    H147625   3.659   1.831   5.628  1.1098  0.6822 -0.2324
 7810TIP3    H247626   3.618   1.941   5.532  0.1080  0.3557 -0.1858
 7811TIP3   OH247627   2.132   4.775   7.476  0.4917  0.1773 -0.2929
 7811TIP3    H147628   2.054   4.768   7.421  0.3463  0.8336 -0.1775
 7811TIP3    H247629   2.129   4.864   7.511 -0.0435 -0.5715  1.7242
 7812TIP3   OH247630   1.744   3.823   5.722  0.0669  0.6657  0.5138
 7812TIP3    H147631   1.742   3.874   5.803 -1.0126  0.4376  0.6434
 7812TIP3    H247632   1.701   3.879   5.657  0.3884  0.6027  0.2467
 7813TIP3   OH247633   1.068   4.679   9.239  0.9193  0.0790  0.2778
 7813TIP3    H147634   1.042   4.760   9.194  3.7572  0.9251 -0.0756
 7813TIP3    H247635   1.067   4.612   9.171 -0.3815  0.0449  0.3169
 7814TIP3   OH247636   2.908   3.561   7.721  0.1058  0.4585  0.2890
 7814TIP3    H147637   2.920   3.616   7.799 -0.1227  1.4416 -0.3471
 7814TIP3    H247638   2.988   3.509   7.716 -0.0288  0.1155  1.3713
 7815TIP3   OH247639   5.004   1.094   6.711  0.1741  0.9533  0.5021
 7815TIP3    H147640   5.036   1.141   6.788  3.0436  0.0189 -0.0109
 7815TIP3    H247641   5.021   1.002   6.729  1.7806  0.7736 -1.5431
 7816TIP3   OH247642   0.371   0.390   7.611 -0.0106  0.1038 -0.1063
 7816TIP3    H147643   0.320   0.310   7.599  0.3595 -0.0695 -0.5466
 7816TIP3    H247644   0.363   0.410   7.705 -1.3822  0.4218 -0.2722
 7817TIP3   OH247645   0.295   0.797   7.360  0.6856 -0.7950  0.0263
 7817TIP3    H147646   0.268   0.843   7.439  1.1456  0.3503 -0.4426
 7817TIP3    H247647   0.344   0.722   7.391  2.7374  0.7948  0.8760
 7818TIP3   OH247648   0.929   2.035   6.770  0.1297  0.2482  0.1637
 7818TIP3    H147649   0.942   1.951   6.814  2.4208  1.2892  1.6579
 7818TIP3    H247650   1.005   2.046   6.713 -0.4838  1.0168 -0.5466
 7819TIP3   OH247651   3.568   6.189   7.181  0.1173 -0.2633  0.1198
 7819TIP3    H147652   3.610   6.269   7.150 -1.5767 -0.0983 -2.0548
 7819TIP3    H247653   3.499   6.218   7.240 -2.9219  0.4294 -3.3767
 7820TIP3   OH247654   4.080   1.668   8.291  0.0822  0.0445  0.2139
 7820TIP3    H147655   4.000   1.721   8.290 -0.4945 -0.8097  0.7332
 7820TIP3    H247656   4.077   1.621   8.374 -0.0134 -1.7094 -0.7324
 7821TIP3   OH247657   3.268   3.208   6.093 -0.7928 -0.0309 -0.4636
 7821TIP3    H147658   3.267   3.116   6.065 -1.6216 -0.4170  0.7431
 7821TIP3    H247659   3.220   3.208   6.175  2.7216  0.7907  1.8167
 7822TIP3   OH247660   5.414   5.127   5.773  0.4806 -0.1487  0.1195
 7822TIP3    H147661   5.384   5.037   5.757 -0.1410  0.1600 -0.4523
 7822TIP3    H247662   5.344   5.182   5.740  1.5340  0.5771 -0.9558
 7823TIP3   OH247663   1.622   0.125   6.558 -0.0170 -0.4217  0.2728
 7823TIP3    H147664   1.702   0.088   6.595  0.9168 -1.3408 -2.4531
 7823TIP3    H247665   1.612   0.210   6.602  3.7457  0.7818 -0.8733
 7824TIP3   OH247666   5.691   5.544   6.909 -0.3430  0.4112  0.0354
 7824TIP3    H147667   5.696   5.504   6.822 -0.2764 -1.2058  0.7463
 7824TIP3    H247668   5.681   5.637   6.892 -0.3226  0.1274 -1.7058
 7825TIP3   OH247669   0.087   3.535   8.251 -0.0678 -0.1841  0.6352
 7825TIP3    H147670   0.032   3.608   8.223  0.9651  1.3780  2.4578
 7825TIP3    H247671   0.062   3.518   8.342  1.3622 -0.4582  1.0181
 7826TIP3   OH247672   4.432   0.930   8.664  0.3366 -0.3745  0.0450
 7826TIP3    H147673   4.382   0.957   8.588 -0.8710  0.2940  1.0411
 7826TIP3    H247674   4.458   1.011   8.707  0.5762 -0.7414  0.6172
 7827TIP3   OH247675   5.991   1.525   8.052 -0.5568  0.7653 -0.1339
 7827TIP3    H147676   6.000   1.542   8.145  0.1443  1.2243 -0.2775
 7827TIP3    H247677   6.043   1.447   8.036 -2.7190 -0.8518  0.2893
 7828TIP3   OH247678   2.888   3.953   6.769 -0.1409 -0.3448 -0.0648
 7828TIP3    H147679   2.812   4.010   6.758 -0.0590 -0.5273 -1.8895
 7828TIP3    H247680   2.854   3.874   6.810 -0.8128 -0.1524 -0.2431
 7829TIP3   OH247681   5.596   3.793   6.679 -0.2703  0.0341 -1.0767
 7829TIP3    H147682   5.657   3.851   6.725 -1.1309  0.6720 -0.7004
 7829TIP3    H247683   5.553   3.744   6.749 -0.4429 -0.1510 -1.3144
 7830TIP3   OH247684   2.434   5.298   7.035 -0.5560  0.5948  0.3737
 7830TIP3    H147685   2.364   5.251   7.080 -1.3027  0.8671 -0.4784
 7830TIP3    H247686   2.390   5.368   6.987  0.1342  0.0278 -1.1672
 7831TIP3   OH247687   2.193   0.086   8.388  0.3081 -0.4114 -0.3166
 7831TIP3    H147688   2.137   0.059   8.461  1.1404 -2.6735 -0.4610
 7831TIP3    H247689   2.278   0.104   8.428  0.6026 -1.0783 -0.6213
 7832TIP3   OH247690   4.861   2.582   6.850  0.2434 -0.9111  0.4099
 7832TIP3    H147691   4.884   2.548   6.937 -0.6145 -3.9236 -0.4203
 7832TIP3    H247692   4.773   2.618   6.860  1.1076  1.0926  1.2811
 7833TIP3   OH247693   5.754   3.369   8.848 -0.0710 -0.1414 -0.0166
 7833TIP3    H147694   5.775   3.459   8.824  0.8773 -0.4699 -0.4996
 7833TIP3    H247695   5.838   3.331   8.872 -0.5231 -0.7835  0.5826
 7834TIP3   OH247696   2.808   1.889   6.129  0.4244 -0.0162 -0.1262
 7834TIP3    H147697   2.796   1.802   6.166  0.1901 -0.3307 -0.9201
 7834TIP3    H247698   2.901   1.894   6.107  0.3398 -0.2545 -0.5406
 7835TIP3   OH247699   1.168   5.834   6.672  0.3241 -0.3787  0.1080
 7835TIP3    H147700   1.204   5.843   6.584  1.2977 -1.3245  0.3920
 7835TIP3    H247701   1.235   5.872   6.729  0.2078 -0.7936  0.5240
 7836TIP3   OH247702   4.696   4.865   8.498  0.6083  0.4831  0.3983
 7836TIP3    H147703   4.776   4.911   8.471  1.2571 -0.7224  0.2221
 7836TIP3    H247704   4.641   4.864   8.420  1.0943 -0.0818  0.0559
 7837TIP3   OH247705   4.980   3.373   7.190 -0.4391  0.5255  0.3864
 7837TIP3    H147706   4.907   3.435   7.196 -0.1753  0.9605 -0.6181
 7837TIP3    H247707   4.995   3.345   7.280 -0.0361  2.5679  1.0135
 7838TIP3   OH247708   5.911   2.506   7.505  0.1652  0.0727 -0.1019
 7838TIP3    H147709   5.931   2.427   7.556 -1.5166  0.1442  0.7455
 7838TIP3    H247710   5.852   2.556   7.561  1.9908  2.4994 -0.1560
 7839TIP3   OH247711   5.412   4.223   8.590 -0.1423 -0.0482  0.4328
 7839TIP3    H147712   5.405   4.284   8.516 -1.2660  0.3366  0.8209
 7839TIP3    H247713   5.505   4.203   8.597 -0.0967 -0.8572 -1.6889
 7840TIP3   OH247714   1.648   0.520   6.249  0.4984  0.1880 -0.2261
 7840TIP3    H147715   1.627   0.497   6.339 -1.7966 -1.4608 -1.0971
 7840TIP3    H247716   1.617   0.611   6.240 -1.3654 -0.3670  0.0891
 7841TIP3   OH247717   3.287   0.172   6.525  0.0298 -0.3130 -0.3253
 7841TIP3    H147718   3.335   0.109   6.472 -0.7087 -0.6106 -0.6660
 7841TIP3    H247719   3.215   0.201   6.468 -2.8871 -3.1830  1.5335
 7842TIP3   OH247720   6.193   6.572   6.225 -0.4962  0.3725 -0.3691
 7842TIP3    H147721   6.242   6.513   6.281 -0.3706  0.2869 -0.5712
 7842TIP3    H247722   6.254   6.595   6.155 -0.7258  0.3056 -0.5916
 7843TIP3   OH247723   5.372   5.143   6.529 -0.2482 -0.2841 -0.3040
 7843TIP3    H147724   5.337   5.231   6.544 -1.5371 -0.8119 -0.0731
 7843TIP3    H247725   5.384   5.138   6.434  0.0026  0.2094 -0.2988
 7844TIP3   OH247726   0.785   4.601   8.466  0.3581  0.0974 -0.0470
 7844TIP3    H147727   0.773   4.517   8.422 -0.9079  0.1284  0.2039
 7844TIP3    H247728   0.734   4.593   8.546  0.5233  0.9806  0.1499
 7845TIP3   OH247729   4.428   0.758   5.855 -0.1046  0.2603 -0.4766
 7845TIP3    H147730   4.470   0.822   5.911  0.3835 -0.3110 -0.1774
 7845TIP3    H247731   4.385   0.810   5.786 -2.1120  1.1064  1.2972
 7846TIP3   OH247732   4.673   2.867   6.426  0.6523 -0.1359  0.3309
 7846TIP3    H147733   4.634   2.928   6.364  0.1860  0.3518  1.0889
 7846TIP3    H247734   4.624   2.880   6.507 -0.8375 -2.9556 -0.0113
 7847TIP3   OH247735   4.806   0.909   6.167 -0.7717  0.1521  0.6724
 7847TIP3    H147736   4.853   0.847   6.224  1.0229 -0.6751 -1.5635
 7847TIP3    H247737   4.786   0.983   6.225  1.7414 -0.2478  2.2358
 7848TIP3   OH247738   1.863   3.536   5.699  0.3034 -0.3628  0.2981
 7848TIP3    H147739   1.876   3.466   5.636 -0.6171 -0.3942  0.1351
 7848TIP3    H247740   1.949   3.548   5.739  0.5434 -1.3880  0.1263
 7849TIP3   OH247741   4.377   4.757   8.475  0.1061  0.2300  0.3135
 7849TIP3    H147742   4.385   4.718   8.388  0.7930  1.8985 -0.4241
 7849TIP3    H247743   4.308   4.706   8.518  0.4454 -1.2662 -0.8373
 7850TIP3   OH247744   1.637   0.756   7.920 -0.5652 -0.0342  0.0384
 7850TIP3    H147745   1.677   0.670   7.904 -2.3066 -0.9563  0.3128
 7850TIP3    H247746   1.625   0.759   8.015 -1.6024 -0.0437 -0.0719
 7851TIP3   OH247747   5.219   3.809   8.628 -0.7349 -0.5583 -0.5925
 7851TIP3    H147748   5.163   3.884   8.607 -1.4385 -0.9222 -0.0054
 7851TIP3    H247749   5.206   3.748   8.556 -1.1453 -0.6755 -0.4161
 7852TIP3   OH247750   2.190   3.843   9.185  0.8518  0.1411 -0.3724
 7852TIP3    H147751   2.267   3.885   9.225  2.6724 -1.9599 -1.4076
 7852TIP3    H247752   2.196   3.866   9.093  0.2621 -0.0662 -0.4638
 7853TIP3   OH247753   0.801   4.644   9.027  0.6524 -0.0564  0.9525
 7853TIP3    H147754   0.837   4.724   9.066 -0.0191 -0.5581  2.6619
 7853TIP3    H247755   0.869   4.578   9.039  0.9446  0.0732  0.1152
 7854TIP3   OH247756   0.107   5.913   8.771 -0.5841 -0.3455  0.5120
 7854TIP3    H147757   0.142   5.979   8.711  2.3347 -2.4092 -0.2691
 7854TIP3    H247758   0.023   5.888   8.733  0.1316  0.0613 -1.4411
 7855TIP3   OH247759   1.074   5.168   8.618 -0.2243  0.0888 -0.2576
 7855TIP3    H147760   1.009   5.106   8.651 -1.5454  2.6099  2.3982
 7855TIP3    H247761   1.158   5.126   8.634 -1.0496 -2.1522 -1.3177
 7856TIP3   OH247762   1.570   4.935   7.842 -0.7571 -0.9036 -0.2625
 7856TIP3    H147763   1.524   4.983   7.910  0.2912 -1.7404  1.1005
 7856TIP3    H247764   1.515   4.859   7.824 -1.2646 -0.4374 -0.7098
 7857TIP3   OH247765   0.791   0.483   7.905  0.0604 -0.3052 -0.3708
 7857TIP3    H147766   0.809   0.537   7.828  0.9602 -1.0707 -0.7185
 7857TIP3    H247767   0.696   0.480   7.911 -0.0311 -0.6437 -1.7604
 7858TIP3   OH247768   0.611   3.770   7.545 -0.0719 -0.2997  0.2101
 7858TIP3    H147769   0.590   3.863   7.534 -0.4560 -0.2439  1.3387
 7858TIP3    H247770   0.586   3.750   7.635  1.6129 -1.0730  0.5532
 7859TIP3   OH247771   5.976   4.018   6.671 -0.4522  0.4543  0.6121
 7859TIP3    H147772   5.962   3.994   6.763 -1.8589  0.1686  0.3482
 7859TIP3    H247773   5.935   3.947   6.622  0.2494  0.6338 -0.2389
 7860TIP3   OH247774   3.134   5.916   8.175 -0.1723  0.0147 -0.5425
 7860TIP3    H147775   3.097   6.001   8.201 -1.5970 -0.3486 -1.2894
 7860TIP3    H247776   3.135   5.865   8.256  1.3695  0.9429  0.0725
 7861TIP3   OH247777   5.798   0.343   7.187 -0.1967  0.5210 -0.9763
 7861TIP3    H147778   5.842   0.259   7.173 -1.0152  0.0466 -0.7855
 7861TIP3    H247779   5.752   0.360   7.105  1.6609  1.8588 -1.8055
 7862TIP3   OH247780   0.499   1.201   8.075 -0.3043 -0.2338 -0.6102
 7862TIP3    H147781   0.473   1.215   8.166  1.4828  2.1393 -0.3888
 7862TIP3    H247782   0.472   1.281   8.030  2.2143  0.2871 -1.3252
 7863TIP3   OH247783   4.861   3.784   6.769 -0.6032  0.1380  0.2425
 7863TIP3    H147784   4.915   3.845   6.718  0.1629 -0.2505  0.5778
 7863TIP3    H247785   4.807   3.740   6.703 -2.6138  2.5252  0.1480
 7864TIP3   OH247786   4.602   5.876   7.644 -0.0546 -0.3584  0.0056
 7864TIP3    H147787   4.690   5.840   7.628 -0.3755 -0.5352 -1.5308
 7864TIP3    H247788   4.554   5.804   7.685 -0.1066 -1.0492 -1.2070
 7865TIP3   OH247789   1.065   5.971   7.940  0.3213 -0.1651 -0.0676
 7865TIP3    H147790   1.092   5.903   8.001  2.8578  2.0143  1.4870
 7865TIP3    H247791   0.984   6.006   7.976  1.4392  0.6401  1.8131
 7866TIP3   OH247792   1.831   5.662   6.862 -0.1139 -0.1255  0.0813
 7866TIP3    H147793   1.814   5.740   6.914  1.9333 -0.3873  1.2555
 7866TIP3    H247794   1.751   5.650   6.810 -1.4637  1.3010  1.6893
 7867TIP3   OH247795   4.605   0.902   7.627 -0.1318  0.2153  0.3614
 7867TIP3    H147796   4.540   0.842   7.591  0.8098  0.0858 -1.2193
 7867TIP3    H247797   4.679   0.846   7.651 -0.3070  0.4421  1.4950
 7868TIP3   OH247798   3.090   3.323   6.618  0.0443 -0.0423  0.6673
 7868TIP3    H147799   3.007   3.324   6.666 -0.6835  1.5682 -0.5185
 7868TIP3    H247800   3.142   3.392   6.659  1.5284 -2.0564  2.4490
 7869TIP3   OH247801   3.920   5.222   6.131  0.6015  0.3700  0.1573
 7869TIP3    H147802   3.857   5.258   6.069  0.9029 -0.6609 -0.7694
 7869TIP3    H247803   3.989   5.288   6.136  0.3063  0.7083 -0.1655
 7870TIP3   OH247804   6.730   0.742   8.615 -0.6622  0.1403 -0.3332
 7870TIP3    H147805   6.772   0.825   8.638 -0.4538  0.1348 -0.6859
 7870TIP3    H247806   6.741   0.687   8.693 -0.8398  0.4568 -0.0805
 7871TIP3   OH247807   1.250   3.199   6.047 -0.6410 -0.6641  0.3683
 7871TIP3    H147808   1.218   3.181   6.136 -1.2303  2.0522  0.8054
 7871TIP3    H247809   1.288   3.116   6.018 -2.5618 -2.3252  2.2175
 7872TIP3   OH247810   4.793   6.614   8.832  0.0938 -0.0682 -0.0612
 7872TIP3    H147811   4.795   6.577   8.921  0.8433 -2.1149 -0.8772
 7872TIP3    H247812   4.832   6.547   8.777  1.8303  2.0937 -1.6531
 7873TIP3   OH247813   3.565   4.757   7.101 -0.2195  0.0158 -0.0649
 7873TIP3    H147814   3.609   4.689   7.050 -2.1178 -0.2179 -1.5161
 7873TIP3    H247815   3.496   4.710   7.149 -0.7050  0.7248 -0.0476
 7874TIP3   OH247816   0.435   4.051   5.847 -0.0519 -0.3221 -0.4672
 7874TIP3    H147817   0.438   3.957   5.826 -1.1306 -0.2509 -1.0104
 7874TIP3    H247818   0.486   4.092   5.776 -3.2435 -0.1339 -2.8614
 7875TIP3   OH247819   2.301   6.731   7.038 -0.2718  0.0448  0.2230
 7875TIP3    H147820   2.272   6.642   7.017  0.2126 -0.1792  0.4916
 7875TIP3    H247821   2.379   6.744   6.984 -0.0092  0.0979  0.6158
 7876TIP3   OH247822   1.080   2.520   6.875  0.0038  0.0036 -0.3495
 7876TIP3    H147823   1.123   2.594   6.918  0.5824 -0.5083 -0.0398
 7876TIP3    H247824   0.988   2.530   6.896  0.3440 -0.6092  1.5950
 7877TIP3   OH247825   1.180   4.641   7.564  0.4368  0.0187 -0.1924
 7877TIP3    H147826   1.099   4.601   7.531  0.6303 -0.0691 -0.5640
 7877TIP3    H247827   1.154   4.682   7.647 -0.6234  2.3146 -1.5529
 7878TIP3   OH247828   3.433   5.521   6.380 -0.1926  0.6126 -0.1291
 7878TIP3    H147829   3.509   5.560   6.422 -0.7920 -0.2226  1.8577
 7878TIP3    H247830   3.358   5.566   6.419 -0.7716  0.3600 -0.9159
 7879TIP3   OH247831   2.852   3.076   6.201  0.3040 -0.6972  0.3607
 7879TIP3    H147832   2.814   3.146   6.148  1.3388 -0.6020 -0.3046
 7879TIP3    H247833   2.852   3.110   6.290  2.0678  0.7831 -0.1265
 7880TIP3   OH247834   1.978   1.131   5.838  0.2024 -0.0616 -0.1785
 7880TIP3    H147835   2.000   1.216   5.800  0.1230 -0.7980 -1.9815
 7880TIP3    H247836   2.062   1.087   5.848  0.3250  0.5255  1.5692
 7881TIP3   OH247837   3.610   2.808   6.616  0.4421 -0.8037  0.2755
 7881TIP3    H147838   3.696   2.840   6.590  0.0663 -0.0401 -0.0582
 7881TIP3    H247839   3.583   2.751   6.544  0.2410 -0.2456 -0.0936
 7882TIP3   OH247840   4.799   3.964   8.132 -0.3960  0.3419 -0.3847
 7882TIP3    H147841   4.855   3.976   8.055 -1.1465  0.0727 -0.9848
 7882TIP3    H247842   4.805   3.870   8.151 -0.9092  0.2497 -0.6629
 7883TIP3   OH247843   2.266   2.741   7.252 -0.5696  0.0820 -0.1804
 7883TIP3    H147844   2.214   2.812   7.289  0.4552 -0.2386  2.0843
 7883TIP3    H247845   2.230   2.662   7.292 -0.0238 -0.3921 -0.6161
 7884TIP3   OH247846   0.907   6.472   7.269 -0.3817  0.5863 -0.6713
 7884TIP3    H147847   0.954   6.499   7.189 -0.4619 -0.5500 -1.1267
 7884TIP3    H247848   0.871   6.553   7.304 -1.2405  0.9829 -2.3709
 7885TIP3   OH247849   1.802   5.823   6.118  0.1465 -0.2690 -0.3551
 7885TIP3    H147850   1.874   5.781   6.071  0.4686  1.3208 -1.3799
 7885TIP3    H247851   1.846   5.883   6.178 -0.3061  0.3282 -0.6133
 7886TIP3   OH247852   3.175   4.267   7.360 -0.4171  0.1195 -0.6228
 7886TIP3    H147853   3.213   4.179   7.352  1.4394  0.9514 -1.5038
 7886TIP3    H247854   3.248   4.326   7.341 -1.7846  1.8499 -0.6914
 7887TIP3   OH247855   1.809   4.912   9.455  0.2667 -0.9341  0.1661
 7887TIP3    H147856   1.796   4.840   9.393 -2.9657  0.0640 -0.5186
 7887TIP3    H247857   1.721   4.933   9.486  1.1485  2.2589  0.8914
 7888TIP3   OH247858   0.780   2.650   5.987 -0.2969  0.0678 -0.1467
 7888TIP3    H147859   0.778   2.596   5.907  1.4556  0.7861 -0.7348
 7888TIP3    H247860   0.823   2.731   5.960  0.7483  0.1541  1.6176
 7889TIP3   OH247861   0.127   6.508   7.495  0.0915  0.6125 -0.5847
 7889TIP3    H147862   0.151   6.416   7.482  3.3289  1.2179  0.0985
 7889TIP3    H247863   0.038   6.515   7.460 -0.9944 -3.1093  0.8491
 7890TIP3   OH247864   2.703   0.248   6.731  0.5151  0.2933  0.0847
 7890TIP3    H147865   2.663   0.181   6.676  1.4471 -0.9123  0.8157
 7890TIP3    H247866   2.791   0.260   6.695  1.2646 -0.7651  1.4705
 7891TIP3   OH247867   0.100   5.761   7.735  0.4854 -0.1817  0.4809
 7891TIP3    H147868   0.034   5.831   7.739  1.1868  0.5810 -0.6079
 7891TIP3    H247869   0.052   5.684   7.705  0.2283  0.5902 -1.1907
 7892TIP3   OH247870   3.694   1.471   7.386  0.5489 -0.0612  0.0957
 7892TIP3    H147871   3.641   1.548   7.405  0.2586 -0.4241  0.7591
 7892TIP3    H247872   3.633   1.398   7.389  1.2705 -0.6380  2.0991
 7893TIP3   OH247873   1.598   5.400   6.694  0.2515 -0.6338  0.0760
 7893TIP3    H147874   1.627   5.376   6.606 -0.8987  0.7680 -0.7299
 7893TIP3    H247875   1.560   5.487   6.684 -3.1161 -1.7885  1.1962
 7894TIP3   OH247876   4.325   4.360   5.755 -0.3597 -0.0415 -0.1649
 7894TIP3    H147877   4.231   4.376   5.743 -0.5017 -0.6983  0.0230
 7894TIP3    H247878   4.367   4.408   5.684 -0.8279  0.3957 -0.1509
 7895TIP3   OH247879   5.300   1.763   6.113 -0.2709  0.2643  0.1625
 7895TIP3    H147880   5.266   1.848   6.139 -0.6197  0.3174 -0.4611
 7895TIP3    H247881   5.227   1.719   6.069 -0.8586 -1.2972  2.5077
 7896TIP3   OH247882   5.552   6.572   6.600 -0.1041 -0.1426 -0.2253
 7896TIP3    H147883   5.547   6.477   6.586 -1.6724 -0.6579  2.9014
 7896TIP3    H247884   5.504   6.609   6.526 -1.8869 -2.0119 -0.1107
 7897TIP3   OH247885   1.075   0.777   9.050 -0.3063 -0.0844  0.2987
 7897TIP3    H147886   1.001   0.759   8.991 -1.7730 -0.0762  2.0669
 7897TIP3    H247887   1.150   0.786   8.991 -1.8657  0.9236 -1.6640
 7898TIP3   OH247888   1.665   1.072   7.458 -0.4187 -0.5350  0.4117
 7898TIP3    H147889   1.749   1.026   7.454  0.7327  1.4908  0.3866
 7898TIP3    H247890   1.634   1.057   7.547  1.4214  1.0894  1.3935
 7899TIP3   OH247891   1.869   6.099   7.709  0.2475  0.4241 -0.6945
 7899TIP3    H147892   1.896   6.031   7.770  0.0795  0.4941 -0.5414
 7899TIP3    H247893   1.944   6.159   7.704 -0.6309  1.8419  1.4262
 7900TIP3   OH247894   0.682   3.225   5.687 -0.2748 -0.1359  0.2538
 7900TIP3    H147895   0.685   3.312   5.728  0.7188 -0.0759  0.0785
 7900TIP3    H247896   0.615   3.232   5.620 -0.5824  0.3347  0.6065
 7901TIP3   OH247897   4.932   2.501   6.216 -0.0907 -0.6391 -0.1997
 7901TIP3    H147898   4.867   2.556   6.259 -0.7665 -1.8666  0.4178
 7901TIP3    H247899   5.005   2.560   6.197 -1.0433  0.5961 -0.1846
 7902TIP3   OH247900   5.279   2.718   8.243  0.4830  0.2983 -0.1488
 7902TIP3    H147901   5.356   2.743   8.294 -0.4718 -0.2567  1.6566
 7902TIP3    H247902   5.205   2.758   8.289 -0.2627  1.8374 -2.5121
 7903TIP3   OH247903   0.053   4.047   8.864  0.2032 -0.1078 -0.5827
 7903TIP3    H147904   0.145   4.027   8.883  0.0329  0.3466  0.7776
 7903TIP3    H247905   0.057   4.123   8.806  0.6800  0.9540  0.7777
 7904TIP3   OH247906   4.656   2.335   6.990  0.1259  0.1629  0.3579
 7904TIP3    H147907   4.637   2.327   6.896  1.6698 -0.0789  0.0522
 7904TIP3    H247908   4.597   2.272   7.031 -1.9053  1.5575 -0.2365
 7905TIP3   OH247909   3.661   2.536   6.925 -0.1106 -0.2015 -0.6325
 7905TIP3    H147910   3.603   2.533   7.000  0.3708 -2.4571 -0.2649
 7905TIP3    H247911   3.733   2.593   6.951 -1.3289  1.3119 -0.4906
 7906TIP3   OH247912   0.663   4.144   5.685  0.2079  0.1429  0.6008
 7906TIP3    H147913   0.631   4.232   5.704 -0.5515  0.0396 -0.1285
 7906TIP3    H247914   0.710   4.153   5.602 -0.8815 -0.3429 -0.0911
 7907TIP3   OH247915   2.855   2.783  14.267  0.1322 -0.3372 -0.2462
 7907TIP3    H147916   2.871   2.695  14.232  0.2849 -0.1640 -0.6286
 7907TIP3    H247917   2.852   2.771  14.362 -0.9416 -0.9280 -0.3376
 7908TIP3   OH247918   6.107   6.191   6.331  0.1871 -0.2318  0.6750
 7908TIP3    H147919   6.099   6.222   6.240  0.6663  0.3070  0.8145
 7908TIP3    H247920   6.096   6.096   6.324 -0.3895 -0.1353  0.1318
 7909TIP3   OH247921   2.592   0.779   7.185 -0.3531 -0.1486 -0.2498
 7909TIP3    H147922   2.637   0.705   7.225  1.5430  0.4662 -1.1086
 7909TIP3    H247923   2.629   0.856   7.229 -0.7899  0.3680 -0.7690
 7910TIP3   OH247924   1.941   3.065   6.036 -0.3748 -0.1987  0.7103
 7910TIP3    H147925   1.926   2.983   6.082 -0.8001 -0.5059  0.0442
 7910TIP3    H247926   2.023   3.098   6.072  0.8186 -1.8528 -0.2935
 7911TIP3   OH247927   6.584   1.112   5.694  0.0523 -0.2578 -0.3838
 7911TIP3    H147928   6.494   1.085   5.711 -0.9321  0.6192 -3.5206
 7911TIP3    H247929   6.577   1.203   5.667  1.9328 -0.1235 -0.5504
 7912TIP3   OH247930   2.266   1.385   6.375  0.3618  0.0027  0.4413
 7912TIP3    H147931   2.198   1.362   6.312  0.7902 -0.2024  0.0485
 7912TIP3    H247932   2.242   1.336   6.454  0.0156 -0.0104  0.3299
 7913TIP3   OH247933   4.620   3.825   6.232  0.1786 -0.1557 -1.0612
 7913TIP3    H147934   4.708   3.818   6.270  0.8416  1.2758 -2.2092
 7913TIP3    H247935   4.628   3.782   6.147 -0.1203  0.3337 -1.3360
 7914TIP3   OH247936   3.936   6.107   7.861  0.2641 -0.0301  0.5535
 7914TIP3    H147937   4.027   6.079   7.859  0.2145 -0.3117 -2.3495
 7914TIP3    H247938   3.888   6.037   7.816 -1.2976  0.4132  1.4456
 7915TIP3   OH247939   2.858   3.887   8.857 -0.0078  0.5265  0.0517
 7915TIP3    H147940   2.908   3.889   8.939  0.0299  1.1425  0.0222
 7915TIP3    H247941   2.863   3.796   8.827 -0.8811  0.0637  1.2524
 7916TIP3   OH247942   4.315   3.230   6.193 -0.6046 -0.0597  0.1713
 7916TIP3    H147943   4.284   3.206   6.106 -1.1439 -0.9725  0.6113
 7916TIP3    H247944   4.279   3.317   6.208 -1.5231 -0.3991 -0.0262
 7917TIP3   OH247945   5.231   1.359   8.325 -0.3565 -0.3199 -0.9406
 7917TIP3    H147946   5.312   1.317   8.298 -0.4258 -0.8534 -0.3501
 7917TIP3    H247947   5.255   1.407   8.405 -0.0565  1.5499 -2.0920
 7918TIP3   OH247948   5.192   4.297   6.587  0.1305  0.6363 -0.7203
 7918TIP3    H147949   5.277   4.331   6.559 -0.6000  1.8278 -1.5926
 7918TIP3    H247950   5.209   4.256   6.672  1.5028  1.1522 -0.7239
 7919TIP3   OH247951   2.007   3.824   5.769 -0.3087  0.4614  1.0114
 7919TIP3    H147952   1.917   3.827   5.736  0.4983  1.3169 -1.2078
 7919TIP3    H247953   2.045   3.746   5.728  0.4963  1.1257  0.4687
 7920TIP3   OH247954   6.537   4.349   8.169  0.0019 -0.8651  0.3172
 7920TIP3    H147955   6.573   4.273   8.124 -0.9235 -1.7400  0.9823
 7920TIP3    H247956   6.496   4.312   8.248 -1.3901  0.1819  0.1213
 7921TIP3   OH247957   5.426   1.877   7.223  0.4878 -0.1338 -0.3624
 7921TIP3    H147958   5.401   1.791   7.189  1.7900 -1.1160  1.0166
 7921TIP3    H247959   5.423   1.867   7.318  0.7522  1.3316 -0.1737
 7922TIP3   OH247960   1.448   4.426   8.153  0.5390  0.5580  0.3107
 7922TIP3    H147961   1.541   4.421   8.177  0.9271  0.4379 -1.1325
 7922TIP3    H247962   1.431   4.520   8.144  0.4074  0.6001  0.9830
 7923TIP3   OH247963   0.584   5.206   5.963  0.1751 -0.5361  0.0703
 7923TIP3    H147964   0.675   5.209   5.933  0.0661 -0.3533 -0.2479
 7923TIP3    H247965   0.552   5.120   5.935 -0.0682 -0.1833 -0.7702
 7924TIP3   OH247966   0.437   5.416   9.040 -0.4763  0.2027 -0.5394
 7924TIP3    H147967   0.350   5.377   9.039  0.1278 -1.2414 -1.7074
 7924TIP3    H247968   0.483   5.374   8.967  1.1497  1.0479 -0.0627
 7925TIP3   OH247969   6.323   6.152   6.497  0.1444  0.1343 -0.1385
 7925TIP3    H147970   6.265   6.211   6.449  0.2185  1.3248  1.1665
 7925TIP3    H247971   6.329   6.074   6.442  0.3741  1.4871 -2.1610
 7926TIP3   OH247972   3.603   2.566   8.290  0.3935 -0.6281 -0.2582
 7926TIP3    H147973   3.655   2.488   8.311  0.5208 -0.2791  0.7833
 7926TIP3    H247974   3.657   2.615   8.229  2.0345  0.4696  1.9372
 7927TIP3   OH247975   6.578   6.736   6.757 -0.3702 -0.1152 -0.8967
 7927TIP3    H147976   6.596   6.647   6.789 -0.0370 -0.0102 -0.7858
 7927TIP3    H247977   6.495   6.759   6.797  1.2682  1.0514  2.1651
 7928TIP3   OH247978   2.606   0.031   7.811 -0.1910  0.0441  0.7423
 7928TIP3    H147979   2.595  -0.040   7.873 -0.2186 -0.7688 -0.1796
 7928TIP3    H247980   2.681   0.005   7.757 -1.8775 -0.6366 -1.4004
 7929TIP3   OH247981   0.348   4.594   6.383  0.1794  0.2590 -0.1462
 7929TIP3    H147982   0.330   4.663   6.319  2.5996  0.9892 -0.1459
 7929TIP3    H247983   0.332   4.512   6.336  0.6272  0.7979 -1.2632
 7930TIP3   OH247984   6.580   1.850   7.495 -0.2591  0.3454  0.0070
 7930TIP3    H147985   6.493   1.868   7.459 -0.1573 -0.0724 -0.4653
 7930TIP3    H247986   6.584   1.901   7.575 -1.1936 -0.1311  0.3740
 7931TIP3   OH247987   5.141   0.769   8.185 -0.2603  0.0630  0.3836
 7931TIP3    H147988   5.087   0.690   8.177  1.0036 -1.0917  2.3004
 7931TIP3    H247989   5.205   0.762   8.113  0.0189 -0.8228  0.7097
 7932TIP3   OH247990   2.654   3.342   9.140  0.6250  0.0957  0.4714
 7932TIP3    H147991   2.613   3.317   9.057 -1.4720  1.0989  1.1530
 7932TIP3    H247992   2.677   3.259   9.181  0.8909 -0.4410 -0.7139
 7933TIP3   OH247993   1.547   1.394   6.096 -0.0046 -0.8014 -0.3573
 7933TIP3    H147994   1.621   1.334   6.081  0.8675  0.2863 -0.5556
 7933TIP3    H247995   1.489   1.346   6.154  1.6704 -1.0954  1.1787
 7934TIP3   OH247996   1.475   3.694   7.087  0.3557 -0.2104  0.0698
 7934TIP3    H147997   1.423   3.675   7.009  0.0485 -0.2694  0.2874
 7934TIP3    H247998   1.551   3.636   7.080  0.1580 -0.4599 -0.0106
 7935TIP3   OH247999   2.354   5.032   9.203  0.1927  0.6214  0.0424
 7935TIP3    H148000   2.340   5.126   9.216  0.1031  0.6942 -0.5599
 7935TIP3    H248001   2.322   5.015   9.114 -0.0484 -0.0309  0.2504
 7936TIP3   OH248002   1.288   5.125   7.290  0.2974 -0.2000  0.1499
 7936TIP3    H148003   1.300   5.140   7.384  0.1914 -0.8519  0.2683
 7936TIP3    H248004   1.377   5.130   7.254  0.2042  1.4758  0.0582
 7937TIP3   OH248005   2.406   0.904   5.717  0.2592  0.0393 -0.2722
 7937TIP3    H148006   2.435   0.885   5.807 -1.1809  0.1285  0.2367
 7937TIP3    H248007   2.466   0.971   5.686  1.2191 -0.5062  0.3679
 7938TIP3   OH248008   6.631   0.713   7.337 -0.6156 -0.0725 -0.0424
 7938TIP3    H148009   6.652   0.676   7.252  1.0180 -0.6646  0.5772
 7938TIP3    H248010   6.599   0.638   7.388  0.4801 -0.1895  0.5035
 7939TIP3   OH248011   3.654   3.415   8.212 -0.1630 -0.0226 -0.3180
 7939TIP3    H148012   3.624   3.382   8.297 -0.0976  0.7035 -0.0119
 7939TIP3    H248013   3.607   3.497   8.200  0.6585  0.4297 -0.4780
 7940TIP3   OH248014   3.063   5.988   7.775  0.1239 -0.5791 -0.1014
 7940TIP3    H148015   3.017   5.927   7.718  0.5192  0.2416 -1.3347
 7940TIP3    H248016   3.044   6.075   7.739  0.3351 -0.0345  1.0537
 7941TIP3   OH248017   0.498   1.009   5.928  0.1695  0.2673  0.6374
 7941TIP3    H148018   0.467   1.050   6.009  1.0767  0.0302  1.1251
 7941TIP3    H248019   0.514   1.083   5.869 -1.5135  0.3725  0.2821
 7942TIP3   OH248020   1.710   0.687   7.438  0.1174  0.5525  0.2977
 7942TIP3    H148021   1.746   0.725   7.357  1.7610 -0.2598  0.5834
 7942TIP3    H248022   1.759   0.605   7.448 -0.8924  0.0734  1.5099
 7943TIP3   OH248023   6.506   6.282   8.397  0.3756 -0.1778  0.0504
 7943TIP3    H148024   6.512   6.306   8.305 -1.1030  2.9724  0.6546
 7943TIP3    H248025   6.596   6.285   8.429  0.7079  0.3222 -0.9196
 7944TIP3   OH248026   4.376   3.296   6.983  0.0795  0.7616  0.3484
 7944TIP3    H148027   4.398   3.295   6.890  0.2380  1.2445  0.3818
 7944TIP3    H248028   4.302   3.356   6.990  0.2442  0.9363  0.5781
 7945TIP3   OH248029   4.722   1.156   5.649  0.4326 -0.4249 -0.4601
 7945TIP3    H148030   4.662   1.193   5.713 -0.5173 -0.0518 -1.5310
 7945TIP3    H248031   4.668   1.139   5.572  1.6216 -0.4360 -1.3271
 7946TIP3   OH248032   5.490   1.337   8.658  0.1586 -0.3805  0.0086
 7946TIP3    H148033   5.522   1.419   8.694  2.1799 -0.7850 -0.7673
 7946TIP3    H248034   5.412   1.362   8.608  0.2354  0.9191  0.5154
 7947TIP3   OH248035   2.536   3.640   5.716 -0.0998  0.1134  0.8073
 7947TIP3    H148036   2.557   3.666   5.806 -0.8345 -1.1145  1.3416
 7947TIP3    H248037   2.577   3.554   5.706  0.9738  0.7250 -0.4397
 7948TIP3   OH248038   3.342   3.727   8.424 -0.6575  0.2070 -0.2491
 7948TIP3    H148039   3.281   3.792   8.458 -1.1810 -0.1983 -0.4007
 7948TIP3    H248040   3.338   3.655   8.487 -1.1730 -0.2914 -0.8388
 7949TIP3   OH248041   1.300   6.147   7.571 -0.4854  0.6311 -0.8989
 7949TIP3    H148042   1.259   6.220   7.524 -0.4046  1.5911  0.4651
 7949TIP3    H248043   1.235   6.119   7.635  0.4756  1.3446  0.4453
 7950TIP3   OH248044   1.003   4.440   5.686  0.5229  0.1388 -0.4383
 7950TIP3    H148045   0.921   4.459   5.642  0.8671  1.4139 -0.5927
 7950TIP3    H248046   0.978   4.418   5.776 -0.0151  0.1014 -0.5962
 7951TIP3   OH248047   2.084   1.325   5.678  0.3837 -0.1496 -0.4140
 7951TIP3    H148048   2.137   1.400   5.651  1.7305 -0.9841 -0.2011
 7951TIP3    H248049   2.071   1.274   5.599  0.3825 -0.2328 -0.3607
 7952TIP3   OH248050   6.029   0.011   8.080  0.3067 -0.4791 -0.5215
 7952TIP3    H148051   5.938   0.037   8.064  0.8706  1.2089 -1.1965
 7952TIP3    H248052   6.040   0.019   8.175 -0.3309 -1.0233 -0.3931
 7953TIP3   OH248053   3.238   4.522   9.555  0.8231  0.3952  0.0512
 7953TIP3    H148054   3.304   4.482   9.498  1.4269  2.5814 -0.8953
 7953TIP3    H248055   3.155   4.507   9.509  1.4008  3.0545 -2.1654
 7954TIP3   OH248056   3.887   0.242   6.583  0.0692 -0.4242 -0.1835
 7954TIP3    H148057   3.882   0.253   6.488 -1.0855 -2.1213 -0.3656
 7954TIP3    H248058   3.974   0.273   6.607 -0.7491  3.1728 -1.2882
 7955TIP3   OH248059   0.447   6.097   8.720 -0.5344 -0.0677  0.3689
 7955TIP3    H148060   0.398   6.159   8.774 -0.0380 -0.6977  1.6099
 7955TIP3    H248061   0.508   6.151   8.671 -1.3869  0.5787  0.0129
 7956TIP3   OH248062   2.664   2.373   6.030 -0.3122  0.7847 -0.3945
 7956TIP3    H148063   2.679   2.432   6.104 -1.7387  0.5050  0.1335
 7956TIP3    H248064   2.694   2.423   5.954  1.3463  1.0072  0.3608
 7957TIP3   OH248065   6.395   0.437   6.056 -0.1353 -1.0194  0.3126
 7957TIP3    H148066   6.433   0.450   5.969  1.1487 -1.1278  0.8343
 7957TIP3    H248067   6.401   0.343   6.071  1.0557 -0.8337  1.1161
 7958TIP3   OH248068   4.518   3.437   9.108 -0.7453  0.3590  0.3313
 7958TIP3    H148069   4.554   3.349   9.117 -0.6131  0.4320  0.5217
 7958TIP3    H248070   4.527   3.476   9.195 -1.0782  0.4552  0.3233
 7959TIP3   OH248071   3.839   0.502   6.414  0.3016 -0.0773  0.2510
 7959TIP3    H148072   3.838   0.434   6.346  0.3959  0.1501  0.0232
 7959TIP3    H248073   3.930   0.502   6.446  0.4132  0.2579 -0.0653
 7960TIP3   OH248074   2.617   5.390   8.399  0.2663  0.0580 -0.4878
 7960TIP3    H148075   2.541   5.333   8.399  0.4275 -0.1682 -0.0375
 7960TIP3    H248076   2.595   5.460   8.461  0.4921 -0.1027 -0.2249
 7961TIP3   OH248077   0.450   3.046   6.142 -1.3543  0.2005  0.5619
 7961TIP3    H148078   0.518   3.019   6.081  0.2985  1.0448  1.9190
 7961TIP3    H248079   0.368   3.030   6.096 -0.3262 -2.2688 -0.5814
 7962TIP3   OH248080   1.229   1.422   5.807 -0.5891 -0.4406 -0.0437
 7962TIP3    H148081   1.254   1.331   5.825 -2.7598 -0.7898  1.5194
 7962TIP3    H248082   1.134   1.419   5.797 -0.9409  1.9121  1.8631
 7963TIP3   OH248083   2.672   2.438   6.638 -0.2819 -0.1637 -0.0571
 7963TIP3    H148084   2.612   2.409   6.708  0.6403 -0.8993  0.4575
 7963TIP3    H248085   2.723   2.509   6.678 -0.6473  0.3096 -0.4212
 7964TIP3   OH248086   1.042   5.929   7.431 -0.5030  0.2931 -0.3372
 7964TIP3    H148087   1.040   5.999   7.496 -0.0050 -0.5536  0.6040
 7964TIP3    H248088   0.954   5.892   7.433 -0.5116  0.3200 -0.2041
 7965TIP3   OH248089   4.952   4.007   7.901 -0.6597  0.2060 -0.1021
 7965TIP3    H148090   4.937   4.055   7.819 -1.5294 -2.4978 -1.6247
 7965TIP3    H248091   5.047   4.002   7.908 -0.5012 -1.5787 -2.3399
 7966TIP3   OH248092   3.500   5.211   9.010 -0.4224 -0.2331  0.4012
 7966TIP3    H148093   3.565   5.155   9.052  1.3798 -0.4327 -2.3998
 7966TIP3    H248094   3.534   5.300   9.021 -0.7237 -0.1407  0.6066
 7967TIP3   OH248095   1.909   0.118   6.711 -0.0853  0.8220  0.8397
 7967TIP3    H148096   1.996   0.105   6.749  0.0971 -1.3271 -0.1535
 7967TIP3    H248097   1.863   0.172   6.774  1.6531  1.1628  1.8747
 7968TIP3   OH248098   3.265   1.814   5.971  0.2950 -0.5902 -0.5058
 7968TIP3    H148099   3.278   1.761   5.892 -1.4471 -0.4271 -0.9438
 7968TIP3    H248100   3.348   1.808   6.018  0.7967 -2.0887 -1.5123
 7969TIP3   OH248101   4.255   0.736   6.703  0.0276  0.2651 -0.0668
 7969TIP3    H148102   4.351   0.734   6.696  0.3534  2.5406  2.2336
 7969TIP3    H248103   4.237   0.697   6.789 -0.9854  1.2151  0.1660
 7970TIP3   OH248104   3.237   5.998   6.408 -0.4964  0.4411 -0.1032
 7970TIP3    H148105   3.211   5.942   6.481  0.4555 -2.1350 -1.6233
 7970TIP3    H248106   3.249   6.085   6.448  2.5536 -1.3010  3.4008
 7971TIP3   OH248107   2.128   3.818   7.171 -0.4233 -0.0145 -0.5907
 7971TIP3    H148108   2.085   3.782   7.093 -1.0200 -3.0213  0.9649
 7971TIP3    H248109   2.205   3.863   7.137 -1.7275  0.5137 -3.0356
 7972TIP3   OH248110   1.777   5.961   6.860 -0.3004  0.2177  0.0488
 7972TIP3    H148111   1.752   6.030   6.921 -1.8205 -0.2688  0.0118
 7972TIP3    H248112   1.867   5.938   6.884 -0.0881  1.5988  0.6093
 7973TIP3   OH248113   4.348   3.292   8.916 -0.4987 -0.1057  0.0202
 7973TIP3    H148114   4.393   3.217   8.956 -1.9430  0.2419  2.4924
 7973TIP3    H248115   4.376   3.367   8.967  0.8399  1.1381 -2.3541
 7974TIP3   OH248116   0.794   4.674   6.925 -0.2823  0.3152 -0.0708
 7974TIP3    H148117   0.885   4.645   6.915 -0.3842  0.0454 -0.2119
 7974TIP3    H248118   0.776   4.725   6.846 -1.1858 -2.0689 -1.5091
 7975TIP3   OH248119   5.919   2.974   6.773 -0.1252 -0.3437  0.5676
 7975TIP3    H148120   6.012   2.956   6.789  0.2915 -0.0843 -1.2474
 7975TIP3    H248121   5.901   2.929   6.690 -0.5679  2.7110 -1.1423
 7976TIP3   OH248122   4.571   4.976   6.798 -0.1919 -0.0800  0.1157
 7976TIP3    H148123   4.557   4.922   6.720 -1.2736 -0.0052  0.2522
 7976TIP3    H248124   4.628   5.047   6.767 -1.8579  0.8222 -1.0116
 7977TIP3   OH248125   4.356   0.882   8.152 -0.1813 -0.1421 -0.3939
 7977TIP3    H148126   4.435   0.936   8.160 -0.8564  0.5778  2.2929
 7977TIP3    H248127   4.370   0.832   8.071  2.0675  1.4583 -1.1065
 7978TIP3   OH248128   3.550   2.306   6.200 -0.4486  0.4789 -0.3377
 7978TIP3    H148129   3.514   2.370   6.261 -0.2215  0.2630  0.0214
 7978TIP3    H248130   3.626   2.270   6.245 -1.6403 -1.4228  0.2562
 7979TIP3   OH248131   2.100   3.562   7.036 -0.0452  0.3713 -0.5568
 7979TIP3    H148132   2.168   3.578   7.102 -0.9078 -0.9178  0.7135
 7979TIP3    H248133   2.018   3.568   7.085 -0.7371  0.0211 -1.6571
 7980TIP3   OH248134   2.431   4.951   6.405 -0.0782  0.0821 -0.1590
 7980TIP3    H148135   2.401   5.000   6.481  0.5601 -0.4199  0.4370
 7980TIP3    H248136   2.354   4.901   6.376 -0.2636  0.0880  0.3139
 7981TIP3   OH248137   2.900   6.076   6.940  0.5493 -0.4068 -0.0013
 7981TIP3    H148138   2.829   6.112   6.994  1.3988  0.6168  0.5014
 7981TIP3    H248139   2.975   6.075   6.999  0.9800 -1.3735 -0.5525
 7982TIP3   OH248140   5.592   5.293   6.116  0.0326 -0.3350  0.1124
 7982TIP3    H148141   5.616   5.271   6.026 -2.3595 -0.5758 -0.5366
 7982TIP3    H248142   5.516   5.350   6.107 -0.4937 -0.6798  1.9782
 7983TIP3   OH248143   5.607   2.760   7.420 -0.1853  0.6857 -0.0118
 7983TIP3    H148144   5.670   2.733   7.354  0.8044  1.0047  0.7653
 7983TIP3    H248145   5.556   2.829   7.378  0.9029  1.3869 -0.2274
 7984TIP3   OH248146   2.927   3.957   7.578 -0.8411 -0.7858  0.0228
 7984TIP3    H148147   2.832   3.967   7.571 -0.8159 -0.9151 -0.5529
 7984TIP3    H248148   2.962   4.035   7.534 -0.6778  0.1575  1.7420
 7985TIP3   OH248149   3.381   0.219   6.165 -0.3957  0.0659  0.0246
 7985TIP3    H148150   3.453   0.265   6.208  1.0980 -2.0263 -0.1025
 7985TIP3    H248151   3.302   0.253   6.208  0.7937  0.8205  1.7331
 7986TIP3   OH248152   0.606   2.357   7.478 -0.1863 -0.7346 -0.6630
 7986TIP3    H148153   0.553   2.421   7.430 -0.8906 -0.1679  0.8327
 7986TIP3    H248154   0.695   2.370   7.445 -0.3774  0.7836 -0.6190
 7987TIP3   OH248155   3.337   2.834   7.283 -0.3014  0.1149  0.0662
 7987TIP3    H148156   3.348   2.824   7.189 -0.4882  0.1209  0.0437
 7987TIP3    H248157   3.408   2.893   7.310 -0.0794 -0.1058 -0.0261
 7988TIP3   OH248158   3.380   4.352   8.015  0.1858  0.4589  0.1347
 7988TIP3    H148159   3.329   4.336   7.935  1.2727 -1.2070 -0.2831
 7988TIP3    H248160   3.347   4.435   8.048  0.6372  1.9333 -2.7938
 7989TIP3   OH248161   5.888   5.277   8.214  0.1267  0.1821 -0.3614
 7989TIP3    H148162   5.845   5.195   8.236  2.8985 -1.2538  0.0696
 7989TIP3    H248163   5.868   5.335   8.288 -2.6685  0.3429 -1.1197
 7990TIP3   OH248164   1.520   3.640   7.867 -0.5775 -0.2499 -0.0630
 7990TIP3    H148165   1.481   3.555   7.889 -0.8479 -0.3697 -0.9444
 7990TIP3    H248166   1.522   3.688   7.949 -2.4443 -0.3065  0.0604
 7991TIP3   OH248167   0.908   3.649   6.324 -0.0406  0.1939 -0.2745
 7991TIP3    H148168   0.925   3.639   6.230 -1.1505 -1.7796 -0.3335
 7991TIP3    H248169   0.991   3.625   6.366  0.1818  0.1312 -0.7390
 7992TIP3   OH248170   0.795   0.333   6.012 -0.0577  0.5872 -0.1452
 7992TIP3    H148171   0.741   0.391   5.958 -1.1090 -1.1844 -1.0841
 7992TIP3    H248172   0.885   0.357   5.989 -0.4668  0.3200 -2.2860
 7993TIP3   OH248173   6.342   4.981   8.116  0.5200 -0.7516 -0.3356
 7993TIP3    H148174   6.247   4.970   8.121  0.3026  0.6588 -0.7048
 7993TIP3    H248175   6.363   4.969   8.023  0.2053  1.9125 -0.8456
 7994TIP3   OH248176   6.493   3.661   8.305  0.1619  0.2386  0.3688
 7994TIP3    H148177   6.468   3.598   8.238  2.2840 -0.0236 -0.2645
 7994TIP3    H248178   6.573   3.702   8.271  1.0131  0.4731  2.4849
 7995TIP3   OH248179   0.009   4.991   7.333 -0.4439 -0.4852  0.3249
 7995TIP3    H148180   0.026   5.010   7.426 -0.9777 -2.9394  0.9949
 7995TIP3    H248181  -0.083   4.965   7.330 -0.3518 -0.7418 -0.8465
 7996TIP3   OH248182   2.013   3.297   7.268 -0.0865 -0.0028  0.4479
 7996TIP3    H148183   2.091   3.248   7.244  0.0846  0.6654 -0.4135
 7996TIP3    H248184   1.998   3.275   7.359  1.4208  0.2737  0.7893
 7997TIP3   OH248185   5.175   3.092   7.815  0.3501 -0.6617  0.4838
 7997TIP3    H148186   5.210   3.009   7.848  0.0288 -0.2799  1.8573
 7997TIP3    H248187   5.249   3.152   7.820  0.2926 -0.5961  0.5466
 7998TIP3   OH248188   4.757   6.664   7.991  0.2698 -0.4658  0.0988
 7998TIP3    H148189   4.839   6.621   7.965  0.5640  0.0767  0.1096
 7998TIP3    H248190   4.715   6.688   7.909  0.1866 -0.6233  0.0951
 7999TIP3   OH248191   0.366   1.688   6.562  0.3798 -0.2663 -0.1362
 7999TIP3    H148192   0.416   1.729   6.632 -1.0741  0.5470  0.4764
 7999TIP3    H248193   0.325   1.761   6.516 -0.5164 -0.9136 -0.3908
 8000TIP3   OH248194   1.514   1.157   5.856  0.3388  0.0863  0.0557
 8000TIP3    H148195   1.552   1.123   5.774 -1.1631  0.4924 -0.8435
 8000TIP3    H248196   1.575   1.225   5.883 -1.4629  3.4809 -3.4441
 8001TIP3   OH248197   0.660   0.784   5.738 -0.2058  0.1743 -0.0813
 8001TIP3    H148198   0.573   0.816   5.714 -0.0715  0.5095 -0.1308
 8001TIP3    H248199   0.690   0.844   5.806 -0.2764 -0.3258  0.3932
 8002TIP3   OH248200   6.739   4.084   6.833 -0.0284 -0.0503  0.2013
 8002TIP3    H148201   6.819   4.059   6.879 -0.0337  0.4368  0.4778
 8002TIP3    H248202   6.744   4.038   6.749  0.5320 -0.0394  0.2276
 8003TIP3   OH248203   3.848   6.373   6.795  0.2927 -0.2309 -0.0446
 8003TIP3    H148204   3.771   6.403   6.843  0.0516  1.6750 -1.4923
 8003TIP3    H248205   3.839   6.278   6.791 -1.4355 -0.1331  0.7079
 8004TIP3   OH248206   4.083   0.157   7.631 -0.4411  1.0207 -0.2394
 8004TIP3    H148207   4.116   0.176   7.719 -0.6399  1.0793 -0.1770
 8004TIP3    H248208   4.055   0.066   7.635  1.7927  0.2527 -0.9286
 8005TIP3   OH248209   1.542   2.334   8.379 -0.3239 -0.3284 -0.9650
 8005TIP3    H148210   1.591   2.333   8.461 -1.4361  0.8139 -0.2431
 8005TIP3    H248211   1.459   2.290   8.399 -1.0139  0.8243 -1.1622
 8006TIP3   OH248212   1.019   1.504   5.643  0.1020  0.3014 -0.1912
 8006TIP3    H148213   1.107   1.539   5.627 -0.3601  1.8154  0.4966
 8006TIP3    H248214   0.961   1.562   5.594 -0.6426  0.1691  0.5241
 8007TIP3   OH248215   4.330   6.709   6.110  0.1534 -0.0604  0.5244
 8007TIP3    H148216   4.259   6.773   6.106 -1.0123 -1.3889 -1.2193
 8007TIP3    H248217   4.404   6.753   6.067 -0.3549  0.4404  0.1540
 8008TIP3   OH248218   6.305   3.540   7.535 -0.3851 -0.0431 -0.4721
 8008TIP3    H148219   6.338   3.535   7.625 -0.6411 -1.2913 -0.4310
 8008TIP3    H248220   6.210   3.532   7.544 -0.4984  0.8349 -0.7915
 8009TIP3   OH248221   4.751   1.137   6.331 -0.2470  0.0932  0.2528
 8009TIP3    H148222   4.839   1.166   6.355 -0.6738  0.6805  1.1696
 8009TIP3    H248223   4.700   1.148   6.411 -1.8978  2.7847 -1.0295
 8010TIP3   OH248224   5.157   2.885   8.461 -0.4490  0.1160  0.1100
 8010TIP3    H148225   5.171   2.808   8.517  0.0265 -1.0191 -1.4966
 8010TIP3    H248226   5.245   2.918   8.443 -0.5576  0.1002 -0.4577
 8011TIP3   OH248227   0.366   5.775   6.020  0.7482  0.2388  0.4268
 8011TIP3    H148228   0.392   5.687   5.992  0.8070  0.4814 -0.2992
 8011TIP3    H248229   0.439   5.831   5.996  1.3549  0.2754  2.2448
 8012TIP3   OH248230   1.413   5.691   7.998 -0.5109 -0.2842 -0.2766
 8012TIP3    H148231   1.483   5.651   7.946  0.5263  0.5598  0.4278
 8012TIP3    H248232   1.355   5.731   7.934 -0.3232 -0.9308 -0.8666
 8013TIP3   OH248233   6.691   4.513   5.791 -0.6276 -0.2618 -0.3122
 8013TIP3    H148234   6.659   4.603   5.782 -3.4791 -1.1240  0.2482
 8013TIP3    H248235   6.698   4.500   5.885 -2.4361 -1.2740 -0.2806
 8014TIP3   OH248236   2.307   6.138   6.828  0.3100  0.5074  0.0792
 8014TIP3    H148237   2.399   6.112   6.833 -0.1631 -1.2867  0.1052
 8014TIP3    H248238   2.298   6.174   6.740  1.0620  0.8044  0.1153
 8015TIP3   OH248239   5.342   2.865   6.418  0.8078 -0.5133  0.1984
 8015TIP3    H148240   5.285   2.868   6.495  1.2769 -1.3306  0.5964
 8015TIP3    H248241   5.430   2.853   6.454  1.3334  1.3098 -0.3821
 8016TIP3   OH248242   2.488   4.916   6.763 -0.5052 -0.5349  0.1486
 8016TIP3    H148243   2.561   4.963   6.805  1.2391 -1.8627 -1.2463
 8016TIP3    H248244   2.439   4.985   6.718  0.9289  0.2069 -0.3493
 8017TIP3   OH248245   1.804   6.119   7.106  0.0238 -0.2327  0.3945
 8017TIP3    H148246   1.823   6.034   7.146  1.1178 -0.1782  0.0239
 8017TIP3    H248247   1.889   6.162   7.101 -0.3215  0.3532 -0.6514
 8018TIP3   OH248248   5.570   6.517   7.922 -0.2147  0.0172  0.0628
 8018TIP3    H148249   5.547   6.608   7.902 -1.5274 -0.1780  0.5837
 8018TIP3    H248250   5.651   6.523   7.972 -0.7208  0.9713  0.8032
 8019TIP3   OH248251   6.108   0.916   7.644 -0.5911  0.2492 -0.6289
 8019TIP3    H148252   6.099   0.853   7.715  1.2403  1.3859  0.6963
 8019TIP3    H248253   6.112   0.862   7.565 -1.6386 -1.1138  0.2011
 8020TIP3   OH248254   3.010   3.750   6.087 -0.3540  0.0455 -0.3882
 8020TIP3    H148255   2.925   3.795   6.089 -0.9279 -1.0187  0.0200
 8020TIP3    H248256   3.056   3.782   6.164 -0.7465 -0.0511 -0.1129
 8021TIP3   OH248257   0.898   3.500   7.699 -0.2380 -0.7505  0.0067
 8021TIP3    H148258   0.893   3.484   7.794  1.9211 -0.0456  0.3013
 8021TIP3    H248259   0.915   3.594   7.692  0.5911 -0.9632 -1.0344
 8022TIP3   OH248260   0.346   6.313   7.700 -0.0913 -0.0040 -0.7396
 8022TIP3    H148261   0.251   6.308   7.708  0.0329 -1.7829  0.1438
 8022TIP3    H248262   0.373   6.222   7.687  1.5592  0.3874 -0.1714
 8023TIP3   OH248263   5.816   2.845   7.595 -0.3151 -0.4275 -0.8670
 8023TIP3    H148264   5.875   2.841   7.521  0.7488 -2.7342  0.0097
 8023TIP3    H248265   5.732   2.814   7.561  0.3098 -2.0329 -1.0317
 8024TIP3   OH248266   6.150   2.872   6.904  0.1812  0.0617 -0.5540
 8024TIP3    H148267   6.130   2.794   6.956  0.4183  0.1111 -0.3836
 8024TIP3    H248268   6.171   2.939   6.969 -2.6186  1.0508 -0.5772
 8025TIP3   OH248269   0.822   4.785   6.662 -0.0419 -0.0106  0.3041
 8025TIP3    H148270   0.760   4.722   6.626 -0.6540 -0.5288  2.1240
 8025TIP3    H248271   0.778   4.870   6.654  0.6285  0.1996 -1.8069
 8026TIP3   OH248272   2.619   1.159   8.099  0.3774 -0.2176 -0.0332
 8026TIP3    H148273   2.542   1.173   8.154  0.3183 -0.7407  0.0216
 8026TIP3    H248274   2.591   1.093   8.036  0.5433  0.1539 -0.4982
 8027TIP3   OH248275   6.286   0.648   6.642  0.3238  0.1308 -0.3324
 8027TIP3    H148276   6.320   0.581   6.701 -1.9543 -1.2395 -0.4552
 8027TIP3    H248277   6.208   0.609   6.604  0.6346  1.7095 -2.8188
 8028TIP3   OH248278   1.394   1.053   6.677 -0.2274  0.6229  0.0673
 8028TIP3    H148279   1.455   1.048   6.750 -1.2470 -0.3936  0.8928
 8028TIP3    H248280   1.322   0.995   6.702 -0.1649 -0.5508 -2.1674
 8029TIP3   OH248281   6.204   3.594   8.107  0.5036  0.6756  0.0819
 8029TIP3    H148282   6.193   3.513   8.156  1.4447  0.5270  0.0765
 8029TIP3    H248283   6.128   3.598   8.049 -0.3341  0.5732  1.1440
 8030TIP3   OH248284   1.528   2.666   6.240  0.0571 -0.1256 -0.1622
 8030TIP3    H148285   1.594   2.596   6.239  0.2072 -0.0050  0.7139
 8030TIP3    H248286   1.521   2.693   6.148  0.3970 -0.9141 -0.4331
 8031TIP3   OH248287   0.796   5.785   7.473 -0.2230  0.2185 -0.3281
 8031TIP3    H148288   0.788   5.730   7.395  1.3070 -1.1100  0.4095
 8031TIP3    H248289   0.706   5.799   7.502 -0.7281 -0.5095 -1.4881
 8032TIP3   OH248290   3.619   0.163   9.125  0.1353  0.1964  0.0384
 8032TIP3    H148291   3.652   0.089   9.177 -1.9053 -0.7285  0.1448
 8032TIP3    H248292   3.636   0.138   9.034 -0.9121 -0.6756  0.0452
 8033TIP3   OH248293   2.786   1.297   7.513  0.6744  0.2602  0.3521
 8033TIP3    H148294   2.786   1.355   7.589  2.6000 -0.0330  0.6271
 8033TIP3    H248295   2.838   1.344   7.448 -0.4533  0.2398 -0.6018
 8034TIP3   OH248296   2.978   4.111   8.675 -0.3654  0.2703 -0.0476
 8034TIP3    H148297   2.948   4.081   8.761  0.9823  0.9725  0.6960
 8034TIP3    H248298   3.026   4.036   8.640 -0.6122  0.1047 -0.0362
 8035TIP3   OH248299   3.713   5.199   6.312 -0.1012 -0.2919  0.0149
 8035TIP3    H148300   3.790   5.198   6.255  0.4763  0.0209  0.7729
 8035TIP3    H248301   3.704   5.290   6.338  0.8756 -0.7228  2.0402
 8036TIP3   OH248302   5.533   6.607   6.159  0.5480 -0.7366  0.0692
 8036TIP3    H148303   5.508   6.605   6.066  1.6780 -0.2978 -0.2600
 8036TIP3    H248304   5.495   6.688   6.193  1.7643  0.1051 -0.5128
 8037TIP3   OH248305   2.370   2.083   7.686 -0.5614  0.3370  0.2521
 8037TIP3    H148306   2.323   2.010   7.726 -1.4344  0.2851 -0.8205
 8037TIP3    H248307   2.310   2.157   7.693 -0.7973  0.2942 -1.0246
 8038TIP3   OH248308   2.033   3.863   6.816  0.2867 -0.2539  0.3614
 8038TIP3    H148309   1.977   3.787   6.826 -0.1551  0.1400  0.9886
 8038TIP3    H248310   1.985   3.922   6.759  0.8872 -0.6778 -0.6033
 8039TIP3   OH248311   2.860   5.117   5.752  0.9511 -0.7771 -0.3093
 8039TIP3    H148312   2.858   5.070   5.669 -0.3509  0.6088 -1.1172
 8039TIP3    H248313   2.812   5.060   5.813 -0.8499 -0.4350 -1.3356
 8040TIP3   OH248314   2.259   2.739   6.946  0.0539  0.5664 -0.0489
 8040TIP3    H148315   2.190   2.787   6.901  0.2609 -1.0470 -2.2105
 8040TIP3    H248316   2.263   2.779   7.033 -2.5771  1.6685 -0.3510
 8041TIP3   OH248317   0.322   2.256   7.371 -0.5253  0.0712  0.2024
 8041TIP3    H148318   0.406   2.262   7.417 -1.1698 -0.0349  1.4230
 8041TIP3    H248319   0.299   2.347   7.352 -0.2565  0.1137  0.0692
 8042TIP3   OH248320   4.634   4.067   6.460 -0.1443 -0.0899 -0.4989
 8042TIP3    H148321   4.577   4.064   6.383  0.2784  1.1502 -0.8781
 8042TIP3    H248322   4.723   4.061   6.425  0.0480  0.3913 -0.1109
 8043TIP3   OH248323   1.465   0.773   8.487  0.2739 -0.2610  0.1033
 8043TIP3    H148324   1.474   0.701   8.550 -0.3569  0.1324  0.6596
 8043TIP3    H248325   1.468   0.852   8.542  0.5004  0.1210 -0.4524
 8044TIP3   OH248326   5.118   2.233   6.533  0.4008 -0.5570  0.1215
 8044TIP3    H148327   5.069   2.278   6.602 -0.4496 -1.3588  0.0628
 8044TIP3    H248328   5.073   2.259   6.452  0.5068 -0.7458  0.0026
 8045TIP3   OH248329   2.340   1.675   8.976  0.0907 -0.4730 -0.4435
 8045TIP3    H148330   2.354   1.717   9.060  1.0693  0.1226 -0.8861
 8045TIP3    H248331   2.401   1.719   8.916  2.2403 -3.4262 -0.6318
 8046TIP3   OH248332   4.245   4.324   8.537 -0.0337 -0.0892  0.3861
 8046TIP3    H148333   4.170   4.266   8.525 -0.0675  0.2679 -1.3012
 8046TIP3    H248334   4.269   4.313   8.629 -3.6575  1.6146  1.7005
 8047TIP3   OH248335   3.197   0.656   6.991  0.0030  0.3020  0.1736
 8047TIP3    H148336   3.172   0.625   6.904  0.1023  0.4527  0.0886
 8047TIP3    H248337   3.243   0.738   6.974  0.7172 -0.0650  0.3089
 8048TIP3   OH248338   0.688   6.627   5.890  0.1415 -0.1957 -0.1344
 8048TIP3    H148339   0.658   6.659   5.805 -0.9080 -0.1113  0.2536
 8048TIP3    H248340   0.669   6.698   5.951 -0.0483 -0.6342  0.3327
 8049TIP3   OH248341   4.223   0.255   6.500  0.0514  1.0880 -0.3999
 8049TIP3    H148342   4.235   0.171   6.544  2.7540  1.9101  0.5985
 8049TIP3    H248343   4.246   0.238   6.409  1.2232  0.8640 -0.0735
 8050TIP3   OH248344   3.090   4.459   6.359  0.9503  0.7586 -0.5132
 8050TIP3    H148345   3.004   4.424   6.338  1.4335  0.3590 -1.8914
 8050TIP3    H248346   3.093   4.460   6.455 -0.7541  1.2238 -0.4376
 8051TIP3   OH248347   5.280   4.147   5.580  0.2260 -0.3903 -0.3722
 8051TIP3    H148348   5.202   4.095   5.559 -0.9483  1.3153 -0.4477
 8051TIP3    H248349   5.292   4.133   5.674 -0.7603  0.0346 -0.1614
 8052TIP3   OH248350   0.722   2.687   7.372  0.3145  0.5814  0.1170
 8052TIP3    H148351   0.707   2.761   7.312 -1.3391 -1.1193 -1.7028
 8052TIP3    H248352   0.663   2.619   7.340  0.7741 -1.0657  2.5982
 8053TIP3   OH248353   4.542   0.801   8.396  0.6352  0.2871  0.1235
 8053TIP3    H148354   4.532   0.871   8.332  1.1629 -0.0298 -0.3141
 8053TIP3    H248355   4.455   0.790   8.433  0.3012  0.3945 -0.6192
 8054TIP3   OH248356   6.444   4.614   8.147  0.1723  0.0678 -0.5221
 8054TIP3    H148357   6.367   4.610   8.091 -1.1690  0.2954  1.1980
 8054TIP3    H248358   6.483   4.527   8.141 -1.4480 -0.7484  0.1592
 8055TIP3   OH248359   5.509   5.454   7.088 -0.1760 -0.1413 -0.0970
 8055TIP3    H148360   5.569   5.499   7.028 -1.2178  0.6966 -0.5505
 8055TIP3    H248361   5.450   5.405   7.031  0.3605 -1.3726  0.3630
 8056TIP3   OH248362   6.252   5.212   7.269  0.2955 -0.6195  0.3389
 8056TIP3    H148363   6.324   5.163   7.229  0.1476  0.6035 -1.5156
 8056TIP3    H248364   6.271   5.304   7.251 -0.8285 -0.1566  1.3541
 8057TIP3   OH248365   3.833   1.338   7.593  0.4455 -0.3465  0.1067
 8057TIP3    H148366   3.785   1.370   7.517 -0.9425 -0.5601  0.8642
 8057TIP3    H248367   3.918   1.383   7.589  0.4837 -0.4944 -1.6485
 8058TIP3   OH248368   0.977   5.977   5.970 -0.5269 -0.3377 -0.2216
 8058TIP3    H148369   0.941   5.911   5.912 -0.6695 -0.5846  0.1429
 8058TIP3    H248370   1.035   5.928   6.029  1.4943  0.2146 -1.6488
 8059TIP3   OH248371   2.243   4.099   8.881 -0.0950 -0.7631 -0.5709
 8059TIP3    H148372   2.265   4.008   8.903  0.6389 -0.3680  0.3686
 8059TIP3    H248373   2.253   4.147   8.963  3.3753  0.8659 -1.7189
 8060TIP3   OH248374   5.772   6.080   9.113 -0.0798 -0.1240 -0.4503
 8060TIP3    H148375   5.731   5.998   9.140  0.5372 -0.4432 -0.4638
 8060TIP3    H248376   5.818   6.058   9.032  1.9293 -0.3543  0.6734
 8061TIP3   OH248377   3.624   4.297   7.698  0.7821 -0.2662 -0.6196
 8061TIP3    H148378   3.617   4.250   7.615 -0.6470 -0.8498 -0.2098
 8061TIP3    H248379   3.607   4.388   7.676  2.7801 -0.0099 -1.2985
 8062TIP3   OH248380   0.938   3.811   8.588 -0.2308 -0.1763 -0.3197
 8062TIP3    H148381   0.893   3.849   8.664 -0.1575  0.9658 -0.8352
 8062TIP3    H248382   0.921   3.872   8.517 -0.5760 -1.4096 -1.3213
 8063TIP3   OH248383   3.137   1.974   7.404 -0.2618  0.7358  0.0112
 8063TIP3    H148384   3.209   1.979   7.467 -0.6030 -0.5737  0.5268
 8063TIP3    H248385   3.065   2.022   7.445 -1.0383 -1.4986  1.4447
 8064TIP3   OH248386   2.442   0.539   6.191  0.0195  0.1172  0.7698
 8064TIP3    H148387   2.411   0.467   6.136  1.5718 -0.0996  0.1305
 8064TIP3    H248388   2.531   0.556   6.161 -0.5637  2.9069  0.3114
 8065TIP3   OH248389   3.957   3.985   7.398 -0.3635 -0.3343  0.9401
 8065TIP3    H148390   3.927   4.073   7.421 -1.4732 -0.3013 -0.4865
 8065TIP3    H248391   4.031   3.969   7.456 -1.6410  0.5636  2.9114
 8066TIP3   OH248392   3.755   3.667   9.519 -0.0337 -0.8187 -0.4618
 8066TIP3    H148393   3.755   3.669   9.615 -2.0534 -0.2783 -0.4332
 8066TIP3    H248394   3.844   3.693   9.495  0.9352 -2.3014  1.2539
 8067TIP3   OH248395   2.820   2.802   6.163 -0.3390 -0.2334  0.1089
 8067TIP3    H148396   2.734   2.824   6.200  0.0371 -0.8264  1.3913
 8067TIP3    H248397   2.877   2.873   6.192  0.0806 -0.9823  1.2071
 8068TIP3   OH248398   5.894   1.570   7.782  0.4758 -0.1146  0.0314
 8068TIP3    H148399   5.934   1.495   7.739  2.1859  0.9360 -0.3055
 8068TIP3    H248400   5.902   1.550   7.876  0.9546 -0.3392 -0.0524
 8069TIP3   OH248401   2.571   2.112   7.876 -0.0551  0.3755  0.4662
 8069TIP3    H148402   2.512   2.097   7.802  1.3318 -0.1020 -0.6026
 8069TIP3    H248403   2.609   2.026   7.894  0.8125  0.7934  0.6737
 8070TIP3   OH248404   3.499   4.514   6.058 -0.6149  0.3214 -0.3393
 8070TIP3    H148405   3.438   4.522   5.985 -1.1887  2.0670  0.2812
 8070TIP3    H248406   3.517   4.604   6.084 -1.3230 -0.2434  2.4220
 8071TIP3   OH248407   6.199   1.853   5.636 -0.2374  0.9499 -0.3631
 8071TIP3    H148408   6.118   1.905   5.641 -0.5362  0.4026  0.7908
 8071TIP3    H248409   6.178   1.772   5.682  1.2393  1.1384  0.7018
 8072TIP3   OH248410   3.852   4.107   8.719 -0.1974  0.0812 -0.7880
 8072TIP3    H148411   3.795   4.047   8.768 -0.4144  0.5104 -0.5061
 8072TIP3    H248412   3.831   4.194   8.754  1.2061  0.1676 -0.1120
 8073TIP3   OH248413   6.413   1.251   6.276  0.3715 -0.5043  0.5366
 8073TIP3    H148414   6.421   1.218   6.187 -0.3144 -0.9749  0.6431
 8073TIP3    H248415   6.363   1.332   6.267  1.6964  0.3176  0.3230
 8074TIP3   OH248416   1.198   5.706   7.807 -0.3494  0.0552  0.1829
 8074TIP3    H148417   1.130   5.757   7.763  0.6521  1.0616 -0.2620
 8074TIP3    H248418   1.164   5.617   7.810 -2.2770  0.7854  1.2457
 8075TIP3   OH248419   3.816   4.866   8.905  0.1395 -0.3800 -0.3216
 8075TIP3    H148420   3.741   4.877   8.848  0.0794 -1.6122 -0.5028
 8075TIP3    H248421   3.813   4.941   8.965 -0.6192  0.1342 -0.9968
 8076TIP3   OH248422   2.002   3.240   5.808  0.0682 -0.7942 -0.0077
 8076TIP3    H148423   1.927   3.265   5.754  0.3638 -0.0049 -0.0740
 8076TIP3    H248424   1.968   3.173   5.867 -1.4229  1.2915  1.7022
 8077TIP3   OH248425   0.642   6.339   6.760  0.4632 -0.4025 -0.2508
 8077TIP3    H148426   0.568   6.371   6.811 -0.4113 -0.5674 -1.3751
 8077TIP3    H248427   0.605   6.317   6.675  1.7433 -0.8421 -0.7224
 8078TIP3   OH248428   4.259   0.986   7.475  0.4421 -0.0139 -0.3386
 8078TIP3    H148429   4.232   0.947   7.558  2.2865 -0.1921  0.2103
 8078TIP3    H248430   4.296   0.913   7.425 -0.6542  0.0891 -1.3559
 8079TIP3   OH248431   0.041   3.471   6.912  0.2548  0.1079 -0.4004
 8079TIP3    H148432   0.051   3.383   6.877 -0.1274 -0.0176 -0.1936
 8079TIP3    H248433  -0.050   3.476   6.940  0.5996  0.1383  0.7621
 8080TIP3   OH248434   5.981   2.680   6.426 -0.3075 -0.0335 -0.4445
 8080TIP3    H148435   6.009   2.613   6.488 -2.1736 -0.2438  0.2328
 8080TIP3    H248436   5.921   2.736   6.475  1.1782  2.1954 -0.9912
 8081TIP3   OH248437   0.833   5.227   6.377  0.4286  0.5737  0.8470
 8081TIP3    H148438   0.743   5.222   6.344 -0.2478  2.6525  2.2142
 8081TIP3    H248439   0.879   5.282   6.313  0.8560 -0.6928  0.0123
 8082TIP3   OH248440   4.841   5.147   8.214  0.4999 -0.2130 -0.5237
 8082TIP3    H148441   4.848   5.114   8.304 -1.1894  0.1497 -0.2133
 8082TIP3    H248442   4.749   5.133   8.191  0.7689  0.2639 -1.9813
 8083TIP3   OH248443   6.727   2.490   6.923  0.3742  0.4696 -0.5362
 8083TIP3    H148444   6.668   2.524   6.855 -0.1345  3.1881  1.1090
 8083TIP3    H248445   6.683   2.411   6.956 -0.6243  0.5592 -1.5999
 8084TIP3   OH248446   4.528   4.201   7.194  0.0398 -0.3704  0.9095
 8084TIP3    H148447   4.512   4.222   7.286 -1.3839  0.9670  0.4071
 8084TIP3    H248448   4.445   4.221   7.151  0.2290 -2.3303 -0.4674
 8085TIP3   OH248449   2.852   4.229   5.713  0.5633  0.5756  0.3347
 8085TIP3    H148450   2.942   4.262   5.704 -0.0334  1.8057 -1.4675
 8085TIP3    H248451   2.806   4.297   5.762  0.0076  1.1769 -0.9862
 8086TIP3   OH248452   0.509   2.953   7.667 -0.2575 -0.0029 -0.3850
 8086TIP3    H148453   0.591   2.905   7.666  0.6528  1.4979 -1.2550
 8086TIP3    H248454   0.500   2.983   7.758  0.0258 -0.3682 -0.2356
 8087TIP3   OH248455   6.014   0.585   6.222 -0.0581  0.4246 -0.4084
 8087TIP3    H148456   6.107   0.608   6.217 -0.0274  0.2293 -0.8006
 8087TIP3    H248457   6.014   0.489   6.229 -0.2206  0.4502  0.0080
 8088TIP3   OH248458   4.953   1.923   7.877  0.1977  0.2818 -0.0999
 8088TIP3    H148459   5.034   1.890   7.838  0.1456  0.3014 -0.2251
 8088TIP3    H248460   4.950   1.881   7.964  0.0011 -0.2503 -0.3585
 8089TIP3   OH248461   2.214   5.954   8.179  0.1454 -0.2148 -0.5482
 8089TIP3    H148462   2.222   6.026   8.116 -1.6186 -0.5675 -1.2503
 8089TIP3    H248463   2.155   5.989   8.246  0.5108 -0.4863 -0.0870
 8090TIP3   OH248464   6.377   4.407   6.659 -0.2684 -0.0486  0.7054
 8090TIP3    H148465   6.293   4.446   6.633 -0.2138 -0.1725  0.3249
 8090TIP3    H248466   6.360   4.313   6.659 -0.6156 -0.0063  2.4037
 8091TIP3   OH248467   2.779   2.915   7.092 -0.1837 -0.3918 -0.1658
 8091TIP3    H148468   2.731   2.866   7.158 -0.2335 -0.9664 -0.6263
 8091TIP3    H248469   2.834   2.976   7.143 -0.1960 -0.8448  0.3984
 8092TIP3   OH248470   1.403   4.762   7.756 -0.3674 -0.5342  0.2810
 8092TIP3    H148471   1.327   4.707   7.739  0.3982 -1.1897 -1.1653
 8092TIP3    H248472   1.381   4.847   7.716 -0.2375 -0.8190 -0.4156
 8093TIP3   OH248473   0.891   0.215   7.782 -0.2310 -0.0230  0.0621
 8093TIP3    H148474   0.899   0.254   7.695 -0.8206 -0.2443 -0.0971
 8093TIP3    H248475   0.824   0.268   7.826 -0.5499 -0.4430  0.0809
 8094TIP3   OH248476   3.918   2.982   7.867 -0.7409 -0.2850 -0.6536
 8094TIP3    H148477   3.836   2.981   7.818 -2.8747  1.1377  2.5537
 8094TIP3    H248478   3.893   3.003   7.957  3.2752  1.2183  0.3570
 8095TIP3   OH248479   6.645   2.237   5.996  0.4145 -0.0760 -0.1824
 8095TIP3    H148480   6.555   2.244   5.966 -0.8066  0.6797  3.1629
 8095TIP3    H248481   6.696   2.287   5.932 -1.6939  0.4621 -1.5481
 8096TIP3   OH248482   2.228   1.208   6.985 -0.2040  0.0131 -0.0607
 8096TIP3    H148483   2.203   1.137   6.926  1.1296  0.4916 -1.2676
 8096TIP3    H248484   2.282   1.166   7.052  1.4288 -0.0329 -1.3334
 8097TIP3   OH248485   4.561   1.691   6.648  0.0194 -0.2998 -0.3876
 8097TIP3    H148486   4.540   1.725   6.735 -0.2129  0.0694 -0.5828
 8097TIP3    H248487   4.490   1.723   6.592 -0.2484 -1.1864 -0.5625
 8098TIP3   OH248488   5.757   5.207   7.187  0.3278  0.0174  0.2762
 8098TIP3    H148489   5.742   5.171   7.100 -1.2296 -0.9177  0.8945
 8098TIP3    H248490   5.836   5.162   7.218 -0.7042 -1.7916  0.4215
 8099TIP3   OH248491   3.834   5.377   6.642 -0.3561  0.0215  0.0533
 8099TIP3    H148492   3.870   5.289   6.633 -0.6680 -0.1369  0.3096
 8099TIP3    H248493   3.754   5.365   6.694  0.5379  0.6670  1.6649
 8100TIP3   OH248494   0.238   2.443   6.978  0.0826  1.0762  0.0201
 8100TIP3    H148495   0.241   2.347   6.980 -0.5687  1.0570  0.0563
 8100TIP3    H248496   0.146   2.464   6.986  0.2122  1.7080 -0.1670
 8101TIP3   OH248497   3.105   2.667   7.489 -0.1019  0.2335 -0.1312
 8101TIP3    H148498   3.099   2.721   7.410 -1.2017 -0.2620 -0.4061
 8101TIP3    H248499   3.198   2.651   7.500  0.2941  2.3632  0.0932
 8102TIP3   OH248500   5.707   4.974   8.060 -0.0686  0.1307  0.2511
 8102TIP3    H148501   5.737   5.013   8.142  1.1247 -1.3746  0.5772
 8102TIP3    H248502   5.782   4.982   8.001 -0.9755  1.3546 -0.7806
 8103TIP3   OH248503   1.909   1.996   7.590 -0.5908 -0.2184 -0.5303
 8103TIP3    H148504   1.824   2.040   7.596 -1.3369 -1.6913  0.4420
 8103TIP3    H248505   1.919   1.977   7.497  0.3989  3.0681 -1.2130
 8104TIP3   OH248506   4.505   3.662   6.956  0.3714  0.2131  0.1079
 8104TIP3    H148507   4.591   3.703   6.969  0.4853 -0.3423  1.2144
 8104TIP3    H248508   4.447   3.708   7.018 -0.3940  1.2950 -1.3496
 8105TIP3   OH248509   1.420   2.790   7.990  0.0008  0.4092  0.0181
 8105TIP3    H148510   1.414   2.718   8.054  0.5561 -0.0922 -0.4746
 8105TIP3    H248511   1.432   2.745   7.906  0.0504  1.0808 -0.3337
 8106TIP3   OH248512   4.911   0.424   5.682  0.4585  0.0078 -0.5495
 8106TIP3    H148513   4.826   0.414   5.638 -0.6541 -0.7695  1.5825
 8106TIP3    H248514   4.903   0.508   5.728  1.1426  0.2797 -0.9288
 8107TIP3   OH248515   5.335   0.820   5.897  0.1646  0.1287  0.0454
 8107TIP3    H148516   5.249   0.788   5.921 -0.4491  1.6485 -0.0107
 8107TIP3    H248517   5.321   0.911   5.871  1.9895  0.8817  1.4168
 8108TIP3   OH248518   5.880   3.209   8.147 -0.7132 -0.0956 -0.1439
 8108TIP3    H148519   5.928   3.132   8.179 -0.1147  0.5662  0.5968
 8108TIP3    H248520   5.937   3.245   8.078 -1.4138 -0.8042 -1.1256
 8109TIP3   OH248521   5.494   1.279   8.214 -0.0107 -0.4214  0.0196
 8109TIP3    H148522   5.543   1.225   8.276 -0.4007 -1.9263 -0.9202
 8109TIP3    H248523   5.561   1.325   8.163  0.3233  0.1358  0.9319
 8110TIP3   OH248524   5.989   4.526   6.011 -0.5153 -0.2346  0.2559
 8110TIP3    H148525   5.956   4.445   6.051 -0.7571  0.9492  2.6208
 8110TIP3    H248526   6.069   4.546   6.060  0.2473  0.2984 -1.1657
 8111TIP3   OH248527   3.801   4.362   8.783  0.9863  0.4115  0.1308
 8111TIP3    H148528   3.836   4.438   8.737 -1.4782  0.9242 -1.0674
 8111TIP3    H248529   3.789   4.392   8.873  1.4209  0.9777  0.0050
 8112TIP3   OH248530   0.260   3.983   6.566  0.1659 -0.0790 -0.2010
 8112TIP3    H148531   0.173   3.964   6.530 -1.2560  1.7776  1.9438
 8112TIP3    H248532   0.278   3.910   6.625 -0.3505 -0.0485  0.0027
 8113TIP3   OH248533   5.417   3.127   6.143 -0.4139  0.9250  0.1442
 8113TIP3    H148534   5.381   3.150   6.228 -1.1391 -1.3724  0.5205
 8113TIP3    H248535   5.511   3.117   6.158 -0.2853  2.1506  0.2597
 8114TIP3   OH248536   0.850   3.708   7.380  0.2092  0.7244  0.2657
 8114TIP3    H148537   0.826   3.712   7.288 -1.5994 -1.8069  0.5217
 8114TIP3    H248538   0.768   3.726   7.427  0.1769 -1.6868  1.2710
 8115TIP3   OH248539   5.614   1.300   7.646  0.3386 -0.2215 -0.1139
 8115TIP3    H148540   5.643   1.272   7.559 -0.5332 -2.8131  0.3471
 8115TIP3    H248541   5.518   1.291   7.643  0.2577  0.1051  0.9828
 8116TIP3   OH248542   2.145   4.982   8.521  0.2286  0.2737  0.3025
 8116TIP3    H148543   2.105   5.068   8.510 -0.7610 -0.0406  1.2321
 8116TIP3    H248544   2.117   4.932   8.444 -1.3379  0.0155  1.0069
 8117TIP3   OH248545   1.895   5.160   7.637  0.1031 -0.0201 -0.1941
 8117TIP3    H148546   1.862   5.133   7.723 -1.7542  2.4519 -0.0282
 8117TIP3    H248547   1.839   5.113   7.574  0.6454 -0.8771 -0.0444
 8118TIP3   OH248548   2.965   5.298   6.222 -0.2303 -0.0896  0.3061
 8118TIP3    H148549   2.983   5.242   6.146 -0.4589 -2.0867  1.6347
 8118TIP3    H248550   2.935   5.380   6.185  1.4183 -0.3485 -1.7842
 8119TIP3   OH248551   5.794   5.147   7.684 -0.3049 -0.1128  0.1321
 8119TIP3    H148552   5.735   5.079   7.651 -2.7182  1.8803  0.0537
 8119TIP3    H248553   5.814   5.201   7.607 -0.1356  0.4754  0.5798
 8120TIP3   OH248554   4.223   5.720   8.544  0.0574 -0.3078 -0.2193
 8120TIP3    H148555   4.250   5.769   8.466  0.4327  1.1694  0.7819
 8120TIP3    H248556   4.131   5.743   8.555  0.3723  0.6621  0.5583
 8121TIP3   OH248557   4.426   6.593   7.675 -0.2121 -0.3226 -0.3153
 8121TIP3    H148558   4.498   6.529   7.678 -0.3350 -0.5474 -1.6149
 8121TIP3    H248559   4.385   6.587   7.761  1.1382 -0.4038  0.3473
 8122TIP3   OH248560   6.583   3.247  16.640 -0.1669  0.1579 -0.4628
 8122TIP3    H148561   6.550   3.159  16.660 -0.7509  0.3156 -0.6986
 8122TIP3    H248562   6.597   3.287  16.726 -0.3859  0.0083 -0.3559
 8123TIP3   OH248563   3.534   4.005   8.342  0.7152 -0.4659 -0.6311
 8123TIP3    H148564   3.517   4.046   8.257 -0.6225  0.1633 -0.0793
 8123TIP3    H248565   3.460   4.030   8.396  1.5226 -0.9028  0.7189
 8124TIP3   OH248566   3.229   6.495   6.608  0.4802 -0.0518  0.2422
 8124TIP3    H148567   3.141   6.507   6.642  0.3361  0.9077 -0.4432
 8124TIP3    H248568   3.271   6.580   6.618  0.6365  0.0901 -1.3672
 8125TIP3   OH248569   3.740   3.902   5.496  0.0329  0.3252  0.3242
 8125TIP3    H148570   3.680   3.943   5.558  2.0592 -0.0878  2.7232
 8125TIP3    H248571   3.684   3.852   5.437 -2.2988  3.8189 -0.7357
 8126TIP3   OH248572   6.678   4.115   8.027  0.1246  0.3733  0.0197
 8126TIP3    H148573   6.749   4.053   8.040 -1.1819 -1.2121 -0.0418
 8126TIP3    H248574   6.717   4.186   7.976  1.4418 -0.8821 -0.8006
 8127TIP3   OH248575   5.729   2.437   7.059 -0.0958 -0.0907 -0.8738
 8127TIP3    H148576   5.752   2.357   7.106 -0.3629  1.3743  1.9930
 8127TIP3    H248577   5.656   2.412   7.003 -0.7778 -1.7014  0.6396
 8128TIP3   OH248578   3.237   2.095   7.811  0.1462  0.2983  0.0613
 8128TIP3    H148579   3.315   2.117   7.860  0.0835 -0.3071  0.4490
 8128TIP3    H248580   3.167   2.092   7.876 -0.6135  2.7787 -0.5593
 8129TIP3   OH248581   3.495   0.365   7.353  0.0869 -0.1297 -0.2653
 8129TIP3    H148582   3.455   0.447   7.323 -0.6367 -0.6437 -0.7588
 8129TIP3    H248583   3.457   0.351   7.440 -0.1493 -0.1759 -0.3747
 8130TIP3   OH248584   3.865   3.387   7.823  0.0577  0.9328  0.2009
 8130TIP3    H148585   3.773   3.411   7.833 -0.4078 -0.5654 -0.3144
 8130TIP3    H248586   3.891   3.355   7.909  0.6289  2.9352  0.8401
 8131TIP3   OH248587   3.062   3.467   8.172 -0.7305  0.0265  0.2920
 8131TIP3    H148588   3.147   3.452   8.213 -0.4465 -1.1495 -0.6954
 8131TIP3    H248589   3.006   3.399   8.209 -1.6518  1.5710  1.9344
 8132TIP3   OH248590   0.057   5.708   7.131 -0.2257 -0.6327  0.0009
 8132TIP3    H148591   0.081   5.653   7.206  0.4091  0.9382  0.9884
 8132TIP3    H248592   0.137   5.714   7.079  0.1990  0.6363  0.7511
 8133TIP3   OH248593   1.635   2.999   8.804 -0.5830  0.1226  0.1548
 8133TIP3    H148594   1.653   3.087   8.772 -4.1719  0.5226 -1.2294
 8133TIP3    H248595   1.577   3.012   8.879 -0.9108 -1.0521  0.1319
 8134TIP3   OH248596   3.864   2.784  16.045  0.0321  0.6705  0.2723
 8134TIP3    H148597   3.816   2.702  16.052 -1.5493  1.6342  1.4246
 8134TIP3    H248598   3.797   2.849  16.022  1.1617  1.7242 -0.1477
 8135TIP3   OH248599   5.976   4.997   7.503 -0.2015  0.3681  0.1812
 8135TIP3    H148600   6.001   5.002   7.411  2.5966  0.0271  0.8313
 8135TIP3    H248601   5.947   5.085   7.526 -1.1277  0.3971 -1.0542
 8136TIP3   OH248602   3.417   6.686   7.425  0.2156  0.0318 -0.3557
 8136TIP3    H148603   3.492   6.743   7.444 -1.2952  1.9096  0.3252
 8136TIP3    H248604   3.347   6.718   7.483 -0.6965 -2.6855  0.2206
 8137TIP3   OH248605   3.381   4.261   9.041  0.2037 -0.3884 -0.6867
 8137TIP3    H148606   3.437   4.274   8.965 -0.1633 -0.3033 -0.9490
 8137TIP3    H248607   3.320   4.335   9.038  1.2097  0.5309  0.6212
 8138TIP3   OH248608   3.847   0.863   8.445  0.3157 -0.3215 -0.1299
 8138TIP3    H148609   3.901   0.923   8.496 -0.2616  0.6978 -0.6805
 8138TIP3    H248610   3.853   0.779   8.492  2.2914 -0.2339 -0.1295
 8139TIP3   OH248611   2.850   4.291   6.258 -0.6970  0.0938  0.3568
 8139TIP3    H148612   2.890   4.226   6.316 -0.8586 -0.0015  0.3609
 8139TIP3    H248613   2.805   4.239   6.191 -1.0972  0.2001  0.5445
 8140TIP3   OH248614   5.134   2.635   6.550  0.3338 -0.5560  0.3142
 8140TIP3    H148615   5.056   2.647   6.496 -0.3450 -1.5265  1.0564
 8140TIP3    H248616   5.138   2.713   6.604 -0.3875 -0.6987  0.5867
 8141TIP3   OH248617   4.721   4.210   7.436 -0.8170  0.1266  0.2410
 8141TIP3    H148618   4.694   4.283   7.491 -1.3455 -0.3265  0.5927
 8141TIP3    H248619   4.729   4.136   7.496  0.1806 -0.0029 -0.0271
 8142TIP3   OH248620   0.631   2.025   6.086  0.1745  0.0292  0.7049
 8142TIP3    H148621   0.590   1.966   6.023 -0.1828 -0.2629  1.2041
 8142TIP3    H248622   0.678   2.089   6.032  0.6370 -0.7564  0.1674
 8143TIP3   OH248623   0.713   2.153   5.863 -0.3987  0.0101 -0.2883
 8143TIP3    H148624   0.672   2.178   5.780  0.8324 -0.0943 -0.9469
 8143TIP3    H248625   0.793   2.107   5.838  0.1198  0.1844  0.9511
 8144TIP3   OH248626   1.612   6.370   6.940  0.6360 -0.7147  0.2130
 8144TIP3    H148627   1.593   6.282   6.972  0.3572  0.1581  2.7367
 8144TIP3    H248628   1.531   6.419   6.958  1.2324  0.3427  0.0723
 8145TIP3   OH248629   3.821   0.105   6.128  0.1035 -0.5399 -0.3908
 8145TIP3    H148630   3.799   0.090   6.036  0.7748 -1.3742 -0.4321
 8145TIP3    H248631   3.854   0.021   6.158  3.0441  0.4948 -0.3145
 8146TIP3   OH248632   3.515   3.419   8.942  0.0999 -0.2050  0.2905
 8146TIP3    H148633   3.443   3.480   8.925  0.4263  0.2396  0.4890
 8146TIP3    H248634   3.477   3.352   8.998 -0.6181 -0.9116 -0.9878
 8147TIP3   OH248635   3.299   5.576   9.347 -0.3655  0.1525 -0.0560
 8147TIP3    H148636   3.338   5.490   9.365  0.8225  0.5704 -0.5414
 8147TIP3    H248637   3.368   5.625   9.303 -1.4591  0.9388 -0.9405
 8148TIP3   OH248638   6.053   5.348   8.899  0.3371 -0.1432 -0.4193
 8148TIP3    H148639   6.025   5.430   8.940  0.7093 -0.3747  0.3231
 8148TIP3    H248640   6.111   5.308   8.964  0.8717 -0.5650 -1.1488
 8149TIP3   OH248641   3.098   2.647   7.205 -0.6536 -0.0500 -0.2301
 8149TIP3    H148642   3.103   2.557   7.172 -0.9553 -0.2783  0.3364
 8149TIP3    H248643   3.184   2.684   7.185 -0.5539 -0.4332 -0.5482
 8150TIP3   OH248644   1.371   1.884   8.822  0.2696  0.1896 -0.0741
 8150TIP3    H148645   1.389   1.795   8.791  2.0635  0.6058 -0.3204
 8150TIP3    H248646   1.359   1.936   8.743  2.6842  0.8105 -0.1240
 8151TIP3   OH248647   0.287   6.502   7.142  0.5278 -0.3138 -0.1856
 8151TIP3    H148648   0.221   6.566   7.117 -0.1486  0.4686  3.1550
 8151TIP3    H248649   0.367   6.552   7.154  0.1269 -0.0593  1.8966
 8152TIP3   OH248650   1.102   2.440   7.173 -0.4505 -0.2485 -0.4102
 8152TIP3    H148651   1.021   2.478   7.139 -1.0164 -1.4875 -0.4679
 8152TIP3    H248652   1.112   2.357   7.128 -0.6198 -1.4238  1.5773
 8153TIP3   OH248653   5.323   5.176   6.850 -0.1062 -0.1861  0.4987
 8153TIP3    H148654   5.322   5.141   6.939 -2.1881 -1.1361  0.1595
 8153TIP3    H248655   5.288   5.265   6.858 -1.1717 -0.5910  0.5584
 8154TIP3   OH248656   0.559   2.730   6.162 -0.3050  0.1544  0.3702
 8154TIP3    H148657   0.617   2.767   6.228  0.6297  0.6495 -0.6987
 8154TIP3    H248658   0.617   2.701   6.092 -1.0000 -2.9746  0.9224
 8155TIP3   OH248659   3.657   3.442   5.838  0.5868 -0.5310  0.2573
 8155TIP3    H148660   3.721   3.461   5.769  0.4409  0.9356  0.5042
 8155TIP3    H248661   3.603   3.372   5.800  1.6245 -1.0189 -0.3903
 8156TIP3   OH248662   1.924   4.554   8.201 -0.3646  0.2307 -0.2398
 8156TIP3    H148663   1.982   4.479   8.187  1.0667  1.1469  0.4573
 8156TIP3    H248664   1.869   4.529   8.275  0.1123 -0.1422 -0.0032
 8157TIP3   OH248665   5.141   4.230   8.748  0.7995  0.0583  0.1112
 8157TIP3    H148666   5.083   4.292   8.704 -0.1240  1.0407  2.5357
 8157TIP3    H248667   5.228   4.246   8.710  0.1602  1.2178 -0.9133
 8158TIP3   OH248668   6.613   0.252   6.703 -0.0876 -0.3429  0.5497
 8158TIP3    H148669   6.682   0.264   6.767  0.0283 -0.7504  0.5060
 8158TIP3    H248670   6.607   0.157   6.692  2.2071 -0.3055 -2.4926
 8159TIP3   OH248671   4.144   5.033   6.677  0.0237  0.6265  0.2501
 8159TIP3    H148672   4.163   4.945   6.644 -1.1672  0.6610 -0.6113
 8159TIP3    H248673   4.207   5.090   6.633  0.1712  0.3288  0.0758
 8160TIP3   OH248674   3.661   5.719   6.360 -0.3074  0.4869  0.7632
 8160TIP3    H148675   3.742   5.767   6.340  0.6049 -1.0634  0.5468
 8160TIP3    H248676   3.591   5.775   6.327  0.5849  2.3892  1.9294
 8161TIP3   OH248677   3.306   3.604   7.729  0.2226 -0.2131  0.0694
 8161TIP3    H148678   3.305   3.671   7.797 -0.6755 -0.5729  0.4281
 8161TIP3    H248679   3.334   3.651   7.650  0.7907  0.3131  0.5689
 8162TIP3   OH248680   3.203   4.501   8.519 -0.3765  0.1739 -0.4545
 8162TIP3    H148681   3.180   4.594   8.518 -0.7099  0.0941 -1.2954
 8162TIP3    H248682   3.155   4.464   8.445  1.0345 -0.3358 -1.1682
 8163TIP3   OH248683   0.517   4.684   8.977 -0.2996  0.3927  0.2364
 8163TIP3    H148684   0.610   4.666   8.990 -0.3372 -1.5305 -1.4652
 8163TIP3    H248685   0.474   4.641   9.050  0.0118 -1.7067 -0.7349
 8164TIP3   OH248686   5.003   1.163   6.445  0.1803 -0.2151 -0.0230
 8164TIP3    H148687   5.085   1.121   6.417 -0.3023 -2.3641  1.5736
 8164TIP3    H248688   4.989   1.132   6.534 -2.8926 -0.7403 -0.5856
 8165TIP3   OH248689   5.261   5.819   6.820 -0.3926 -0.4239  0.1926
 8165TIP3    H148690   5.340   5.836   6.871 -1.0020  0.5960  0.8191
 8165TIP3    H248691   5.279   5.857   6.734  0.6745 -2.2327 -0.4517
 8166TIP3   OH248692   6.703   3.908   5.763  0.0724 -0.2906 -0.1587
 8166TIP3    H148693   6.619   3.921   5.719  0.6816  0.6500 -1.0954
 8166TIP3    H248694   6.691   3.828   5.814 -1.9760  0.7752  1.2027
 8167TIP3   OH248695   4.416   4.893   6.416  0.4205 -0.1321 -0.2944
 8167TIP3    H148696   4.443   4.853   6.334  3.8230 -1.9038  1.4895
 8167TIP3    H248697   4.352   4.832   6.452  0.0116 -0.0860 -0.9221
 8168TIP3   OH248698   6.164   0.616   8.665 -0.6632 -0.2465  0.0755
 8168TIP3    H148699   6.242   0.669   8.651  0.2627 -1.9494 -1.6929
 8168TIP3    H248700   6.099   0.653   8.605 -0.7733  0.2602  0.4954
 8169TIP3   OH248701   4.593   6.751   7.202 -0.3210 -0.0514  0.5843
 8169TIP3    H148702   4.684   6.748   7.174 -0.2339 -0.3751  0.8937
 8169TIP3    H248703   4.544   6.778   7.124 -0.1370 -1.3353 -0.0090
 8170TIP3   OH248704   5.244   1.547   7.488  0.2041  0.7284 -0.3415
 8170TIP3    H148705   5.300   1.506   7.423  0.9708  3.0243 -1.2321
 8170TIP3    H248706   5.156   1.540   7.452  0.1590 -0.9566  0.0204
 8171TIP3   OH248707   5.608   3.191   5.612 -0.1927  0.0522  0.1417
 8171TIP3    H148708   5.666   3.122   5.644  1.8783  1.5570 -0.1789
 8171TIP3    H248709   5.622   3.263   5.673 -1.6464  0.5246 -0.0525
 8172TIP3   OH248710   2.877   1.861   8.078  0.1929 -0.5579  0.5113
 8172TIP3    H148711   2.858   1.927   8.145 -0.3687  1.1613 -1.2196
 8172TIP3    H248712   2.879   1.778   8.125  0.4153  0.6179  2.7266
 8173TIP3   OH248713   4.019   5.633   6.101 -0.8965  0.5232 -0.2171
 8173TIP3    H148714   3.969   5.590   6.032  0.9368 -0.6869 -0.8776
 8173TIP3    H248715   4.050   5.561   6.157 -2.1026  1.4537  1.7513
 8174TIP3   OH248716   0.918   4.960   6.188 -0.0076  0.5204  0.0542
 8174TIP3    H148717   0.852   4.964   6.257 -1.2979  1.4166 -1.1491
 8174TIP3    H248718   0.997   4.929   6.231 -1.4406 -1.5133  1.3820
 8175TIP3   OH248719   3.373   1.083   7.243  0.4215  0.6351 -0.0136
 8175TIP3    H148720   3.379   1.160   7.299  0.4471  0.1918  0.5965
 8175TIP3    H248721   3.401   1.114   7.156  0.1360  1.3801  0.1591
 8176TIP3   OH248722   2.716   3.406   8.606 -0.5034 -0.4096  0.0739
 8176TIP3    H148723   2.812   3.415   8.610 -0.5571  1.2268 -1.1343
 8176TIP3    H248724   2.699   3.366   8.521 -0.9109  0.1596 -0.1216
 8177TIP3   OH248725   0.289   4.953   8.506  0.5944 -0.3461 -0.2471
 8177TIP3    H148726   0.338   5.028   8.540  0.2103 -0.5595  0.8018
 8177TIP3    H248727   0.300   4.885   8.573 -1.0392 -0.4367 -0.0391
 8178TIP3   OH248728   2.646   0.613   7.500  0.7662  0.0919  0.4634
 8178TIP3    H148729   2.739   0.595   7.484  0.8346 -0.5995  1.5481
 8178TIP3    H248730   2.607   0.526   7.509 -0.0271  0.3764 -0.1682
 8179TIP3   OH248731   5.678   1.809   8.525  0.0101  0.2013  0.7268
 8179TIP3    H148732   5.608   1.743   8.521 -0.8978  0.9832  2.5301
 8179TIP3    H248733   5.757   1.761   8.501 -0.5851 -1.6127  2.1628
 8180TIP3   OH248734   3.227   4.604   6.586 -0.1674 -0.2198  0.8922
 8180TIP3    H148735   3.136   4.607   6.557  0.0341  1.6393  0.3193
 8180TIP3    H248736   3.223   4.627   6.679 -0.3155 -0.5394  0.9652
 8181TIP3   OH248737   0.682   3.732   6.692  0.1154 -0.2011  0.0176
 8181TIP3    H148738   0.633   3.792   6.636  0.0014  0.1451  0.4810
 8181TIP3    H248739   0.689   3.652   6.641  1.1603  0.5280 -1.0504
 8182TIP3   OH248740   5.041   4.262   5.745 -0.7499 -0.2483 -0.0057
 8182TIP3    H148741   5.132   4.252   5.774  0.4017  1.1450 -2.8147
 8182TIP3    H248742   4.990   4.214   5.810  1.9686 -1.0714  1.6773
 8183TIP3   OH248743   2.940   5.990   5.961 -0.1549  0.4220 -0.1759
 8183TIP3    H148744   2.971   5.993   6.051  1.3323 -3.2705 -0.3865
 8183TIP3    H248745   3.014   5.956   5.911 -1.4967  0.6647 -2.4990
 8184TIP3   OH248746   6.719   3.888   7.155 -0.0180 -0.2425 -0.7236
 8184TIP3    H148747   6.790   3.880   7.091 -2.2112  0.4159 -3.4229
 8184TIP3    H248748   6.696   3.981   7.153 -2.3207 -0.7711 -1.5822
 8185TIP3   OH248749   0.816   4.051   7.000 -0.0492 -0.0578 -0.1482
 8185TIP3    H148750   0.801   3.989   7.071 -2.1296 -0.7009 -1.0555
 8185TIP3    H248751   0.782   4.134   7.032 -1.0259 -0.3568 -0.3701
 8186TIP3   OH248752   3.042   1.913   6.506  0.2378 -0.7363  0.1105
 8186TIP3    H148753   3.055   2.005   6.529 -1.1069 -0.7547  1.0437
 8186TIP3    H248754   3.071   1.865   6.584 -2.8035 -0.8830  1.2637
 8187TIP3   OH248755   6.669   5.579   7.650 -0.1789  0.3141 -0.0753
 8187TIP3    H148756   6.638   5.523   7.580 -0.6353 -1.3859  1.4111
 8187TIP3    H248757   6.589   5.622   7.683 -0.3245 -0.5827  0.7948
 8188TIP3   OH248758   2.383   2.005   7.016 -0.3886  0.2931  0.3473
 8188TIP3    H148759   2.449   1.958   6.965 -1.0045 -0.3064  0.0863
 8188TIP3    H248760   2.433   2.055   7.079  0.3303  0.0189  0.0055
 8189TIP3   OH248761   5.063   4.809   8.122 -0.1312  0.1203  0.1299
 8189TIP3    H148762   5.035   4.900   8.122  0.1111  0.1999  1.0416
 8189TIP3    H248763   5.009   4.768   8.055  0.1094  1.0329 -0.6383
 8190TIP3   OH248764   6.271   1.084   6.461  0.4466  0.1890  0.0022
 8190TIP3    H148765   6.323   1.117   6.387 -0.3845  0.0739 -0.6461
 8190TIP3    H248766   6.250   0.994   6.436 -1.2662  0.6732 -0.4267
 8191TIP3   OH248767   3.445   5.576   6.079  0.1904  0.2965  0.3253
 8191TIP3    H148768   3.402   5.500   6.039 -0.7644  0.7427  0.4632
 8191TIP3    H248769   3.430   5.566   6.173 -1.8297  1.6937  0.2325
 8192TIP3   OH248770   0.352   3.972   7.554  0.0036 -0.2445 -0.3435
 8192TIP3    H148771   0.340   3.881   7.580 -0.9898  0.0643  0.3577
 8192TIP3    H248772   0.361   3.969   7.459 -1.0122 -1.0013 -0.4369
 8193TIP3   OH248773   3.108   0.130   7.331 -0.3961  0.1776  0.1742
 8193TIP3    H148774   3.188   0.132   7.280 -0.8485  0.4495 -0.5388
 8193TIP3    H248775   3.113   0.049   7.382 -0.1331 -0.3053 -0.6134
 8194TIP3   OH248776   0.280   2.031   6.082  0.2707  0.1380 -0.1051
 8194TIP3    H148777   0.323   2.116   6.073  1.8135 -0.7611 -1.9370
 8194TIP3    H248778   0.223   2.024   6.005 -1.1712  0.1733  0.9119
 8195TIP3   OH248779   5.668   0.986   5.842 -0.0264 -0.0699  0.1846
 8195TIP3    H148780   5.573   0.972   5.837  0.2478 -2.5199  0.7432
 8195TIP3    H248781   5.699   0.921   5.906  2.5464 -2.4295 -3.1127
 8196TIP3   OH248782   6.717   3.812   8.744 -0.1619  0.3296 -0.3286
 8196TIP3    H148783   6.812   3.802   8.734 -0.1327  0.0682  0.1996
 8196TIP3    H248784   6.706   3.895   8.790 -0.2318  0.7795 -1.1377
 8197TIP3   OH248785   0.533   3.485   7.297  0.0075 -0.3625 -0.1014
 8197TIP3    H148786   0.490   3.410   7.338 -1.9024  0.8465  0.2942
 8197TIP3    H248787   0.478   3.560   7.322  1.1889  1.0105 -1.3975
 8198TIP3   OH248788   6.558   4.916   9.491  0.2308  0.0356  0.3951
 8198TIP3    H148789   6.550   4.827   9.525  3.5143 -0.6607 -0.3400
 8198TIP3    H248790   6.635   4.952   9.535  0.1611  1.8138 -0.8185
 8199TIP3   OH248791   3.514   2.110   5.988  0.3296 -0.2291 -0.2428
 8199TIP3    H148792   3.497   2.179   5.924  0.1891 -0.0366 -0.0038
 8199TIP3    H248793   3.539   2.158   6.067 -0.1959 -0.4360  0.0556
 8200TIP3   OH248794   0.315   3.941   8.942 -0.2996  0.2285 -0.7209
 8200TIP3    H148795   0.272   3.883   8.879  0.8790 -0.0817 -1.2690
 8200TIP3    H248796   0.404   3.952   8.908  0.0845  0.7981  0.4085
 8201TIP3   OH248797   1.087   2.648   6.590 -0.0903  0.3632  0.1892
 8201TIP3    H148798   1.080   2.717   6.524  0.3283  0.1595 -0.0699
 8201TIP3    H248799   1.081   2.694   6.673  0.2960  0.7238  0.0195
 8202TIP3   OH248800   1.765   0.995   7.949 -0.0141 -0.4662  0.0708
 8202TIP3    H148801   1.718   0.913   7.936  1.1924 -0.8705 -2.6974
 8202TIP3    H248802   1.699   1.057   7.978 -2.3387 -1.0757 -3.2757
 8203TIP3   OH248803   3.949   1.326   6.587  0.3419  0.3882 -0.0422
 8203TIP3    H148804   3.858   1.309   6.563 -0.0749  0.6593  1.2744
 8203TIP3    H248805   3.971   1.258   6.650  0.8866  0.6410  0.0511
 8204TIP3   OH248806   2.132   2.526   8.577  0.3174  0.4376  0.0227
 8204TIP3    H148807   2.173   2.441   8.563  0.0796  0.1007  1.2434
 8204TIP3    H248808   2.047   2.506   8.615  0.3773  1.2173  0.6111
 8205TIP3   OH248809   3.431   2.393   7.840  0.0251  0.0437  0.2198
 8205TIP3    H148810   3.358   2.407   7.779  1.0956  0.7288 -0.9654
 8205TIP3    H248811   3.508   2.424   7.792  0.6948  2.4754  2.6600
 8206TIP3   OH248812   1.634   2.617   7.101 -0.0344  0.1014 -0.0742
 8206TIP3    H148813   1.665   2.529   7.079  0.9434 -0.2929  2.5030
 8206TIP3    H248814   1.641   2.666   7.019  0.0577 -2.0086 -1.4246
 8207TIP3   OH248815   0.571   5.928   7.500  0.0027 -0.1700 -0.3763
 8207TIP3    H148816   0.488   5.882   7.516 -0.4207  0.7365  0.1446
 8207TIP3    H248817   0.544   6.011   7.459  0.9082 -1.6607 -4.4864
 8208TIP3   OH248818   6.717   4.336   7.434  0.4066 -0.1993 -0.1905
 8208TIP3    H148819   6.647   4.402   7.440  1.7551  1.4755 -1.4801
 8208TIP3    H248820   6.685   4.262   7.484 -2.2932  0.4855 -0.7220
 8209TIP3   OH248821   4.267   5.945   7.609 -0.2338 -0.0490 -0.6092
 8209TIP3    H148822   4.251   5.991   7.692 -0.1906 -0.5245 -0.3317
 8209TIP3    H248823   4.236   5.856   7.626 -0.4748 -0.0773 -1.1952
 8210TIP3   OH248824   0.049   5.031   5.771  0.4809  0.2669 -0.2628
 8210TIP3    H148825   0.132   5.022   5.816 -0.2605 -0.4226  1.0265
 8210TIP3    H248826   0.010   5.111   5.807  0.6310  0.6692 -0.9667
 8211TIP3   OH248827   1.903   4.628   6.926 -0.4396  0.5941 -0.3300
 8211TIP3    H148828   1.815   4.611   6.959 -0.7071 -0.0895 -1.3648
 8211TIP3    H248829   1.928   4.711   6.968 -0.5679 -0.4189  1.9284
 8212TIP3   OH248830   4.420   2.028   8.092 -0.6240 -0.3408 -0.6458
 8212TIP3    H148831   4.463   2.043   8.176 -0.4309  1.1550 -0.9745
 8212TIP3    H248832   4.363   1.953   8.106 -0.6493 -0.0631  0.8349
 8213TIP3   OH248833   5.242   4.047   5.829  0.3446 -0.0730 -0.0492
 8213TIP3    H148834   5.307   4.035   5.898 -1.2254  1.3018  1.7729
 8213TIP3    H248835   5.162   4.007   5.864  0.1059 -1.7372 -2.2329
 8214TIP3   OH248836   0.036   5.118   6.110 -0.2062 -0.0581  0.1727
 8214TIP3    H148837   0.131   5.129   6.101 -0.1026  0.4402  1.6008
 8214TIP3    H248838  -0.001   5.161   6.034  0.6753  0.8056  0.2148
 8215TIP3   OH248839   5.423   5.470   6.345  0.3184 -0.5482 -0.5153
 8215TIP3    H148840   5.422   5.509   6.257  0.8329  1.3184  0.2443
 8215TIP3    H248841   5.333   5.442   6.360 -0.2600  0.9631 -0.9161
 8216TIP3   OH248842   2.374   1.670   6.761 -0.3524  0.4778  1.0134
 8216TIP3    H148843   2.326   1.707   6.835  0.0858 -0.5688  1.8494
 8216TIP3    H248844   2.316   1.602   6.727 -0.0297  0.1147  1.1851
 8217TIP3   OH248845   0.657   6.727   6.903 -0.0189 -0.0349 -0.4236
 8217TIP3    H148846   0.664   6.669   6.979  0.1896  0.5690  0.0314
 8217TIP3    H248847   0.681   6.672   6.829  1.3089 -0.2532  0.1305
 8218TIP3   OH248848   3.357   6.721   6.372  0.7709 -0.4656  0.0262
 8218TIP3    H148849   3.409   6.642   6.355  0.6192 -0.6128  0.2343
 8218TIP3    H248850   3.282   6.713   6.313  1.1283 -0.1036 -0.4940
 8219TIP3   OH248851   0.427   6.741   7.281 -0.8932  0.2066 -0.5471
 8219TIP3    H148852   0.339   6.764   7.311 -1.2581 -0.3873 -1.1344
 8219TIP3    H248853   0.455   6.817   7.228 -1.4588 -0.0257 -1.1878
 8220TIP3   OH248854   2.987   1.603   6.022  0.5538 -0.2660 -0.1925
 8220TIP3    H148855   2.987   1.634   6.113  3.0074  0.0856 -0.2613
 8220TIP3    H248856   2.972   1.509   6.030  1.3838 -0.3434  0.6443
 8221TIP3   OH248857   1.255   0.395   6.836 -0.2045 -0.5438 -0.4877
 8221TIP3    H148858   1.234   0.305   6.810 -0.4358  0.2016 -3.1459
 8221TIP3    H248859   1.171   0.440   6.839 -0.1819 -0.5415  1.6436
 8222TIP3   OH248860   6.733   6.540   6.257 -0.4870  0.2955  0.0656
 8222TIP3    H148861   6.701   6.627   6.281  0.0957  0.1570  1.4583
 8222TIP3    H248862   6.701   6.526   6.168 -0.2235  2.1168 -0.3510
 8223TIP3   OH248863   0.720   5.014   7.727  0.5353 -0.5410  0.1309
 8223TIP3    H148864   0.680   5.091   7.687 -0.1962 -1.1427 -0.3183
 8223TIP3    H248865   0.646   4.959   7.753  1.0453 -1.1124  0.4108
 8224TIP3   OH248866   5.206   5.644   8.593 -0.1407  0.5255  0.2867
 8224TIP3    H148867   5.119   5.630   8.556 -0.3024  0.1994  0.7860
 8224TIP3    H248868   5.261   5.666   8.517 -0.4851 -0.0429 -0.1387
 8225TIP3   OH248869   5.243   5.272   8.057 -0.0042  0.2357  0.0359
 8225TIP3    H148870   5.323   5.224   8.037  0.7693  1.5186 -0.1006
 8225TIP3    H248871   5.272   5.362   8.070 -1.2955  0.5347  1.0707
 8226TIP3   OH248872   1.847   3.927   8.037  0.1134 -0.1226 -0.3113
 8226TIP3    H148873   1.793   4.005   8.051  2.9960  2.0824 -0.3703
 8226TIP3    H248874   1.849   3.916   7.942  1.6405  1.3428 -0.4949
 8227TIP3   OH248875   3.426   1.288   7.809  0.2041 -0.3498  0.0125
 8227TIP3    H148876   3.487   1.355   7.842 -1.4951  1.0225  0.5613
 8227TIP3    H248877   3.375   1.334   7.742 -0.8425 -1.1455  0.2380
 8228TIP3   OH248878   4.923   6.364   7.183  0.5029  0.1312  0.0508
 8228TIP3    H148879   4.997   6.380   7.125  0.5996  0.3284  0.2299
 8228TIP3    H248880   4.847   6.363   7.124  0.6365  0.0197 -0.1192
 8229TIP3   OH248881   1.704   6.204   8.371 -0.4929  0.4465  0.6840
 8229TIP3    H148882   1.697   6.244   8.458  1.5014  1.0303  0.6309
 8229TIP3    H248883   1.689   6.277   8.310 -0.4554  0.3485  0.5572
 8230TIP3   OH248884   5.445   5.846   8.916  0.1432  0.4563 -0.0192
 8230TIP3    H148885   5.493   5.846   8.999 -0.1993  0.5526  0.1811
 8230TIP3    H248886   5.411   5.757   8.908 -0.1485  0.5541  0.1340
 8231TIP3   OH248887   3.283   0.535   6.145 -0.1042 -0.2236  0.4076
 8231TIP3    H148888   3.228   0.613   6.138 -0.9923 -0.7088  1.6311
 8231TIP3    H248889   3.236   0.478   6.205  1.3416 -1.0039  0.8459
 8232TIP3   OH248890   6.275   3.530   6.999 -0.0893  0.1215  0.3066
 8232TIP3    H148891   6.211   3.551   7.068 -1.4905 -1.2189 -0.5321
 8232TIP3    H248892   6.279   3.434   6.999  0.0088  0.0982 -1.3395
 8233TIP3   OH248893   1.893   1.544   5.632 -0.0456 -0.3182 -0.3479
 8233TIP3    H148894   1.914   1.621   5.580 -0.9764 -1.6379 -2.8729
 8233TIP3    H248895   1.953   1.476   5.601 -0.6414 -1.1614  0.2813
 8234TIP3   OH248896   1.056   2.879   6.427  0.7004 -0.4282 -0.1987
 8234TIP3    H148897   0.998   2.943   6.468 -1.0645 -1.8820 -0.3341
 8234TIP3    H248898   1.079   2.917   6.342 -2.0780 -0.8478 -1.2225
 8235TIP3   OH248899   0.244   1.302   6.484 -0.3112 -0.2709 -0.4068
 8235TIP3    H148900   0.247   1.214   6.445  0.4467 -0.1182 -0.7146
 8235TIP3    H248901   0.299   1.355   6.427  1.5181 -0.2151  1.2786
 8236TIP3   OH248902   3.356   2.325   8.709 -0.6553 -0.1848  0.0932
 8236TIP3    H148903   3.345   2.419   8.694 -0.0807  0.0463  1.0433
 8236TIP3    H248904   3.282   2.285   8.663  0.2805  0.5337 -2.2002
 8237TIP3   OH248905   0.040   3.525   7.712 -0.1608  0.1895 -0.1839
 8237TIP3    H148906   0.033   3.488   7.624  0.5049 -0.8316  0.1716
 8237TIP3    H248907  -0.002   3.460   7.769  0.2138  0.4060  0.3495
 8238TIP3   OH248908   6.474   1.513   7.745 -0.1209 -0.2830  0.1379
 8238TIP3    H148909   6.393   1.516   7.694  0.4221  1.1681 -0.7015
 8238TIP3    H248910   6.463   1.579   7.812  0.2716 -0.2581  0.1771
 8239TIP3   OH248911   4.698   5.929   6.834 -0.2485 -0.0933 -0.1945
 8239TIP3    H148912   4.669   5.894   6.919  0.7927 -1.4165 -0.3603
 8239TIP3    H248913   4.622   5.917   6.777  0.7441 -4.5984 -0.9349
 8240TIP3   OH248914   2.414   0.353   7.869 -0.1266 -0.3514 -0.3791
 8240TIP3    H148915   2.346   0.416   7.843  1.5158  0.1968 -4.1036
 8240TIP3    H248916   2.429   0.370   7.962 -2.4908  2.0330 -0.3071
 8241TIP3   OH248917   2.389   4.032   5.808  0.1637  0.2329  0.4370
 8241TIP3    H148918   2.331   3.997   5.877  1.0804 -1.5449  0.3714
 8241TIP3    H248919   2.368   4.125   5.804 -3.1515 -0.4040 -0.0269
 8242TIP3   OH248920   6.303   4.949   7.825 -0.9050  0.1939 -0.2351
 8242TIP3    H148921   6.224   4.997   7.801 -0.8292  0.6036  0.3047
 8242TIP3    H248922   6.375   5.009   7.804 -0.7121 -0.2596 -0.9309
 8243TIP3   OH248923   1.737   0.919   7.015 -0.4531 -0.2840 -0.0844
 8243TIP3    H148924   1.791   0.995   7.038  0.4044 -0.7266 -0.5615
 8243TIP3    H248925   1.766   0.850   7.075  0.2607 -0.8178 -1.0069
 8244TIP3   OH248926   5.621   1.610   7.656  0.4103 -0.1977  0.0782
 8244TIP3    H148927   5.711   1.635   7.676  0.4572 -1.2550  1.3081
 8244TIP3    H248928   5.620   1.515   7.662 -0.9166 -0.1699  0.7220
 8245TIP3   OH248929   3.713   5.810   8.436 -0.0084 -0.1914 -0.1277
 8245TIP3    H148930   3.770   5.884   8.415 -0.5117  0.3292  0.3146
 8245TIP3    H248931   3.644   5.814   8.369 -1.6070  1.4605  1.4956
 8246TIP3   OH248932   0.278   2.517   6.317  0.0307 -0.0371 -0.5527
 8246TIP3    H148933   0.360   2.492   6.274  1.2965  0.8822  1.1852
 8246TIP3    H248934   0.267   2.610   6.296 -1.6197 -0.5639 -2.3022
 8247TIP3   OH248935   1.367   4.948   6.484 -0.5704 -0.1949 -0.2507
 8247TIP3    H148936   1.390   4.855   6.488 -0.2763 -0.0891  0.7620
 8247TIP3    H248937   1.362   4.975   6.576  0.0161  0.9557 -0.5503
 8248TIP3   OH248938   5.542   1.585   8.753 -0.3405 -0.3331 -0.1334
 8248TIP3    H148939   5.457   1.602   8.793  0.3070  1.1755  0.7248
 8248TIP3    H248940   5.599   1.652   8.790  1.2769 -1.4223 -0.5362
 8249TIP3   OH248941   2.053   0.051   8.609 -0.3992 -0.6787 -0.0595
 8249TIP3    H148942   1.961   0.063   8.635 -0.3620 -0.8645  0.1651
 8249TIP3    H248943   2.098   0.028   8.690 -0.1893 -0.7751 -0.2025
 8250TIP3   OH248944   3.568   1.052   7.936 -0.2547  0.2888  0.2908
 8250TIP3    H148945   3.545   0.965   7.904 -1.0119  1.2187 -1.8903
 8250TIP3    H248946   3.496   1.109   7.906  0.2172  1.6780  1.6454
 8251TIP3   OH248947   2.400   1.835   7.867 -0.2247  0.4617  0.1226
 8251TIP3    H148948   2.456   1.766   7.904 -1.1920 -0.2764  0.2349
 8251TIP3    H248949   2.317   1.791   7.848 -0.3880  1.2737 -1.1354
 8252TIP3   OH248950   0.627   4.876   9.216  0.3915  0.0243 -0.3136
 8252TIP3    H148951   0.693   4.860   9.283  1.0547  0.4232 -0.8659
 8252TIP3    H248952   0.559   4.810   9.233  0.5614  0.1026  0.7225
 8253TIP3   OH248953   6.463   4.912   7.387 -0.0428 -0.1567 -0.4185
 8253TIP3    H148954   6.468   4.912   7.291 -0.8357  0.6332 -0.4839
 8253TIP3    H248955   6.377   4.875   7.406  0.2307 -0.5820  0.0045
 8254TIP3   OH248956   4.948   5.458   6.531 -0.2934 -0.4110  0.2985
 8254TIP3    H148957   5.000   5.531   6.565  0.6412 -0.9729  0.1221
 8254TIP3    H248958   4.943   5.397   6.604 -2.0851  0.3239  0.8308
 8255TIP3   OH248959   3.695   1.741   6.621 -0.1542 -0.5683  0.7821
 8255TIP3    H148960   3.789   1.727   6.634  0.4045 -0.6837 -2.3963
 8255TIP3    H248961   3.670   1.805   6.686  2.7130  1.2964  0.2133
 8256TIP3   OH248962   0.512   2.146   8.284  0.3026 -0.1294 -0.0625
 8256TIP3    H148963   0.597   2.189   8.279 -0.5293  1.7085  0.5223
 8256TIP3    H248964   0.470   2.184   8.362 -0.8576 -1.3553 -0.0485
 8257TIP3   OH248965   3.655   5.378   7.426 -0.1053  0.3512 -0.2388
 8257TIP3    H148966   3.585   5.436   7.395 -0.4298  0.0522 -0.0701
 8257TIP3    H248967   3.732   5.405   7.376 -0.8766 -0.9158 -2.2072
 8258TIP3   OH248968   0.019   6.417   6.506 -0.9101  0.3555  0.1162
 8258TIP3    H148969  -0.054   6.368   6.544 -0.1775 -1.1776 -0.4082
 8258TIP3    H248970  -0.010   6.439   6.417 -0.4031 -1.0565 -0.4187
 8259TIP3   OH248971   0.988   2.088   7.879 -0.1035  0.1486 -0.1757
 8259TIP3    H148972   0.951   2.169   7.843  1.0392  0.4953 -0.6116
 8259TIP3    H248973   0.963   2.090   7.971  0.7319  1.4987  0.0482
 8260TIP3   OH248974   1.481   5.961   8.788  0.8534  0.5731 -0.3090
 8260TIP3    H148975   1.558   5.912   8.814 -0.8364 -0.6538  3.0500
 8260TIP3    H248976   1.430   5.901   8.735  0.7698  0.1973  0.1862
 8261TIP3   OH248977   6.637   5.391   6.380  0.7840  0.1920  0.7064
 8261TIP3    H148978   6.705   5.406   6.314  1.0104 -0.1745  0.8550
 8261TIP3    H248979   6.575   5.463   6.367  1.2987  0.6415  0.7053
 8262TIP3   OH248980   0.785   4.033   9.517  0.3423  0.3063 -0.5784
 8262TIP3    H148981   0.752   4.014   9.429  0.0980  0.8131 -0.6020
 8262TIP3    H248982   0.867   4.080   9.502  0.4321  0.1628 -0.5345
 8263TIP3   OH248983   4.286   1.840   7.082  0.3207  0.0628  0.8269
 8263TIP3    H148984   4.274   1.879   6.996 -0.2958 -3.1950 -0.7169
 8263TIP3    H248985   4.355   1.893   7.123  0.0542  2.2142 -1.2841
 8264TIP3   OH248986   3.159   6.522   6.159  0.4640  0.1560  0.1174
 8264TIP3    H148987   3.113   6.599   6.193 -0.3410 -0.7346  1.1148
 8264TIP3    H248988   3.106   6.495   6.084  2.0426  1.9081 -1.7494
 8265TIP3   OH248989   5.387   1.088   6.276 -0.1101  0.0917  0.6706
 8265TIP3    H148990   5.451   1.024   6.245 -0.8404  0.0860 -0.9135
 8265TIP3    H248991   5.381   1.072   6.370  0.1606 -1.7760  0.4162
 8266TIP3   OH248992   2.607   4.440   7.925  0.0863  0.2141 -0.3001
 8266TIP3    H148993   2.681   4.500   7.917  1.3731 -1.4852 -1.7155
 8266TIP3    H248994   2.573   4.432   7.836 -1.1659  0.1456  0.1671
 8267TIP3   OH248995   1.402   6.155   6.373 -0.4659 -0.2571 -0.1059
 8267TIP3    H148996   1.316   6.144   6.413 -0.4513  2.6404  0.9751
 8267TIP3    H248997   1.383   6.181   6.283 -0.7442  0.1102  0.0545
 8268TIP3   OH248998   4.335   5.727   6.173  0.0730 -0.0757  0.0638
 8268TIP3    H148999   4.426   5.738   6.147  0.1716 -1.9155 -0.4919
 8268TIP3    H249000   4.322   5.632   6.178 -1.0759  0.1119  2.8265
 8269TIP3   OH249001   6.310   5.858   6.649 -0.0709  0.3095  0.3166
 8269TIP3    H149002   6.321   5.886   6.559 -0.6420  0.4772  0.2936
 8269TIP3    H249003   6.216   5.840   6.658  0.0579 -0.1725  0.7395
 8270TIP3   OH249004   1.942   6.551   7.864 -0.1254  0.0368 -0.0605
 8270TIP3    H149005   1.881   6.575   7.934  0.6519  1.5005  0.1534
 8270TIP3    H249006   2.018   6.608   7.877  0.5528 -0.5084 -1.3733
 8271TIP3   OH249007   5.678   0.146   6.106 -0.2291  0.0647 -0.2104
 8271TIP3    H149008   5.628   0.089   6.048 -0.3592  0.1663 -0.1996
 8271TIP3    H249009   5.764   0.154   6.064  0.3859 -1.5286  0.6528
 8272TIP3   OH249010   2.713   0.493   8.525 -0.4419  0.4636 -0.5193
 8272TIP3    H149011   2.717   0.571   8.581  0.4781 -0.8058  1.2884
 8272TIP3    H249012   2.754   0.520   8.443  0.8796  1.6032  0.4599
 8273TIP3   OH249013   2.560   0.736   7.730  0.0862 -0.9263  0.4104
 8273TIP3    H149014   2.653   0.746   7.748  0.3364  0.2503 -1.3018
 8273TIP3    H249015   2.556   0.681   7.651 -0.3913  2.1067 -1.8567
 8274TIP3   OH249016   5.484   3.423   6.751  0.0402  0.2311 -0.9248
 8274TIP3    H149017   5.574   3.388   6.750  0.5432  1.4693 -1.4874
 8274TIP3    H249018   5.431   3.355   6.710  0.6688 -0.6598 -0.2792
 8275TIP3   OH249019   4.042   4.134   8.534 -0.2230  0.2405  0.1144
 8275TIP3    H149020   3.981   4.140   8.460  0.0766 -2.1485 -0.4256
 8275TIP3    H249021   3.986   4.120   8.610 -0.4300 -0.4205 -0.1509
 8276TIP3   OH249022   2.490   1.445   6.244 -0.1048 -0.2353  0.5687
 8276TIP3    H149023   2.561   1.417   6.301  0.1096  0.8550  0.8584
 8276TIP3    H249024   2.410   1.425   6.293  0.0531  0.0146  0.9280
 8277TIP3   OH249025   0.293   3.507   7.478 -0.1939 -0.0734  0.8612
 8277TIP3    H149026   0.206   3.500   7.437  0.7883 -1.7770 -1.0696
 8277TIP3    H249027   0.305   3.423   7.523  0.0558  0.5674  2.0279
 8278TIP3   OH249028   3.831   3.666   8.114 -0.0072 -0.5314  0.3525
 8278TIP3    H149029   3.876   3.612   8.179 -3.1360 -3.6069  0.1977
 8278TIP3    H249030   3.796   3.739   8.165  4.0078  1.5329  0.6172
 8279TIP3   OH249031   5.561   0.501   8.314 -0.2322  0.0782  0.2992
 8279TIP3    H149032   5.488   0.462   8.266 -0.4353  0.2408  0.4768
 8279TIP3    H249033   5.533   0.501   8.406 -0.1427  0.4408  0.3272
 8280TIP3   OH249034   1.594   4.282   7.767  0.4834 -0.0813 -0.2113
 8280TIP3    H149035   1.665   4.333   7.727 -0.8434  0.4662 -1.9495
 8280TIP3    H249036   1.620   4.191   7.754  2.1646  0.0605  1.6288
 8281TIP3   OH249037   6.132   2.756   8.292 -0.3096  0.0240  0.5106
 8281TIP3    H149038   6.060   2.739   8.353  0.2807 -0.4589  1.0901
 8281TIP3    H249039   6.165   2.668   8.270  0.4193  0.2597  0.6449
 8282TIP3   OH249040   0.665   3.014   6.614 -0.4062  0.1632 -0.1641
 8282TIP3    H149041   0.618   3.001   6.532  0.1462 -0.6952 -0.3539
 8282TIP3    H249042   0.595   3.020   6.680 -0.8274  0.2112 -0.6082
 8283TIP3   OH249043   5.127   3.270   5.434 -0.2154 -0.0445  0.2488
 8283TIP3    H149044   5.148   3.360   5.411 -1.4265 -0.1377 -1.3608
 8283TIP3    H249045   5.195   3.244   5.496  1.7282  1.0776 -1.3268
 8284TIP3   OH249046   5.729   5.671   7.492  0.1637 -0.6207  0.3758
 8284TIP3    H149047   5.813   5.637   7.461  0.5617 -0.2256  0.9853
 8284TIP3    H249048   5.663   5.624   7.441  0.7732 -0.4016 -0.6400
 8285TIP3   OH249049   4.523   3.310   5.947 -0.0445 -0.4122  0.2175
 8285TIP3    H149050   4.452   3.265   5.992  1.2143 -0.2959  2.4645
 8285TIP3    H249051   4.603   3.275   5.987  1.1668  0.0960 -1.6097
 8286TIP3   OH249052   5.619   0.488   6.444 -0.0359  0.2181  0.0137
 8286TIP3    H149053   5.666   0.568   6.420  0.3905  0.5811  1.8495
 8286TIP3    H249054   5.687   0.421   6.449 -0.0929  0.1770  0.2618
 8287TIP3   OH249055   3.853   0.954   6.771 -0.1634  0.5391 -0.1314
 8287TIP3    H149056   3.784   0.904   6.727 -0.6814  1.9465 -0.9908
 8287TIP3    H249057   3.927   0.950   6.711  1.0475 -2.0576  1.3599
 8288TIP3   OH249058   3.512   0.646   6.381 -0.4623  0.5195 -0.7350
 8288TIP3    H149059   3.566   0.636   6.302  0.5187 -1.4836  0.1472
 8288TIP3    H249060   3.574   0.664   6.451 -1.0359 -0.5457  0.0795
 8289TIP3   OH249061   4.868   4.628   6.072  0.1391  0.1419  0.4144
 8289TIP3    H149062   4.822   4.702   6.033  0.2845  0.2836  0.5087
 8289TIP3    H249063   4.801   4.581   6.121 -0.1668 -0.3620 -0.4713
 8290TIP3   OH249064   3.651   5.996   5.785  0.0398 -0.0546 -0.5671
 8290TIP3    H149065   3.670   5.912   5.742  0.4089  0.2321 -0.9721
 8290TIP3    H249066   3.733   6.045   5.778 -1.0061  1.5051 -3.0113
 8291TIP3   OH249067   3.268   0.115   6.827 -0.3251 -0.2284  0.0048
 8291TIP3    H149068   3.278   0.089   6.736  1.3183 -1.0553  0.3797
 8291TIP3    H249069   3.230   0.202   6.823 -0.0600 -0.1547 -1.4768
 8292TIP3   OH249070   4.855   6.457   6.893  0.6025 -0.3553 -1.1081
 8292TIP3    H149071   4.817   6.372   6.913 -1.7386  0.9968  0.7118
 8292TIP3    H249072   4.821   6.479   6.806 -0.1487 -0.6054 -0.8880
 8293TIP3   OH249073   3.832   1.176   7.823  0.3534  0.2820 -0.5469
 8293TIP3    H149074   3.744   1.207   7.846  0.1163 -0.9867  0.3385
 8293TIP3    H249075   3.850   1.217   7.739 -1.3890 -0.0258 -1.1087
 8294TIP3   OH249076   2.923   2.231   7.757  0.2887  0.2505 -0.6838
 8294TIP3    H149077   2.865   2.296   7.796 -1.4620 -1.7793  0.3279
 8294TIP3    H249078   2.939   2.168   7.827  3.8871  0.7075 -0.8919
 8295TIP3   OH249079   4.884   6.479   5.920  0.2025  0.0370 -0.7412
 8295TIP3    H149080   4.978   6.494   5.923  0.5517 -1.7884 -1.4941
 8295TIP3    H249081   4.847   6.564   5.896  1.6601  0.7416 -0.5869
 8296TIP3   OH249082   2.718   1.879   7.861 -0.3326 -0.7449  0.1760
 8296TIP3    H149083   2.677   1.807   7.910 -0.8282  1.1666  2.7974
 8296TIP3    H249084   2.805   1.887   7.899  0.3723 -1.0493 -1.3299
 8297TIP3   OH249085   0.337   1.731   7.000 -0.0158 -0.3458 -0.1929
 8297TIP3    H149086   0.313   1.817   7.035 -0.4036 -0.3325 -0.4851
 8297TIP3    H249087   0.277   1.718   6.927 -1.9166 -2.0896  1.5430
 8298TIP3   OH249088   6.168   1.296   7.972  0.0219 -0.2875 -0.4072
 8298TIP3    H149089   6.192   1.263   7.885 -0.9891  0.4473 -0.9929
 8298TIP3    H249090   6.149   1.217   8.023  0.8941 -0.7391 -0.7715
 8299TIP3   OH249091   1.290   1.933   7.151 -0.3476  0.1506 -0.4699
 8299TIP3    H149092   1.257   1.875   7.082 -0.9958 -0.3610  0.2657
 8299TIP3    H249093   1.302   1.876   7.227 -0.8296  0.9289  0.2090
 8300TIP3   OH249094   2.473   3.634   7.615  0.1397  0.1977 -0.3713
 8300TIP3    H149095   2.537   3.692   7.655 -0.4950  0.8622 -0.2944
 8300TIP3    H249096   2.389   3.662   7.652 -0.1534 -0.9254 -0.1595
 8301TIP3   OH249097   4.610   0.222   8.227 -0.3273 -0.6594 -0.1425
 8301TIP3    H149098   4.592   0.175   8.309  0.8633 -1.1217 -0.1294
 8301TIP3    H249099   4.689   0.181   8.192 -0.6910 -0.3242 -1.4267
 8302TIP3   OH249100   1.358   6.618   6.378  0.3658  0.4985 -0.5479
 8302TIP3    H149101   1.348   6.625   6.283 -1.1648  1.3147 -0.3523
 8302TIP3    H249102   1.433   6.673   6.399  0.8400  0.1447 -1.3043
 8303TIP3   OH249103   3.833   2.326   7.857 -0.3101  0.2614  0.0796
 8303TIP3    H149104   3.810   2.418   7.848 -1.2772  0.1990  1.5391
 8303TIP3    H249105   3.923   2.327   7.891 -0.2291  0.6530 -0.1417
 8304TIP3   OH249106   1.553   5.670   6.787  0.7576 -0.7051 -0.0924
 8304TIP3    H149107   1.462   5.641   6.785  0.9944 -1.6512  1.2549
 8304TIP3    H249108   1.555   5.747   6.731 -1.0362 -0.2220  0.4373
 8305TIP3   OH249109   4.055   6.585   7.329  0.2122 -0.2179  0.0437
 8305TIP3    H149110   3.973   6.545   7.359 -0.7530  0.8419 -1.0594
 8305TIP3    H249111   4.106   6.512   7.295 -1.3942 -0.6187 -1.6921
 8306TIP3   OH249112   0.639   5.259   7.660  0.5610  0.1903  0.2520
 8306TIP3    H149113   0.605   5.317   7.728 -2.1703 -1.5064  0.4672
 8306TIP3    H249114   0.697   5.315   7.608  0.3432  2.3181  2.1271
 8307TIP3   OH249115   0.642   2.416   8.086  0.1764  0.2009  0.0090
 8307TIP3    H149116   0.586   2.348   8.048  0.5916  0.3118 -0.8288
 8307TIP3    H249117   0.650   2.391   8.178 -1.3042  0.2302  0.1755
 8308TIP3   OH249118   0.617   5.758   5.635  0.6558  0.4228  0.0085
 8308TIP3    H149119   0.704   5.791   5.658  0.5269  1.7984 -1.3170
 8308TIP3    H249120   0.598   5.798   5.549 -0.5238 -1.2811 -0.5777
 8309TIP3   OH249121   2.896   0.526   7.451  0.2850  0.9187 -0.2972
 8309TIP3    H149122   2.929   0.565   7.532 -0.6682  0.8099  0.1668
 8309TIP3    H249123   2.974   0.503   7.401  0.9044  0.5885  0.7856
 8310TIP3   OH249124   5.141   1.808   7.294 -0.2862 -0.1657  0.9540
 8310TIP3    H149125   5.084   1.732   7.310 -1.1072  0.3227  0.4621
 8310TIP3    H249126   5.112   1.872   7.360  0.4842 -0.3136  1.4444
 8311TIP3   OH249127   5.248   1.572   8.146  0.0428 -0.4101  0.2944
 8311TIP3    H149128   5.220   1.499   8.201 -0.5195  0.9985  1.9714
 8311TIP3    H249129   5.322   1.538   8.097 -0.2694 -2.1334  0.9363
 8312TIP3   OH249130   0.937   5.132   8.181 -0.1949  0.2652 -0.1562
 8312TIP3    H149131   0.895   5.191   8.119 -0.1095  0.2577 -0.2216
 8312TIP3    H249132   0.927   5.045   8.143  0.3490  0.3178 -0.4406
 8313TIP3   OH249133   2.304   1.481   5.623 -0.4096 -0.0756  0.3668
 8313TIP3    H149134   2.387   1.503   5.581  2.2940 -1.5812  4.3388
 8313TIP3    H249135   2.262   1.565   5.638  0.7829  0.8050 -0.9646
 8314TIP3   OH249136   6.328   1.061   7.268  0.0198 -0.1771 -0.1830
 8314TIP3    H149137   6.338   1.089   7.177 -0.6054  0.6783 -0.0019
 8314TIP3    H249138   6.416   1.060   7.303  0.1993  0.1489 -0.6123
 8315TIP3   OH249139   3.958   3.977   6.393 -0.4271 -0.4320  0.3214
 8315TIP3    H149140   3.968   3.907   6.458 -0.0035  0.2947  1.0619
 8315TIP3    H249141   4.002   3.943   6.314  2.5329  0.1614  1.5721
 8316TIP3   OH249142   5.336   0.832   8.679  0.1987  0.9171 -0.1593
 8316TIP3    H149143   5.311   0.887   8.753 -1.2397 -1.5518  1.3253
 8316TIP3    H249144   5.342   0.744   8.716  1.0164 -0.1658 -2.6914
 8317TIP3   OH249145   2.517   1.263   6.723 -0.0928 -0.2011 -0.4124
 8317TIP3    H149146   2.462   1.196   6.765 -1.0446  0.0080 -1.2843
 8317TIP3    H249147   2.482   1.346   6.755  1.6709 -0.0816  1.3919
 8318TIP3   OH249148   0.969   0.790   6.889 -0.1079  0.4640  0.1137
 8318TIP3    H149149   0.896   0.734   6.865  0.3493 -0.6911  1.3025
 8318TIP3    H249150   1.010   0.746   6.964 -0.2776  2.8351  1.7188
 8319TIP3   OH249151   6.117   4.159   6.986  0.0302 -0.1067 -0.2060
 8319TIP3    H149152   6.156   4.237   6.945  2.0488 -0.2446  1.3085
 8319TIP3    H249153   6.052   4.195   7.047 -0.1938  0.2991 -0.6755
 8320TIP3   OH249154   5.747   3.482   6.482 -1.1036 -0.1764  0.3146
 8320TIP3    H149155   5.671   3.539   6.465  1.6859  4.0179  0.4590
 8320TIP3    H249156   5.774   3.505   6.570  0.9504 -0.7646 -0.1212
 8321TIP3   OH249157   1.448   3.357   6.829  0.0804  0.9878 -0.1067
 8321TIP3    H149158   1.407   3.362   6.743 -1.9971  0.7855  0.8275
 8321TIP3    H249159   1.530   3.310   6.813 -1.7677 -2.0958 -1.4957
 8322TIP3   OH249160   1.083   3.169   7.307 -0.3148  0.1663 -0.0069
 8322TIP3    H149161   1.172   3.185   7.340  0.0466  0.8293 -1.2123
 8322TIP3    H249162   1.058   3.251   7.265 -1.1126 -0.3193 -0.5105
 8323TIP3   OH249163   5.846   0.606   7.733  0.6113 -0.1311 -0.4649
 8323TIP3    H149164   5.760   0.582   7.700  1.1740 -1.9159 -0.7362
 8323TIP3    H249165   5.900   0.616   7.655  0.7606  0.6572 -0.2790
 8324TIP3   OH249166   5.209   4.941   6.210  0.3940  0.7150  0.3959
 8324TIP3    H149167   5.304   4.936   6.222  0.1947  0.7872  2.2874
 8324TIP3    H249168   5.174   4.877   6.273 -0.7858 -0.2978 -1.2050
 8325TIP3   OH249169   2.737   5.829   7.825 -0.2813  0.3022 -0.5391
 8325TIP3    H149170   2.809   5.789   7.776 -0.7736 -0.6691 -0.5174
 8325TIP3    H249171   2.722   5.913   7.782 -0.1708 -0.1774 -1.5448
 8326TIP3   OH249172   2.232   0.489   9.046 -0.2185  0.5323 -0.4072
 8326TIP3    H149173   2.314   0.510   9.001  0.2474  0.2036  0.2634
 8326TIP3    H249174   2.223   0.395   9.038  0.1266  0.3999  0.5831
 8327TIP3   OH249175   2.028   2.839   8.025  0.1699  0.2298 -0.3425
 8327TIP3    H149176   2.099   2.840   7.961 -0.1830 -0.0006 -0.7444
 8327TIP3    H249177   2.028   2.927   8.063  0.0345  0.5417 -1.0550
 8328TIP3   OH249178   6.663   3.075   7.915  0.5482 -0.2995 -0.2042
 8328TIP3    H149179   6.592   3.019   7.947  0.6352  0.2372  0.9543
 8328TIP3    H249180   6.713   3.098   7.993  1.1429  0.5254 -0.8103
 8329TIP3   OH249181   3.681   6.482   6.047  0.8975  0.8311 -0.1184
 8329TIP3    H149182   3.680   6.430   5.967 -1.2264 -0.2807  0.5562
 8329TIP3    H249183   3.597   6.529   6.046  0.7062  0.5845  1.5541
 8330TIP3   OH249184   4.851   5.103   7.373  0.3299  0.2927  0.2983
 8330TIP3    H149185   4.787   5.056   7.427  0.4315  0.4924  0.5993
 8330TIP3    H249186   4.801   5.172   7.331  0.3871  0.6072  0.7321
 8331TIP3   OH249187   6.405   2.337   7.063 -0.5402 -0.3120 -0.3718
 8331TIP3    H149188   6.412   2.258   7.115  0.4468 -0.4684 -0.7227
 8331TIP3    H249189   6.422   2.309   6.973  2.3992  0.6395 -0.2297
 8332TIP3   OH249190   2.363   6.633   8.652 -0.3005 -0.4433  0.1359
 8332TIP3    H149191   2.456   6.619   8.637  0.1927  0.0707  2.3226
 8332TIP3    H249192   2.342   6.712   8.601  0.0341 -1.4179 -1.6016
 8333TIP3   OH249193   3.527   4.265   6.969 -0.0482 -0.6093 -0.1928
 8333TIP3    H149194   3.546   4.234   7.058  1.4741 -0.7907 -0.5508
 8333TIP3    H249195   3.571   4.201   6.913  0.2222  0.2955 -1.0277
 8334TIP3   OH249196   6.587   3.673   5.526 -0.0433  0.2953  0.1403
 8334TIP3    H149197   6.514   3.671   5.464  0.2469 -1.9252 -0.1967
 8334TIP3    H249198   6.546   3.701   5.608 -0.9272  0.7965 -0.4514
 8335TIP3   OH249199   3.589   1.657   8.636  0.0656 -0.3678  0.0955
 8335TIP3    H149200   3.577   1.622   8.724  1.1251 -0.8218  0.0697
 8335TIP3    H249201   3.564   1.585   8.578  0.2659 -0.3882  0.0336
 8336TIP3   OH249202   1.815   4.167  13.785  0.4889 -0.0584 -0.1863
 8336TIP3    H149203   1.739   4.212  13.748 -0.2453 -0.5159  0.7138
 8336TIP3    H249204   1.872   4.238  13.816 -0.0645  0.2836  0.0743
 8337TIP3   OH249205   1.920   5.790   8.028  0.3606  0.1322  0.1642
 8337TIP3    H149206   1.990   5.850   8.002  0.5245 -0.6758 -1.3534
 8337TIP3    H249207   1.965   5.708   8.048 -0.2254 -1.1144 -3.0196
 8338TIP3   OH249208   4.465   1.857   8.322 -0.6414  0.0979 -0.0984
 8338TIP3    H149209   4.426   1.935   8.361  1.3309  0.4772  1.2895
 8338TIP3    H249210   4.470   1.794   8.394 -1.1495 -0.8953 -0.9130
 8339TIP3   OH249211   6.149   3.230   7.671  0.6078 -0.6756  0.0779
 8339TIP3    H149212   6.163   3.152   7.618  0.9062 -0.1511 -0.6318
 8339TIP3    H249213   6.067   3.266   7.638 -0.0946 -1.2570  1.1309
 8340TIP3   OH249214   4.897   2.336   7.775 -0.0843  0.4899  0.4561
 8340TIP3    H149215   4.904   2.256   7.722 -0.3512  0.6195  0.2223
 8340TIP3    H249216   4.806   2.337   7.804  0.4051 -0.3415  2.1434
 8341TIP3   OH249217   1.897   4.662   8.586 -0.2017  0.4410  0.3129
 8341TIP3    H149218   1.917   4.569   8.592 -0.7006  0.2765 -0.4890
 8341TIP3    H249219   1.805   4.666   8.559  0.1613  1.1544 -0.8903
 8342TIP3   OH249220   5.345   5.054   7.104  0.7736  0.2671 -0.4442
 8342TIP3    H149221   5.389   5.107   7.171  2.9942 -0.0354 -1.5644
 8342TIP3    H249222   5.400   4.977   7.096 -1.1857 -1.2054 -0.4426
 8343TIP3   OH249223   6.400   5.268   7.940 -1.0159  0.0750  0.2433
 8343TIP3    H149224   6.316   5.223   7.951 -1.1556  0.1465 -0.4712
 8343TIP3    H249225   6.377   5.361   7.931 -1.1797 -0.1636 -2.9992
 8344TIP3   OH249226   4.160   0.057   5.666 -0.6533 -0.4499 -0.2449
 8344TIP3    H149227   4.204   0.113   5.731  0.2597 -0.7099 -0.6173
 8344TIP3    H249228   4.208   0.074   5.585 -0.4975 -1.6192 -0.4119
 8345TIP3   OH249229   0.731   0.382   6.840 -0.3413 -0.0455 -0.4294
 8345TIP3    H149230   0.732   0.300   6.891 -0.2785 -0.0212 -0.3920
 8345TIP3    H249231   0.672   0.363   6.766 -2.3461  0.6680  0.8926
 8346TIP3   OH249232   1.727   0.591   5.758 -0.5279  0.1185  0.1591
 8346TIP3    H149233   1.778   0.561   5.833 -0.2414  0.3278  0.0505
 8346TIP3    H249234   1.656   0.527   5.750 -0.1362 -0.3220  0.1522
 8347TIP3   OH249235   4.246   6.368   8.201 -0.6712  0.2806 -0.4236
 8347TIP3    H149236   4.219   6.448   8.246  0.6056  0.9923 -0.8661
 8347TIP3    H249237   4.326   6.341   8.247 -0.3695 -0.0034 -1.1013
 8348TIP3   OH249238   2.717   5.790  16.332  0.2290 -1.0677 -0.7415
 8348TIP3    H149239   2.688   5.876  16.303 -0.3588 -1.5600 -1.6226
 8348TIP3    H249240   2.686   5.784  16.423  0.0922 -0.4525 -0.7402
 8349TIP3   OH249241   3.122   4.783   9.605 -0.0273 -0.0320 -0.7510
 8349TIP3    H149242   3.044   4.761   9.657  0.5951 -0.4863  0.0226
 8349TIP3    H249243   3.175   4.704   9.607  0.4275  0.2516 -1.3331
 8350TIP3   OH249244   2.149   0.406   6.055 -0.4558  0.1720  0.3153
 8350TIP3    H149245   2.133   0.318   6.020  2.8943 -0.6445  0.4391
 8350TIP3    H249246   2.133   0.398   6.149 -0.9454 -0.0756  0.2147
 8351TIP3   OH249247   2.096   3.553   7.613  0.1668 -0.5883 -0.4015
 8351TIP3    H149248   2.139   3.615   7.554  0.3523  0.5982  0.9343
 8351TIP3    H249249   2.111   3.588   7.701 -0.2572 -2.2120  0.3599
 8352TIP3   OH249250   1.231   4.523   5.543  0.4935  0.6377  0.2375
 8352TIP3    H149251   1.161   4.492   5.600  1.2015  0.5422  1.0858
 8352TIP3    H249252   1.197   4.603   5.503 -1.0717 -0.7623 -1.4000
 8353TIP3   OH249253   4.498   4.401   6.386  0.2176 -0.2759  0.3631
 8353TIP3    H149254   4.409   4.373   6.408  0.0821 -0.6241 -0.5821
 8353TIP3    H249255   4.554   4.354   6.448 -0.2248 -0.3920  0.6797
 8354TIP3   OH249256   5.091   6.732   8.002 -0.7820 -0.5247  0.3212
 8354TIP3    H149257   5.022   6.765   8.059 -1.4313  1.2307 -1.3995
 8354TIP3    H249258   5.060   6.646   7.974 -1.6852 -0.2766  0.5386
 8355TIP3   OH249259   6.259   5.513   7.894  0.1273  0.2990  0.3115
 8355TIP3    H149260   6.229   5.519   7.803  1.5374  0.3501 -0.1681
 8355TIP3    H249261   6.308   5.593   7.909  2.2774 -0.9163  0.1967
 8356TIP3   OH249262   0.950   5.712   6.771  0.0693  0.3285  0.0693
 8356TIP3    H149263   0.933   5.638   6.713 -0.1058  1.9933 -2.1572
 8356TIP3    H249264   1.018   5.762   6.726 -0.6958  2.1607  0.8521
 8357TIP3   OH249265   5.271   2.465   5.819 -0.7617  0.1868 -0.2362
 8357TIP3    H149266   5.309   2.396   5.766  1.4632  0.0471  1.3820
 8357TIP3    H249267   5.255   2.424   5.904 -0.4563  1.3775  0.4178
 8358TIP3   OH249268   4.616   1.220   6.541  0.2250 -0.1357  0.1246
 8358TIP3    H149269   4.646   1.290   6.600 -0.2628 -1.2661  1.7864
 8358TIP3    H249270   4.529   1.197   6.574  0.0508 -1.0007 -0.8982
 8359TIP3   OH249271   5.566   5.015   6.662  0.1497  0.2144  0.2868
 8359TIP3    H149272   5.524   5.084   6.611  0.5534 -0.0335 -0.3858
 8359TIP3    H249273   5.660   5.034   6.657  0.3899 -1.1505 -1.0798
 8360TIP3   OH249274   5.737   5.916   6.299 -0.1764  0.3307  0.0591
 8360TIP3    H149275   5.684   5.984   6.256  1.1679  1.1502 -0.3768
 8360TIP3    H249276   5.712   5.835   6.255 -2.5440  0.3369  1.2574
 8361TIP3   OH249277   4.334   3.912   6.542  0.5465  0.3472  0.2035
 8361TIP3    H149278   4.361   3.997   6.577 -1.8310  0.9173  0.8011
 8361TIP3    H249279   4.313   3.929   6.450 -2.4383  1.1146  0.9194
 8362TIP3   OH249280   3.672   1.864   7.228  0.6903  0.1870  0.5989
 8362TIP3    H149281   3.765   1.886   7.242 -0.0467  1.8665  4.3625
 8362TIP3    H249282   3.661   1.779   7.271  0.8335 -1.1964 -1.9304
 8363TIP3   OH249283   4.352   4.616   9.715  0.1153 -0.2634  0.1693
 8363TIP3    H149284   4.435   4.664   9.717  0.0616 -0.1835  0.7807
 8363TIP3    H249285   4.346   4.582   9.626  0.1709  0.8263 -0.2594
 8364TIP3   OH249286   6.365   5.461   6.244 -0.0386  0.4480  0.3088
 8364TIP3    H149287   6.361   5.392   6.310 -0.3134  0.2971  0.1378
 8364TIP3    H249288   6.370   5.414   6.161  0.6141  0.6373  0.2405
 8365TIP3   OH249289   4.167   4.807   7.424 -0.2515  0.3143  0.0267
 8365TIP3    H149290   4.215   4.725   7.419 -0.6091  0.1778 -1.7578
 8365TIP3    H249291   4.202   4.860   7.353  0.2703  1.9093  1.4055
 8366TIP3   OH249292   0.406   4.528   5.540  0.1445 -0.5014 -0.3321
 8366TIP3    H149293   0.428   4.464   5.472  0.1813 -0.0361 -0.7657
 8366TIP3    H249294   0.344   4.587   5.498 -0.5843 -0.7668  0.3445
 8367TIP3   OH249295   1.461   1.926   6.602 -0.0921  0.3990 -0.1600
 8367TIP3    H149296   1.538   1.931   6.659 -0.3759 -0.6375  0.3308
 8367TIP3    H249297   1.462   2.009   6.554  0.8793  0.7407  0.4149
 8368TIP3   OH249298   0.864   0.852   7.921 -0.6378  0.0821  0.2484
 8368TIP3    H149299   0.828   0.823   7.838 -0.0354  0.3432 -0.1095
 8368TIP3    H249300   0.958   0.863   7.905 -0.3876 -0.5765  1.1621
 8369TIP3   OH249301   5.151   6.333   7.038 -0.2454 -0.8281 -0.1703
 8369TIP3    H149302   5.150   6.425   7.012 -0.3644 -0.8663 -0.3021
 8369TIP3    H249303   5.107   6.287   6.967 -0.6931 -0.9161  0.1564
 8370TIP3   OH249304   5.358   1.210   7.604 -0.2853  0.1524  0.1439
 8370TIP3    H149305   5.328   1.157   7.530 -2.9065  1.4079  0.1969
 8370TIP3    H249306   5.283   1.213   7.663  0.4156  2.3989  1.0127
 8371TIP3   OH249307   0.595   3.722   5.651  0.8461 -0.1645  0.4455
 8371TIP3    H149308   0.541   3.717   5.729  0.8641 -1.8678  0.4018
 8371TIP3    H249309   0.535   3.746   5.581  0.2918 -1.2136  0.5436
 8372TIP3   OH249310   1.978   0.108   8.191  0.1273  0.2281 -0.5462
 8372TIP3    H149311   2.071   0.100   8.211 -0.1573  2.2085  2.1118
 8372TIP3    H249312   1.970   0.193   8.146 -0.4793  0.4974  0.0489
 8373TIP3   OH249313   4.911   0.979   7.829 -0.0228  0.0547  0.0191
 8373TIP3    H149314   4.933   0.963   7.921 -0.9055  2.6024  0.7678
 8373TIP3    H249315   4.996   0.984   7.785  0.5623  1.3559  1.2198
 8374TIP3   OH249316   1.146   6.356   9.185 -0.0658  0.1177 -0.5481
 8374TIP3    H149317   1.210   6.426   9.196 -0.2700  0.0446  1.4616
 8374TIP3    H249318   1.061   6.396   9.207 -0.2726 -0.5638 -0.0472
 8375TIP3   OH249319   4.209   1.045   6.006  0.4102  0.4011  0.3231
 8375TIP3    H149320   4.191   0.964   6.054 -0.9439  0.3959 -0.1506
 8375TIP3    H249321   4.257   1.100   6.069 -0.6128  0.0829  1.4185
 8376TIP3   OH249322   1.824   4.124   6.383  0.2296 -0.6155  0.1862
 8376TIP3    H149323   1.735   4.157   6.391  0.2668 -0.7800  1.5185
 8376TIP3    H249324   1.817   4.052   6.320 -0.7251 -1.1171  0.8478
 8377TIP3   OH249325   1.150   0.918   5.718 -0.3056 -0.7618 -0.2073
 8377TIP3    H149326   1.095   0.844   5.745  1.2635 -1.5152  1.0649
 8377TIP3    H249327   1.239   0.891   5.740  0.4111  1.1470 -0.5921
 8378TIP3   OH249328   0.826   3.806   5.723 -0.1782  0.2707  0.6039
 8378TIP3    H149329   0.799   3.837   5.810 -1.4584  0.7180  0.0735
 8378TIP3    H249330   0.746   3.770   5.684  0.2298  0.6262 -0.6206
 8379TIP3   OH249331   0.921   1.801   6.929 -0.0920 -0.2099 -0.2027
 8379TIP3    H149332   0.910   1.714   6.890  0.8930 -0.6306  0.4288
 8379TIP3    H249333   1.011   1.802   6.961 -0.5763  0.4406  1.2503
 8380TIP3   OH249334   6.389   3.731   5.986  0.4322  0.5735 -0.0088
 8380TIP3    H149335   6.466   3.713   5.932 -0.5079 -0.8119 -0.9433
 8380TIP3    H249336   6.386   3.658   6.048  0.0277  0.7804  0.2184
 8381TIP3   OH249337   2.140   2.007   7.788  0.2341 -0.8873 -0.1404
 8381TIP3    H149338   2.087   2.016   7.709  0.5054  0.2540 -0.2070
 8381TIP3    H249339   2.080   1.970   7.853 -0.0458 -1.6389 -0.8039
 8382TIP3   OH249340   5.926   5.542   7.375  0.2399  0.4168  0.1372
 8382TIP3    H149341   5.883   5.548   7.289 -1.7408  0.1147  1.0579
 8382TIP3    H249342   6.015   5.574   7.359  0.2585 -0.6128 -2.2428
 8383TIP3   OH249343   2.148   1.068   8.566  0.3373 -0.3247 -0.1124
 8383TIP3    H149344   2.149   0.989   8.512  2.0848  0.1614 -0.8812
 8383TIP3    H249345   2.237   1.075   8.600  0.0768  1.0294  0.3731
 8384TIP3   OH249346   1.611   4.276   6.142  0.6390  0.0120 -0.0449
 8384TIP3    H149347   1.575   4.246   6.225  0.2358 -0.0992 -0.2568
 8384TIP3    H249348   1.628   4.369   6.156 -0.1472  0.1721 -0.0696
 8385TIP3   OH249349   1.844   6.135   5.944  0.4716 -0.5039 -0.8466
 8385TIP3    H149350   1.937   6.139   5.967  0.9012 -0.7166 -2.3854
 8385TIP3    H249351   1.827   6.041   5.932 -0.0517 -0.4977 -0.1627
 8386TIP3   OH249352   1.134   2.300   5.431 -0.1687 -0.1026  0.1102
 8386TIP3    H149353   1.111   2.283   5.340  0.0112 -0.2620  0.0943
 8386TIP3    H249354   1.058   2.271   5.481 -0.7162  0.9864 -0.0571
 8387TIP3   OH249355   6.099   4.171   7.700 -0.5567 -0.6447  0.3060
 8387TIP3    H149356   6.149   4.090   7.698 -0.6492 -0.8718  3.0545
 8387TIP3    H249357   6.165   4.240   7.703 -0.4771 -0.5392 -2.1068
 8388TIP3   OH249358   2.324   4.608   6.254 -0.2512  0.0976 -0.1688
 8388TIP3    H149359   2.334   4.604   6.349 -1.4607  0.8482  0.0130
 8388TIP3    H249360   2.249   4.550   6.236  1.2175 -1.6535 -0.9099
 8389TIP3   OH249361   6.263   5.139   8.391  0.7451  0.1236 -0.2656
 8389TIP3    H149362   6.313   5.103   8.464  0.7433  0.5807 -0.0333
 8389TIP3    H249363   6.188   5.080   8.382  1.5044 -0.7858 -0.8618
 8390TIP3   OH249364   6.243   4.118   8.088 -0.4519  0.1131 -0.0577
 8390TIP3    H149365   6.161   4.071   8.075 -1.0628  1.1013  0.0869
 8390TIP3    H249366   6.305   4.051   8.116 -1.2741 -0.6110  0.0770
 8391TIP3   OH249367   6.740   5.754   6.636  0.4206  0.0410 -0.0303
 8391TIP3    H149368   6.716   5.691   6.704  1.5211 -0.1233  0.2289
 8391TIP3    H249369   6.836   5.756   6.638  0.4131  1.4502 -0.2985
 8392TIP3   OH249370   6.165   2.481   7.079 -0.3197 -0.4651  0.0926
 8392TIP3    H149371   6.124   2.418   7.138 -0.2048  1.0184  1.8336
 8392TIP3    H249372   6.243   2.436   7.048 -1.3311 -1.9590 -0.4052
 8393TIP3   OH249373   5.203   3.448   8.701  0.3023 -0.1634  0.5727
 8393TIP3    H149374   5.173   3.357   8.704  1.1647 -0.4269  2.3788
 8393TIP3    H249375   5.297   3.442   8.716  0.1861  1.1055  1.9235
 8394TIP3   OH249376   6.364   4.611   7.225  0.7332 -0.0270 -0.3800
 8394TIP3    H149377   6.392   4.633   7.136 -2.5973  2.3333 -1.0222
 8394TIP3    H249378   6.292   4.550   7.214  2.1952 -2.1373  0.9547
 8395TIP3   OH249379   5.377   3.677   6.817 -0.0791 -0.2138 -0.2901
 8395TIP3    H149380   5.281   3.684   6.814 -0.2411 -1.8520  0.1387
 8395TIP3    H249381   5.395   3.585   6.798  1.4733  0.2381 -1.1683
 8396TIP3   OH249382   1.298   0.285   7.729 -0.4002  0.4167 -0.2738
 8396TIP3    H149383   1.337   0.365   7.763 -0.9022  0.1959  0.8616
 8396TIP3    H249384   1.239   0.255   7.798  0.4928 -1.4452 -0.2653
 8397TIP3   OH249385   3.768   3.125   8.940  0.8657 -0.4461 -0.1399
 8397TIP3    H149386   3.804   3.132   9.028 -0.8906  0.9968  0.5250
 8397TIP3    H249387   3.693   3.066   8.949 -0.4265  1.1222 -0.2356
 8398TIP3   OH249388   2.075   6.624   7.395 -0.5796 -0.4653 -0.0991
 8398TIP3    H149389   2.093   6.628   7.489 -0.6237 -0.5329 -0.0878
 8398TIP3    H249390   2.108   6.538   7.368 -0.1760 -0.2758 -0.2279
 8399TIP3   OH249391   5.648   3.986   7.035  0.2669 -0.7395 -0.2328
 8399TIP3    H149392   5.700   4.027   7.104  0.5286 -1.1447 -0.1875
 8399TIP3    H249393   5.713   3.955   6.972 -0.0254  0.8241 -1.3399
 8400TIP3   OH249394   5.777   0.046   6.571  0.0950  0.2958  0.3844
 8400TIP3    H149395   5.764   0.026   6.479  1.0465  0.0101  0.2997
 8400TIP3    H249396   5.709  -0.002   6.617 -0.6030  0.7215 -0.1923
 8401TIP3   OH249397   1.436   0.979   6.368 -1.0705  0.4223 -0.1501
 8401TIP3    H149398   1.367   0.967   6.303 -0.6103 -2.2202 -0.2552
 8401TIP3    H249399   1.390   0.995   6.450 -1.7276  1.0130 -0.6274
 8402TIP3   OH249400   1.705   4.537   7.238  0.4964 -0.0042 -0.2923
 8402TIP3    H149401   1.743   4.473   7.178  0.0085  1.1656 -1.9124
 8402TIP3    H249402   1.624   4.497   7.268 -0.1171  0.0692 -1.7718
 8403TIP3   OH249403   6.227   0.251   7.149  0.1283 -0.8375 -0.0514
 8403TIP3    H149404   6.172   0.187   7.103  0.6246  0.0686 -2.0224
 8403TIP3    H249405   6.189   0.336   7.126 -0.7480 -0.3416  2.8177
 8404TIP3   OH249406   3.207   1.715   6.663 -0.2779 -0.2939 -0.0001
 8404TIP3    H149407   3.283   1.771   6.650 -1.1468  0.8336 -0.4457
 8404TIP3    H249408   3.229   1.633   6.618  0.7685 -0.0901  0.1216
 8405TIP3   OH249409   6.375   2.484   7.487  0.4236  0.1595  0.7851
 8405TIP3    H149410   6.434   2.486   7.411 -0.4183  1.2871  0.1406
 8405TIP3    H249411   6.400   2.404   7.534  1.2418 -0.3453 -0.4503
 8406TIP3   OH249412   6.695   4.200   9.053 -0.3449 -0.0795 -0.6705
 8406TIP3    H149413   6.742   4.137   8.998 -0.3766 -0.4798 -0.2452
 8406TIP3    H249414   6.762   4.263   9.081 -0.0877 -0.5556 -0.1979
 8407TIP3   OH249415   1.292   5.598   5.660  0.1449 -0.1251  0.6452
 8407TIP3    H149416   1.206   5.622   5.624  0.1498  0.0123  0.7246
 8407TIP3    H249417   1.272   5.532   5.726  0.1413 -0.4177  0.3542
 8408TIP3   OH249418   5.579   6.114   5.613 -0.2197 -0.3807  0.4446
 8408TIP3    H149419   5.512   6.117   5.544 -1.0979 -1.9826  1.1619
 8408TIP3    H249420   5.562   6.191   5.667 -0.4288  0.1163 -0.3229
 8409TIP3   OH249421   1.421   3.878   7.742  0.1783  0.5328  0.1892
 8409TIP3    H149422   1.409   3.844   7.831 -1.8575 -0.2105 -0.3063
 8409TIP3    H249423   1.409   3.802   7.686 -0.6586  1.3728 -0.7998
 8410TIP3   OH249424   6.397   1.555   7.113  0.3484  0.3507  0.1863
 8410TIP3    H149425   6.343   1.618   7.067  0.1881 -0.0469 -0.1779
 8410TIP3    H249426   6.482   1.561   7.071  0.0409 -0.4355 -0.5701
 8411TIP3   OH249427   4.194   1.813   7.540  0.0468 -0.5825 -0.8459
 8411TIP3    H149428   4.243   1.870   7.599  3.2333 -1.6323 -2.2319
 8411TIP3    H249429   4.114   1.861   7.521  0.7192  1.5354  1.1779
 8412TIP3   OH249430   1.775   3.334   6.891 -0.5516  0.4286 -0.5622
 8412TIP3    H149431   1.794   3.276   6.965 -3.4706  0.0048 -0.0372
 8412TIP3    H249432   1.804   3.284   6.814  0.2046 -0.2006  0.1127
 8413TIP3   OH249433   2.328   1.664   6.355 -0.0409 -0.0979 -0.0486
 8413TIP3    H149434   2.406   1.681   6.407  0.0300 -0.0195 -0.1815
 8413TIP3    H249435   2.320   1.569   6.352  0.5208 -0.1290 -0.7440
 8414TIP3   OH249436   5.654   1.710   5.672  0.5777  0.2637 -0.0213
 8414TIP3    H149437   5.563   1.682   5.674  0.5312  0.3810 -0.3845
 8414TIP3    H249438   5.697   1.658   5.739  0.3468 -0.1592 -0.1989
 8415TIP3   OH249439   6.143   2.727   6.670  0.3275 -0.3684  0.1141
 8415TIP3    H149440   6.224   2.776   6.654  0.3930 -0.3910  0.3781
 8415TIP3    H249441   6.112   2.758   6.755 -0.4303  0.3138 -0.3830
 8416TIP3   OH249442   0.575   1.747   6.751  0.2044  0.3663  0.7826
 8416TIP3    H149443   0.562   1.812   6.820  1.0966  2.1155 -0.6317
 8416TIP3    H249444   0.638   1.787   6.692  1.2961 -2.0872  0.1866
 8417TIP3   OH249445   2.857   4.568   8.556 -0.3346 -0.8807  0.0629
 8417TIP3    H149446   2.844   4.484   8.601 -0.4768 -0.4567  0.8257
 8417TIP3    H249447   2.771   4.610   8.557 -0.1404 -0.4806  0.1962
 8418TIP3   OH249448   3.882   6.197   7.072 -0.1986 -0.3637  0.0418
 8418TIP3    H149449   3.876   6.132   7.143 -1.9880 -0.2232  0.0676
 8418TIP3    H249450   3.842   6.276   7.109 -0.5502 -0.0914 -0.9044
 8419TIP3   OH249451   1.309   1.913   8.539 -0.0274  0.5047 -0.5133
 8419TIP3    H149452   1.268   1.876   8.460 -0.7871 -0.6927  0.4084
 8419TIP3    H249453   1.398   1.879   8.538 -0.1631  0.1440 -0.6372
 8420TIP3   OH249454   1.150   1.081   6.382 -0.0710  0.2268 -0.2946
 8420TIP3    H149455   1.164   1.096   6.476  2.1238  2.5431 -0.8942
 8420TIP3    H249456   1.057   1.099   6.369 -0.4769 -0.3763  1.4512
 8421TIP3   OH249457   5.190   3.942   8.973  0.3384 -0.4046 -0.9104
 8421TIP3    H149458   5.256   3.977   8.913 -0.3499  0.6402 -1.0855
 8421TIP3    H249459   5.125   3.901   8.915  0.0662 -0.0761 -0.8429
 8422TIP3   OH249460   0.341   5.279   8.073  0.4167  0.8407  0.6679
 8422TIP3    H149461   0.317   5.248   8.160 -0.3885  0.6301  0.3784
 8422TIP3    H249462   0.297   5.219   8.013  1.2061  0.8062  0.1170
 8423TIP3   OH249463   4.578   1.213   7.633  0.1036 -0.3866 -0.4075
 8423TIP3    H149464   4.608   1.123   7.624  2.6100  0.4398 -1.3200
 8423TIP3    H249465   4.498   1.218   7.582  0.8900 -1.7115 -1.8421
 8424TIP3   OH249466   5.611   5.675   8.297  0.5678  0.3185 -0.1901
 8424TIP3    H149467   5.666   5.735   8.347 -0.2212  1.5606 -0.7550
 8424TIP3    H249468   5.669   5.604   8.271  1.0540 -0.2418  2.2450
 8425TIP3   OH249469   1.615   3.216   8.113  0.0681 -0.5732  0.5619
 8425TIP3    H149470   1.572   3.155   8.174 -1.2451 -0.5617 -0.3013
 8425TIP3    H249471   1.687   3.165   8.075  0.4874 -0.7906  1.6156
 8426TIP3   OH249472   4.761   3.370   7.883 -0.1494 -0.0430 -0.1686
 8426TIP3    H149473   4.704   3.332   7.950  0.4686  0.0383  0.4175
 8426TIP3    H249474   4.850   3.354   7.915  0.1316  1.4130 -0.1613
 8427TIP3   OH249475   3.722   4.401   5.955 -0.1983 -0.5351  0.7652
 8427TIP3    H149476   3.700   4.309   5.937 -1.9086  0.2199 -1.2913
 8427TIP3    H249477   3.638   4.445   5.963  0.5384  1.4158 -1.4176
 8428TIP3   OH249478   3.913   5.524   5.880 -0.1450 -0.5425  0.4272
 8428TIP3    H149479   3.877   5.482   5.802 -0.3330  2.6052 -1.3428
 8428TIP3    H249480   3.842   5.580   5.912  1.0499  0.8244  0.7947
 8429TIP3   OH249481   4.783   5.756   8.295  0.2006  0.8173 -0.0975
 8429TIP3    H149482   4.712   5.694   8.278 -0.2687  1.1903  0.4485
 8429TIP3    H249483   4.790   5.808   8.215  0.3890  0.2681 -0.4435
 8430TIP3   OH249484   4.208   3.824   9.194  0.3782  0.0626 -0.2289
 8430TIP3    H149485   4.214   3.780   9.278  0.4854 -0.0108 -0.2761
 8430TIP3    H249486   4.204   3.917   9.216  0.2810  0.0371 -0.1379
 8431TIP3   OH249487   4.109   2.724   7.881  0.3432 -0.0663 -0.0869
 8431TIP3    H149488   4.067   2.809   7.867  0.9201  0.0608 -1.1271
 8431TIP3    H249489   4.163   2.711   7.804 -0.8538 -2.0571 -0.6457
 8432TIP3   OH249490   2.500   6.427   7.058 -0.3408 -0.2889 -0.3255
 8432TIP3    H149491   2.447   6.480   6.998 -1.8680  0.5322  1.6398
 8432TIP3    H249492   2.454   6.433   7.142  0.2823 -3.4579  0.3731
 8433TIP3   OH249493   4.793   5.828   7.903 -0.3465 -0.1140  0.2060
 8433TIP3    H149494   4.709   5.785   7.885  1.0526 -2.5219 -0.9604
 8433TIP3    H249495   4.791   5.845   7.998 -1.8459 -0.7742  0.3214
 8434TIP3   OH249496   2.857   5.091   7.968 -0.6487  0.3892 -0.1398
 8434TIP3    H149497   2.817   5.086   7.882 -0.9798  0.5703  0.0013
 8434TIP3    H249498   2.943   5.050   7.957 -0.3788  1.0913 -0.7378
 8435TIP3   OH249499   2.112   0.465   5.698  0.1568  0.5676  0.7956
 8435TIP3    H149500   2.170   0.393   5.724  0.9499  0.3517 -1.4001
 8435TIP3    H249501   2.024   0.428   5.703  0.6009 -0.9187 -1.1680
 8436TIP3   OH249502   3.555   5.124   7.331  0.3138  0.6177  0.3542
 8436TIP3    H149503   3.606   5.045   7.349  0.4247  0.1297 -1.8646
 8436TIP3    H249504   3.608   5.195   7.368  1.1226 -0.1654  0.7486
 8437TIP3   OH249505   4.718   3.719   8.487  0.0560  0.7590  0.0894
 8437TIP3    H149506   4.634   3.693   8.449 -0.5104  1.7760  0.6232
 8437TIP3    H249507   4.768   3.637   8.492 -2.3566 -0.7218  3.4377
 8438TIP3   OH249508   0.001   5.126   8.163  0.1764 -0.5263 -0.4844
 8438TIP3    H149509  -0.065   5.077   8.211 -0.8765  1.4100  0.1195
 8438TIP3    H249510   0.070   5.143   8.227 -0.6076  0.8782  0.0348
 8439TIP3   OH249511   0.547   6.021   5.902  0.2267 -0.1543  0.0635
 8439TIP3    H149512   0.618   6.068   5.858  1.7936 -0.3130  2.2854
 8439TIP3    H249513   0.586   5.988   5.983 -2.6698  0.8839  2.0644
 8440TIP3   OH249514   3.611   5.190   5.503  0.0300  0.3591  0.5121
 8440TIP3    H149515   3.642   5.111   5.459 -0.3383  1.6319 -2.2796
 8440TIP3    H249516   3.692   5.237   5.525  0.2350  0.5864 -0.6441
 8441TIP3   OH249517   2.646   5.937   5.982 -0.4124 -0.5247  0.1031
 8441TIP3    H149518   2.729   5.890   5.991 -0.1223 -0.0296  0.0355
 8441TIP3    H249519   2.670   6.023   5.950 -0.9709 -0.4303 -0.0793
 8442TIP3   OH249520   0.693   0.270   8.508  0.5843  0.3394 -0.2587
 8442TIP3    H149521   0.687   0.251   8.601 -2.4070  0.6113 -0.2844
 8442TIP3    H249522   0.691   0.366   8.503 -0.3461  0.3134 -0.6001
 8443TIP3   OH249523   3.128   0.970   5.910  0.1321 -0.2535 -0.9386
 8443TIP3    H149524   3.084   0.886   5.898  1.6563 -1.3248  0.5196
 8443TIP3    H249525   3.117   1.016   5.826  1.9349 -3.2051 -2.9775
 8444TIP3   OH249526   6.365   5.451   7.218  0.5108  0.0780 -0.0177
 8444TIP3    H149527   6.324   5.538   7.209  0.7755  0.1398 -0.6652
 8444TIP3    H249528   6.386   5.426   7.128  0.7943 -0.4889  0.2093
 8445TIP3   OH249529   1.644   2.030   5.655 -0.4196 -0.0947 -0.4725
 8445TIP3    H149530   1.666   2.123   5.664  0.0999 -0.2713  0.1653
 8445TIP3    H249531   1.726   1.985   5.674 -0.5894 -0.6779 -1.0889
 8446TIP3   OH249532   5.671   0.602   7.293 -0.1833 -0.4545 -0.0653
 8446TIP3    H149533   5.697   0.583   7.203  0.5726 -0.9647  0.2455
 8446TIP3    H249534   5.713   0.533   7.345  0.0242  0.2703  0.7591
 8447TIP3   OH249535   4.654   4.613   7.562  0.0687 -0.0866  0.3756
 8447TIP3    H149536   4.743   4.614   7.596 -0.4165  1.1658  1.6606
 8447TIP3    H249537   4.625   4.522   7.572  2.0893 -1.2366 -2.6356
 8448TIP3   OH249538   0.333   1.433   7.594  0.5055  0.1565  0.0870
 8448TIP3    H149539   0.321   1.338   7.604 -0.7458  0.1641 -0.9713
 8448TIP3    H249540   0.404   1.442   7.530 -0.1398 -0.1104 -0.6877
 8449TIP3   OH249541   4.293   2.957   7.655 -0.2970  0.0732 -0.1396
 8449TIP3    H149542   4.262   2.903   7.583  0.2031 -0.3110 -0.0745
 8449TIP3    H249543   4.341   3.028   7.612 -2.0243  1.2208 -0.2916
 8450TIP3   OH249544   1.671   6.059   7.379  0.1799 -0.2485  0.2130
 8450TIP3    H149545   1.720   6.139   7.359 -0.2255  0.1556  0.8271
 8450TIP3    H249546   1.738   5.997   7.407  0.5308 -0.2172 -0.5218
 8451TIP3   OH249547   3.182   6.317   6.921  0.2749  0.3836 -0.1274
 8451TIP3    H149548   3.157   6.226   6.940 -1.3101  0.4161 -1.7769
 8451TIP3    H249549   3.229   6.311   6.837  0.7989  1.0236  0.1108
 8452TIP3   OH249550   0.628   6.597   7.134 -0.6530  0.4107 -0.0372
 8452TIP3    H149551   0.614   6.506   7.160  2.7976 -0.4222 -0.6487
 8452TIP3    H249552   0.578   6.648   7.198 -0.4934 -1.8507  2.0297
 8453TIP3   OH249553   0.802   3.310   6.770 -0.6309 -0.1245 -0.1061
 8453TIP3    H149554   0.781   3.253   6.845  0.0797  0.0245  0.2106
 8453TIP3    H249555   0.743   3.280   6.701 -2.2666  0.6215  0.8955
 8454TIP3   OH249556   1.296   2.789   5.302  0.3377  0.3741  0.1230
 8454TIP3    H149557   1.257   2.753   5.222 -1.5028 -1.1696  1.5837
 8454TIP3    H249558   1.223   2.834   5.346  0.7773 -0.4237  1.7767
 8455TIP3   OH249559   0.589   5.263   6.264  0.4414  0.1825 -0.8101
 8455TIP3    H149560   0.531   5.188   6.281  0.9059 -0.0566 -0.2360
 8455TIP3    H249561   0.592   5.269   6.169 -1.1863  0.7235 -0.8608
 8456TIP3   OH249562   1.687   2.133   7.640  0.2573  0.2884  0.1328
 8456TIP3    H149563   1.606   2.117   7.689  1.3892 -1.7770  1.5005
 8456TIP3    H249564   1.724   2.212   7.680 -0.2774  0.2793  0.6626
 8457TIP3   OH249565   0.115   6.737   6.759 -0.1483 -0.0901 -0.8095
 8457TIP3    H149566   0.157   6.663   6.714 -0.5369 -1.1490  0.5173
 8457TIP3    H249567   0.022   6.725   6.742 -0.3541 -0.8308  0.6974
 8458TIP3   OH249568   0.496   4.758   7.411 -0.3356  0.1341 -0.7835
 8458TIP3    H149569   0.509   4.852   7.407 -0.2713  0.1940  0.4762
 8458TIP3    H249570   0.401   4.747   7.410 -0.3480  0.2317 -0.7103
 8459TIP3   OH249571   0.393   5.484   7.797  0.7971  0.1339  0.5406
 8459TIP3    H149572   0.413   5.466   7.889 -2.2734 -1.4541  1.0258
 8459TIP3    H249573   0.298   5.490   7.794  0.8513  1.0527 -2.4350
 8460TIP3   OH249574   6.382   0.023   7.187 -0.0066  0.2548  0.1316
 8460TIP3    H149575   6.340  -0.047   7.237 -0.4008  0.7962  0.5813
 8460TIP3    H249576   6.332   0.101   7.210 -0.2067  0.5122 -1.1470
 8461TIP3   OH249577   4.021   3.917   5.676 -0.2099 -0.2976 -0.1373
 8461TIP3    H149578   3.956   3.928   5.606 -0.9261 -0.8543  0.4324
 8461TIP3    H249579   4.011   3.996   5.730  0.7683  0.4360 -0.9772
 8462TIP3   OH249580   2.547   6.444   6.706 -0.6615 -0.2429  0.4419
 8462TIP3    H149581   2.465   6.436   6.755 -1.3312  0.5985 -0.4925
 8462TIP3    H249582   2.547   6.534   6.673  0.7921 -0.1298  0.6646
 8463TIP3   OH249583   1.820   3.970   7.088 -0.7204  0.6606  0.4988
 8463TIP3    H149584   1.860   4.042   7.039  1.0437 -0.0094  0.9041
 8463TIP3    H249585   1.814   3.898   7.025 -1.1276  0.7043  0.4868
 8464TIP3   OH249586   2.074   0.561   6.719  0.0917  0.5352 -0.0044
 8464TIP3    H149587   2.025   0.544   6.639  1.8768 -1.2420 -0.8178
 8464TIP3    H249588   2.032   0.637   6.758 -2.2175  0.0926 -1.4747
 8465TIP3   OH249589   5.316   0.156   7.991  0.3342 -0.0012 -0.0775
 8465TIP3    H149590   5.244   0.095   8.005  0.1091  0.5339  1.1608
 8465TIP3    H249591   5.381   0.105   7.942 -0.7317 -0.5791 -0.9444
 8466TIP3   OH249592   3.753   2.752   5.609 -0.0570 -0.0554 -0.1831
 8466TIP3    H149593   3.829   2.715   5.654 -0.5515  0.1820  0.8788
 8466TIP3    H249594   3.777   2.843   5.593  0.0237 -0.0717 -0.1551
 8467TIP3   OH249595   1.178   1.654   6.519 -0.4833 -0.2244 -0.3268
 8467TIP3    H149596   1.175   1.739   6.475  1.2961 -0.5704 -1.2104
 8467TIP3    H249597   1.215   1.673   6.605 -1.1370  0.0412 -0.0998
 8468TIP3   OH249598   6.747   6.525   9.009  0.2722 -0.4793 -0.4427
 8468TIP3    H149599   6.744   6.596   9.073  1.9314 -0.5119 -0.2845
 8468TIP3    H249600   6.836   6.529   8.974 -0.3362 -1.0078 -2.1324
 8469TIP3   OH249601   3.763   5.121   7.536  0.5799  0.4134 -0.2760
 8469TIP3    H149602   3.713   5.187   7.583  0.8490  0.1373  0.4242
 8469TIP3    H249603   3.848   5.162   7.519  0.9030  0.1067  0.5515
 8470TIP3   OH249604   3.848   3.541   8.390 -0.2172 -0.3369  0.4846
 8470TIP3    H149605   3.888   3.459   8.419 -0.4317 -1.3924 -2.0193
 8470TIP3    H249606   3.783   3.515   8.325  0.1092  1.8311 -0.8081
 8471TIP3   OH249607   0.915   2.270   5.579 -0.6219 -0.7012 -0.3637
 8471TIP3    H149608   0.955   2.242   5.661 -0.8756 -1.5307 -0.5116
 8471TIP3    H249609   0.825   2.237   5.584 -0.9161  0.0538 -0.5742
 8472TIP3   OH249610   5.698   1.201   7.914 -0.6308  0.7189 -0.1178
 8472TIP3    H149611   5.664   1.216   7.826  0.2943  1.8987 -0.3087
 8472TIP3    H249612   5.718   1.289   7.947  1.5234  0.1525  0.2382
 8473TIP3   OH249613   3.730   6.680   9.203  0.1666 -0.4030  0.1781
 8473TIP3    H149614   3.767   6.677   9.291  0.2792  0.2799  0.1600
 8473TIP3    H249615   3.798   6.644   9.146 -0.0255 -1.1347  0.4052
 8474TIP3   OH249616   1.327   0.172   8.623  0.0401  0.2861  0.3687
 8474TIP3    H149617   1.287   0.130   8.699 -0.6834 -1.2838 -0.7965
 8474TIP3    H249618   1.417   0.139   8.622 -0.0994 -0.1069  0.2880
 8475TIP3   OH249619   5.600   0.551   7.633 -0.4492  0.1175  0.1625
 8475TIP3    H149620   5.546   0.522   7.560  0.6742  1.1797 -1.1263
 8475TIP3    H249621   5.538   0.562   7.705 -2.0071  1.4728 -1.2957
 8476TIP3   OH249622   5.161   2.347   7.756  0.2402  0.5442 -0.4478
 8476TIP3    H149623   5.067   2.350   7.771  0.2673  1.3203 -0.3849
 8476TIP3    H249624   5.181   2.429   7.712  0.7040 -0.1754 -1.6139
 8477TIP3   OH249625   5.610   3.470   7.921 -0.4539  0.2336 -0.5653
 8477TIP3    H149626   5.644   3.450   8.008 -1.3966  0.1243 -0.2104
 8477TIP3    H249627   5.515   3.462   7.930 -0.4941 -2.6063 -2.2961
 8478TIP3   OH249628   0.694   3.873   8.222 -0.1213  0.0858  0.2467
 8478TIP3    H149629   0.677   3.874   8.128 -0.7887 -1.6276  0.3202
 8478TIP3    H249630   0.616   3.914   8.261 -0.7925 -1.0633  0.1509
 8479TIP3   OH249631   3.997   4.891   6.358  0.6725 -0.6406 -0.1336
 8479TIP3    H149632   3.912   4.916   6.394  0.8745 -1.0061  0.6109
 8479TIP3    H249633   4.041   4.847   6.430  0.9265 -1.7627 -0.9560
 8480TIP3   OH249634   5.166   5.635   6.256  0.3014 -0.4166 -0.0250
 8480TIP3    H149635   5.250   5.657   6.216  0.1193  2.1533  0.8149
 8480TIP3    H249636   5.111   5.609   6.183  1.1173  0.3550 -0.9474
 8481TIP3   OH249637   3.917   4.760   7.302  0.1494  0.4537 -0.0393
 8481TIP3    H149638   3.930   4.692   7.368 -0.1365  1.0431  0.6365
 8481TIP3    H249639   4.004   4.800   7.293  0.6765 -0.9129 -1.4973
 8482TIP3   OH249640   2.299   4.433   6.753 -0.3480 -0.1053  0.1554
 8482TIP3    H149641   2.362   4.363   6.733  1.4763  0.2913  3.6799
 8482TIP3    H249642   2.329   4.507   6.701  0.0156 -0.8756 -0.7671
 8483TIP3   OH249643   0.800   5.897   8.148  0.6061 -0.2947 -0.0086
 8483TIP3    H149644   0.812   5.983   8.106  1.4236 -1.2141 -1.7958
 8483TIP3    H249645   0.758   5.917   8.231  3.0605  2.0996  0.8260
 8484TIP3   OH249646   4.941   1.520   8.077  0.2662  0.0898 -0.0943
 8484TIP3    H149647   4.921   1.613   8.076  0.0223  0.0331 -0.6793
 8484TIP3    H249648   5.035   1.515   8.060  0.3148  0.2313  0.1197
 8485TIP3   OH249649   4.653   3.327   9.386 -0.5681 -0.2625  0.3730
 8485TIP3    H149650   4.663   3.292   9.297  2.1991  2.5057 -0.5777
 8485TIP3    H249651   4.587   3.396   9.377  0.1735  0.4511  0.2677
 8486TIP3   OH249652   5.959   4.262   8.447 -0.0267  0.5493  0.3799
 8486TIP3    H149653   6.023   4.283   8.378  0.3668  1.4168  0.9880
 8486TIP3    H249654   6.003   4.195   8.499  0.5713  1.4164  1.0214
 8487TIP3   OH249655   1.457   3.274   7.735  0.4455 -0.5661 -0.1788
 8487TIP3    H149656   1.471   3.183   7.761  1.4463 -0.2386  0.4673
 8487TIP3    H249657   1.485   3.326   7.811  1.1221  0.3267 -1.0063
 8488TIP3   OH249658   5.005   3.884   5.869  0.0352  0.7124 -0.4444
 8488TIP3    H149659   5.009   3.791   5.894  3.6444  0.7337 -0.4511
 8488TIP3    H249660   4.962   3.927   5.942  0.7840 -0.6354  0.8381
 8489TIP3   OH249661   4.250   4.932   7.198  0.1561 -0.5538 -0.0690
 8489TIP3    H149662   4.202   4.954   7.118  1.3711  1.1411 -0.3987
 8489TIP3    H249663   4.342   4.935   7.172  0.5525 -0.3998  1.2895
 8490TIP3   OH249664   5.485   3.277   6.991  0.3833 -0.5497  0.1271
 8490TIP3    H149665   5.532   3.265   6.909 -1.7979  0.2850 -1.3446
 8490TIP3    H249666   5.404   3.322   6.966 -1.0421 -1.5650  2.5270
 8491TIP3   OH249667   4.833   4.630   8.549  0.5828  0.2416  0.3779
 8491TIP3    H149668   4.904   4.665   8.496  0.3168 -0.1211 -0.2253
 8491TIP3    H249669   4.770   4.702   8.557  0.2141  0.0322 -0.5395
 8492TIP3   OH249670   1.418   4.445   6.724 -0.7101 -0.2408  0.0852
 8492TIP3    H149671   1.343   4.488   6.683 -1.3079  0.2418  1.6235
 8492TIP3    H249672   1.478   4.516   6.746 -0.6078 -0.4329  0.4479
 8493TIP3   OH249673   1.380   6.511   6.049  1.0652 -0.5032  0.2922
 8493TIP3    H149674   1.472   6.532   6.062  1.3987 -0.0024 -2.3144
 8493TIP3    H249675   1.372   6.419   6.073  1.4216  0.1994  3.7375
 8494TIP3   OH249676   4.358   4.208   6.690 -0.1920 -0.0205  0.1961
 8494TIP3    H149677   4.442   4.242   6.719 -0.3709 -0.0772  0.7876
 8494TIP3    H249678   4.335   4.262   6.615 -0.5240  1.2546  1.1808
 8495TIP3   OH249679   0.912   5.202   5.999 -0.6517 -0.2817  0.2640
 8495TIP3    H149680   0.908   5.116   6.042  0.8825  0.7496  2.7065
 8495TIP3    H249681   0.993   5.199   5.948  0.0872  0.0981  1.3769
 8496TIP3   OH249682   6.333   3.680   6.769  0.0663 -0.2454  0.4420
 8496TIP3    H149683   6.369   3.765   6.795  1.2182 -1.0272  1.5080
 8496TIP3    H249684   6.307   3.639   6.852  1.1482 -1.6327  0.1279
 8497TIP3   OH249685   4.037   1.151   6.881  0.1325  0.1554  0.3395
 8497TIP3    H149686   4.115   1.096   6.892  0.4236  0.5026  0.0310
 8497TIP3    H249687   3.968   1.089   6.858  0.3488 -0.1407  0.4706
 8498TIP3   OH249688   4.112   0.254   7.036  0.0085  0.1436 -0.0195
 8498TIP3    H149689   4.023   0.242   7.001  0.5085  1.1953 -1.7385
 8498TIP3    H249690   4.120   0.185   7.103 -1.8953 -0.3249 -0.2038
 8499TIP3   OH249691   4.509   6.061   8.721 -0.0365 -0.2424 -0.1925
 8499TIP3    H149692   4.464   6.096   8.644  0.8065  1.5196  0.0548
 8499TIP3    H249693   4.439   6.027   8.777 -0.9377  1.1331 -0.4382
 8500TIP3   OH249694   5.322   0.577   8.475 -0.2941 -0.2307 -0.5009
 8500TIP3    H149695   5.355   0.575   8.564  2.1169 -0.5970 -1.3282
 8500TIP3    H249696   5.227   0.586   8.484  0.0853  3.8652  2.0566
 8501TIP3   OH249697   1.713   0.775   8.627 -0.0378  0.8742  0.1657
 8501TIP3    H149698   1.638   0.744   8.678 -1.4373  1.5930 -1.3766
 8501TIP3    H249699   1.756   0.838   8.685 -1.1855  1.1553  0.7316
 8502TIP3   OH249700   6.637   3.086   7.161  0.0271  0.2386  0.0087
 8502TIP3    H149701   6.637   3.059   7.252  1.7495 -1.0639 -0.3423
 8502TIP3    H249702   6.724   3.121   7.145 -0.2482  0.4612 -1.1521
 8503TIP3   OH249703   0.728   6.248   7.273  0.7292  0.2464 -0.6932
 8503TIP3    H149704   0.671   6.264   7.198 -0.6170  1.3431  0.5202
 8503TIP3    H249705   0.777   6.329   7.284  1.2931 -0.0881 -0.6731
 8504TIP3   OH249706   6.687   1.044   5.979 -0.0580 -0.2382  0.0420
 8504TIP3    H149707   6.640   1.111   6.029 -0.6425 -1.2604  0.9139
 8504TIP3    H249708   6.683   1.074   5.888  0.8284  1.5650  0.5332
 8505TIP3   OH249709   1.495   0.475   8.299 -0.2575  0.1227 -0.4842
 8505TIP3    H149710   1.403   0.450   8.303 -0.1477 -0.2459 -0.2492
 8505TIP3    H249711   1.516   0.504   8.387 -0.2022  0.3968 -0.5875
 8506TIP3   OH249712   2.691   4.375   7.563 -0.1641 -0.2173  0.2072
 8506TIP3    H149713   2.777   4.413   7.544 -0.0150 -0.8025 -0.3146
 8506TIP3    H249714   2.711   4.291   7.603 -0.4775 -1.0910 -1.4119
 8507TIP3   OH249715   4.589   6.184   9.044 -0.0300  0.0122  0.1349
 8507TIP3    H149716   4.494   6.174   9.039  0.0552 -0.5330 -0.4772
 8507TIP3    H249717   4.615   6.132   9.119 -0.1653 -0.2211  0.0202
 8508TIP3   OH249718   2.993   4.520   8.286  0.0814 -0.2233  0.0532
 8508TIP3    H149719   2.955   4.573   8.215 -0.3597  0.5226  0.8295
 8508TIP3    H249720   2.928   4.452   8.302  1.2018 -1.8433 -1.8098
 8509TIP3   OH249721   3.893   0.511   5.792 -0.3915  0.8548  0.6300
 8509TIP3    H149722   3.932   0.450   5.729 -0.1624  0.3449  1.2561
 8509TIP3    H249723   3.942   0.593   5.780  1.3765  0.0317  1.8717
 8510TIP3   OH249724   5.640   3.263   8.536 -0.4378 -0.5176  0.4578
 8510TIP3    H149725   5.694   3.224   8.467 -0.7626 -0.1619  0.0003
 8510TIP3    H249726   5.591   3.189   8.573 -1.3000 -0.5028 -0.6297
 8511TIP3   OH249727   5.069   5.296   8.528  0.0666  0.3601  0.9557
 8511TIP3    H149728   5.094   5.249   8.448  2.4096  2.8696  0.0463
 8511TIP3    H249729   5.081   5.232   8.598  0.9901 -1.0309 -0.3966
 8512TIP3   OH249730   6.605   4.763   6.330  0.3854  0.7284  0.2732
 8512TIP3    H149731   6.575   4.712   6.405 -1.5970  0.9168 -0.3305
 8512TIP3    H249732   6.567   4.850   6.344 -0.7376  0.5405 -1.3239
 8513TIP3   OH249733   5.950   2.679   5.731 -0.0206 -0.7024  0.0445
 8513TIP3    H149734   6.043   2.670   5.713  0.0773 -1.3378  0.8366
 8513TIP3    H249735   5.914   2.591   5.722 -0.0057 -1.0421  2.6169
 8514TIP3   OH249736   4.308   4.442   8.073  0.4488 -0.6576 -0.1414
 8514TIP3    H149737   4.224   4.452   8.028 -0.0152  1.0817  1.0137
 8514TIP3    H249738   4.333   4.351   8.057 -1.7575 -1.2901 -0.3254
 8515TIP3   OH249739   3.990   3.134   6.430  0.4778 -0.4891 -0.3777
 8515TIP3    H149740   4.069   3.182   6.455 -0.4184  0.6825  0.2952
 8515TIP3    H249741   3.964   3.173   6.347 -1.2242  1.5452  0.9774
 8516TIP3   OH249742   3.480   3.960   9.487 -0.4501  0.3538  0.2702
 8516TIP3    H149743   3.437   3.880   9.458  0.4285 -0.4874  1.1985
 8516TIP3    H249744   3.414   4.006   9.539 -0.8009  0.0117  0.1326
 8517TIP3   OH249745   5.270   4.678   9.082 -0.7430 -0.1568 -0.2097
 8517TIP3    H149746   5.353   4.639   9.111  0.1047  1.2886 -0.6150
 8517TIP3    H249747   5.233   4.612   9.023  1.1980  0.0426 -1.7722
 8518TIP3   OH249748   2.900   3.673   8.358  0.0517  0.0855 -0.4703
 8518TIP3    H149749   2.946   3.613   8.300 -1.3585 -0.4043 -1.1387
 8518TIP3    H249750   2.811   3.637   8.364 -0.1303  0.7239  1.1405
 8519TIP3   OH249751   4.321   2.489   6.904  0.0828  0.1731 -0.1534
 8519TIP3    H149752   4.346   2.401   6.932 -0.9598  0.3516  1.4319
 8519TIP3    H249753   4.317   2.540   6.985 -1.3834  1.1597 -0.8065
 8520TIP3   OH249754   1.057   4.007   6.139 -0.4976 -0.0481  0.3009
 8520TIP3    H149755   1.046   4.066   6.213 -1.0753  0.4927 -0.2092
 8520TIP3    H249756   0.979   3.951   6.141 -2.1138  1.9528 -1.6572
 8521TIP3   OH249757   4.136   6.543   7.001  0.1405  0.2815 -0.4737
 8521TIP3    H149758   4.223   6.556   7.040  0.5062 -0.0813 -1.1430
 8521TIP3    H249759   4.076   6.546   7.075  0.6451  1.3046 -0.0948
 8522TIP3   OH249760   5.888   3.214   6.120 -0.1678 -0.1886  0.0773
 8522TIP3    H149761   5.919   3.206   6.029 -0.9755  0.6817 -0.2850
 8522TIP3    H249762   5.834   3.292   6.120 -1.3759 -0.9876  0.9792
 8523TIP3   OH249763   0.238   4.204   8.174  0.0341  0.0037 -0.3564
 8523TIP3    H149764   0.261   4.254   8.096  0.7995 -1.1107 -0.8773
 8523TIP3    H249765   0.205   4.121   8.140  1.4558 -0.9531  0.4984
 8524TIP3   OH249766   3.991   4.599   7.043 -0.1786  0.4392 -0.4137
 8524TIP3    H149767   3.969   4.656   7.117 -1.2237  0.4305 -0.6917
 8524TIP3    H249768   3.939   4.520   7.058  1.5388 -0.6303  0.1659
 8525TIP3   OH249769   1.179   2.885   6.058  0.3326  0.2871 -0.4993
 8525TIP3    H149770   1.178   2.831   5.979 -1.2590  0.7015 -0.7875
 8525TIP3    H249771   1.119   2.842   6.118  1.6819 -0.1440  0.6111
 8526TIP3   OH249772   4.727   2.957   8.328 -0.3618  0.2411  0.3102
 8526TIP3    H149773   4.742   3.050   8.349  1.6175  0.3034 -1.0487
 8526TIP3    H249774   4.728   2.955   8.232 -0.8279 -1.1482  0.3219
 8527TIP3   OH249775   2.376   2.589   6.212  0.2274  0.5886  0.5317
 8527TIP3    H149776   2.325   2.666   6.185  1.3409  0.8276 -1.0091
 8527TIP3    H249777   2.441   2.624   6.272  0.7120  0.8671 -0.1418
 8528TIP3   OH249778   6.713   5.565   6.891  0.1270  0.0713  0.3346
 8528TIP3    H149779   6.630   5.613   6.887 -0.8912 -1.5059  1.4099
 8528TIP3    H249780   6.755   5.596   6.972 -0.2495 -0.4078  0.7164
 8529TIP3   OH249781   1.753   1.543   6.318 -0.1767  0.0752  0.5779
 8529TIP3    H149782   1.663   1.514   6.304 -0.7784  2.1206 -0.0270
 8529TIP3    H249783   1.795   1.534   6.232  0.5468 -1.7992  1.0594
 8530TIP3   OH249784   3.664   2.405   6.462 -0.5360 -0.2064  0.8270
 8530TIP3    H149785   3.574   2.383   6.488 -0.7981  0.2056  0.2779
 8530TIP3    H249786   3.711   2.415   6.545 -1.0093 -0.3638  1.1193
 8531TIP3   OH249787   0.332   2.888   8.293 -0.0444  0.3075  0.5639
 8531TIP3    H149788   0.330   2.964   8.234 -2.7774 -0.9788 -1.1794
 8531TIP3    H249789   0.253   2.896   8.346 -0.2415 -1.1587  0.5377
 8532TIP3   OH249790   5.246   6.136   7.625 -0.3358 -0.3129  0.4824
 8532TIP3    H149791   5.281   6.069   7.566 -0.4967  0.7361 -0.8787
 8532TIP3    H249792   5.151   6.134   7.609 -0.3517  0.1593  0.4895
 8533TIP3   OH249793   6.606   2.201   8.186  0.1432 -0.2867 -0.6154
 8533TIP3    H149794   6.658   2.266   8.233 -0.3655 -0.0105 -0.4220
 8533TIP3    H249795   6.670   2.144   8.144  0.6460  1.2966 -2.1457
 8534TIP3   OH249796   0.968   6.253   8.737 -0.3082  0.3512  0.2991
 8534TIP3    H149797   1.039   6.261   8.800  0.1610 -1.6486  0.1006
 8534TIP3    H249798   0.918   6.177   8.766 -0.5411 -0.1417 -1.2705
 8535TIP3   OH249799   4.851   5.271   8.995  0.1688  0.1299 -0.0384
 8535TIP3    H149800   4.882   5.275   9.086  0.1580 -1.1768  0.0462
 8535TIP3    H249801   4.786   5.201   8.996 -1.7687  1.8388 -0.5273
 8536TIP3   OH249802   2.061   5.755   7.549 -0.3260  0.7321  0.1800
 8536TIP3    H149803   2.044   5.678   7.603 -0.4358  0.5500 -0.1139
 8536TIP3    H249804   2.149   5.742   7.514 -0.6399  0.3647 -0.4907
 8537TIP3   OH249805   6.308   2.492   8.790 -0.1003  0.4436 -0.3183
 8537TIP3    H149806   6.242   2.561   8.785 -0.4486  0.2491  1.1546
 8537TIP3    H249807   6.260   2.412   8.769  0.0237  0.4878 -0.7817
 8538TIP3   OH249808   3.574   1.934   6.771 -0.2711 -0.3310  0.5616
 8538TIP3    H149809   3.649   1.988   6.796  0.2177 -0.9497  0.4615
 8538TIP3    H249810   3.522   1.927   6.850 -1.0398  1.3782  0.2455
 8539TIP3   OH249811   5.497   0.944   7.083  0.9787 -0.5957 -0.0241
 8539TIP3    H149812   5.481   0.917   6.993  0.1963  2.3762 -0.8925
 8539TIP3    H249813   5.591   0.928   7.096  1.5774  0.7935 -2.1193
 8540TIP3   OH249814   2.729   1.611   7.474  0.1039  0.4102 -0.0157
 8540TIP3    H149815   2.664   1.590   7.406  0.4008 -0.1679 -0.1345
 8540TIP3    H249816   2.807   1.638   7.425  1.3577 -2.8462 -0.1281
 8541TIP3   OH249817   6.589   3.073   6.160  0.3364 -0.7389 -0.7353
 8541TIP3    H149818   6.533   3.109   6.090 -1.2146 -1.7322 -0.0532
 8541TIP3    H249819   6.593   2.980   6.142  0.8878 -0.8342 -0.1392
 8542TIP3   OH249820   5.973   4.250   8.986 -0.1323 -0.6392  0.0622
 8542TIP3    H149821   6.024   4.171   8.966  1.7057  0.2977  0.8022
 8542TIP3    H249822   5.944   4.238   9.076  0.0672 -0.5148  0.1428
 8543TIP3   OH249823   2.953   2.553   6.444 -0.6054  0.5437 -0.0952
 8543TIP3    H149824   2.939   2.630   6.389  0.3801  1.8819  1.4042
 8543TIP3    H249825   3.029   2.576   6.497 -0.6253 -1.2687  0.7771
 8544TIP3   OH249826   2.256   4.762   6.822 -0.2707  0.0030 -0.0121
 8544TIP3    H149827   2.188   4.798   6.765 -0.5827 -1.3287 -0.5107
 8544TIP3    H249828   2.323   4.830   6.824 -1.5582  1.3374  0.4440
 8545TIP3   OH249829   1.978   4.069   7.631  0.4993  0.4402  0.1905
 8545TIP3    H149830   1.940   3.982   7.642  1.8001 -0.2440 -0.4786
 8545TIP3    H249831   1.965   4.089   7.538 -0.5164  1.3296  0.5071
 8546TIP3   OH249832   2.886   6.310   6.458 -0.7286  0.4772 -0.5799
 8546TIP3    H149833   2.964   6.300   6.405 -1.4398 -1.0097 -1.4100
 8546TIP3    H249834   2.867   6.221   6.490 -0.2787  1.2946  2.2791
 8547TIP3   OH249835   0.757   3.382   7.160  0.2304  0.1251 -0.3522
 8547TIP3    H149836   0.683   3.418   7.209  0.8390 -0.7485  1.2760
 8547TIP3    H249837   0.809   3.458   7.135 -1.2983  0.7752 -1.7373
 8548TIP3   OH249838   6.609   5.699   8.318  0.7847  0.2495 -0.3300
 8548TIP3    H149839   6.517   5.674   8.327  0.0692  2.1472 -1.7139
 8548TIP3    H249840   6.647   5.630   8.265 -0.0558 -0.1172 -0.4792
 8549TIP3   OH249841   1.124   0.148   7.908  0.2256 -0.0729 -0.0128
 8549TIP3    H149842   1.084   0.185   7.987 -0.2970 -0.5220 -0.0609
 8549TIP3    H249843   1.055   0.151   7.842  0.3847 -0.5212 -0.2011
 8550TIP3   OH249844   1.340   3.361  16.175  0.5306 -0.1303  0.4389
 8550TIP3    H149845   1.305   3.387  16.261  0.8886  1.4213  0.1508
 8550TIP3    H249846   1.430   3.334  16.193  0.8361  0.8773  0.4679
 8551TIP3   OH249847   1.768   6.292   5.717  0.1803  1.0113  0.1316
 8551TIP3    H149848   1.802   6.239   5.789 -0.4691  0.2979 -0.0775
 8551TIP3    H249849   1.730   6.229   5.656  0.2193  1.6499 -0.5686
 8552TIP3   OH249850   5.016   1.699   6.292 -0.0452 -0.0260  0.4860
 8552TIP3    H149851   5.090   1.641   6.312  0.2008 -0.4876 -1.5522
 8552TIP3    H249852   5.019   1.709   6.197 -1.4765  1.5032  0.5709
 8553TIP3   OH249853   2.581   4.106   8.253 -0.1109 -0.0379  0.7939
 8553TIP3    H149854   2.548   4.016   8.252  0.1338 -0.1408 -0.6212
 8553TIP3    H249855   2.502   4.160   8.262 -0.4874 -0.3453 -0.4335
 8554TIP3   OH249856   2.334   1.951   6.159 -0.4598  0.0717  0.4909
 8554TIP3    H149857   2.278   2.029   6.161 -0.1285  0.2974  1.0225
 8554TIP3    H249858   2.345   1.926   6.250 -0.9485 -0.8856  0.2926
 8555TIP3   OH249859   2.242   2.052   7.440  0.0238  0.0015  0.1173
 8555TIP3    H149860   2.289   2.059   7.523 -0.8614  1.3695  0.5366
 8555TIP3    H249861   2.250   2.139   7.401 -2.8794  0.6056  0.6480
 8556TIP3   OH249862   4.338   5.514   6.702 -0.1584 -1.0770 -0.2235
 8556TIP3    H149863   4.249   5.517   6.738  0.7567  1.2296  2.2239
 8556TIP3    H249864   4.378   5.438   6.744  0.2049  0.2985  2.1266
 8557TIP3   OH249865   3.863   6.470   6.494 -0.1001 -0.0806 -0.1183
 8557TIP3    H149866   3.874   6.430   6.580 -1.2702  0.1909  0.1745
 8557TIP3    H249867   3.946   6.514   6.477  0.7365 -1.5055  0.1341
 8558TIP3   OH249868   6.410   4.537   5.893 -0.4077 -0.2881 -0.0766
 8558TIP3    H149869   6.487   4.489   5.865  0.1668  0.0440  0.8945
 8558TIP3    H249870   6.431   4.569   5.981 -1.8685 -0.6689  0.4428
 8559TIP3   OH249871   4.958   5.391   7.237 -0.1959 -0.7300  0.4654
 8559TIP3    H149872   5.004   5.390   7.321 -0.4485  0.3350  0.6289
 8559TIP3    H249873   4.919   5.478   7.232  0.5558 -0.4613 -1.1522
 8560TIP3   OH249874   6.183   1.306   6.827  0.2262  0.1324 -0.1090
 8560TIP3    H149875   6.106   1.361   6.817 -0.6313 -0.8434  0.9057
 8560TIP3    H249876   6.180   1.275   6.918  0.9683 -1.1345 -0.4785
 8561TIP3   OH249877   2.723   3.753   6.863 -0.0161 -0.1816  0.9702
 8561TIP3    H149878   2.729   3.694   6.938  1.0862 -1.2665  0.0813
 8561TIP3    H249879   2.691   3.698   6.791  1.3378  0.1836  0.0431
 8562TIP3   OH249880   1.913   3.016  16.619  0.0193  0.3791  0.2090
 8562TIP3    H149881   1.869   3.058  16.693  1.5739 -0.1232  1.5017
 8562TIP3    H249882   1.888   3.067  16.543 -0.1815  2.0777  1.3603
 8563TIP3   OH249883   3.009   4.438   7.985  0.1086 -0.1171 -0.0054
 8563TIP3    H149884   2.929   4.453   7.935  0.7415 -0.2627 -1.0813
 8563TIP3    H249885   3.078   4.484   7.936  0.5492  0.7736  1.3897
 8564TIP3   OH249886   2.358   5.545   8.446  0.1074  0.2339  0.3245
 8564TIP3    H149887   2.322   5.505   8.525 -2.1810  1.4561 -0.0163
 8564TIP3    H249888   2.440   5.586   8.476  0.3336 -1.0553  1.5786
 8565TIP3   OH249889   6.465   4.442   6.914 -0.4630 -0.2619 -0.3764
 8565TIP3    H149890   6.398   4.400   6.860 -0.6344 -1.5562  0.7811
 8565TIP3    H249891   6.512   4.369   6.956  0.8658  0.6470 -0.2019
 8566TIP3   OH249892   1.020   4.714   8.437 -0.8675 -0.2914  0.6914
 8566TIP3    H149893   1.023   4.686   8.346 -0.9289 -0.4955  0.7497
 8566TIP3    H249894   0.927   4.716   8.458 -0.8643 -0.0120  0.6807
 8567TIP3   OH249895   5.176   4.066   9.234 -0.0542 -0.3640  0.2687
 8567TIP3    H149896   5.218   4.005   9.296  4.0812  2.7948  1.0331
 8567TIP3    H249897   5.186   4.024   9.149  0.7394 -1.6886  0.9760
 8568TIP3   OH249898   0.777   5.738   7.911  0.2849 -0.4574 -0.3813
 8568TIP3    H149899   0.803   5.771   7.997  0.5964  1.5762 -1.1982
 8568TIP3    H249900   0.690   5.774   7.897  0.9988  0.8916 -1.6827
 8569TIP3   OH249901   1.767   0.623   8.146 -0.1782 -0.3248  0.3785
 8569TIP3    H149902   1.823   0.667   8.082 -1.9006  0.6969 -0.4996
 8569TIP3    H249903   1.731   0.694   8.199 -1.3927 -0.8335  0.2694
 8570TIP3   OH249904   4.228   4.722   5.775  0.2810  0.1222  0.0806
 8570TIP3    H149905   4.217   4.654   5.709  1.0557 -0.1512  0.2231
 8570TIP3    H249906   4.285   4.787   5.734  1.8632 -0.6851  0.9112
 8571TIP3   OH249907   3.159   4.727  10.057  0.9256 -0.1087  0.0149
 8571TIP3    H149908   3.235   4.763  10.012 -0.0825 -0.1380 -1.8069
 8571TIP3    H249909   3.098   4.706   9.986 -0.9684  0.3598  1.4598
 8572TIP3   OH249910   0.039   3.544   8.539  0.4569  0.1239  0.0315
 8572TIP3    H149911   0.099   3.530   8.612  0.3208 -0.4199  0.0424
 8572TIP3    H249912  -0.014   3.619   8.566  0.8792  0.3739  0.1812
 8573TIP3   OH249913   5.327   0.749   7.976 -0.5339  0.3877  0.1384
 8573TIP3    H149914   5.397   0.815   7.974  0.8164 -0.9182  1.4126
 8573TIP3    H249915   5.372   0.666   7.960 -1.9599 -0.3869  0.0042
 8574TIP3   OH249916   0.308   5.228   6.842  0.6028 -0.1787  0.1684
 8574TIP3    H149917   0.375   5.245   6.776 -0.5350 -1.1093 -1.2741
 8574TIP3    H249918   0.230   5.274   6.810  0.4594  0.7172  1.7087
 8575TIP3   OH249919   4.519   5.908   6.641  0.0592  0.0076 -0.2550
 8575TIP3    H149920   4.488   5.996   6.663 -0.6475 -0.0511 -1.0052
 8575TIP3    H249921   4.451   5.871   6.585  1.9502  0.2969 -2.9327
 8576TIP3   OH249922   6.428   4.931   5.698 -0.1667  0.6011  0.0082
 8576TIP3    H149923   6.367   4.881   5.752 -0.5620  0.7382 -0.3151
 8576TIP3    H249924   6.506   4.875   5.693 -0.9006 -0.3680 -1.0353
 8577TIP3   OH249925   0.241   4.418   7.444  0.0256  0.0487  0.2959
 8577TIP3    H149926   0.149   4.392   7.431 -0.2877  1.3838 -0.3153
 8577TIP3    H249927   0.237   4.512   7.462  1.4342  0.6080 -2.0117
 8578TIP3   OH249928   3.629   0.880   7.346 -0.1175 -0.3535 -0.0082
 8578TIP3    H149929   3.570   0.852   7.277 -1.1129  1.0296  0.2506
 8578TIP3    H249930   3.576   0.935   7.403  1.0395 -0.3149  1.0917
 8579TIP3   OH249931   4.121   5.697   9.283  0.3441  0.2952  0.3704
 8579TIP3    H149932   4.149   5.773   9.232 -0.0511  0.6746  0.7127
 8579TIP3    H249933   4.140   5.721   9.374  0.1173  0.0282  0.4897
 8580TIP3   OH249934   3.989   3.672   6.877  0.2854  0.0260 -0.0502
 8580TIP3    H149935   4.011   3.681   6.784  2.7143  2.6778  0.6106
 8580TIP3    H249936   4.034   3.593   6.905  2.3200  0.9466 -0.5338
 8581TIP3   OH249937   3.927   0.102   8.074  0.0248 -0.2831  0.0261
 8581TIP3    H149938   3.906   0.186   8.032  0.1516  1.7753  3.6559
 8581TIP3    H249939   3.859   0.042   8.042 -1.0927  1.6312 -1.4203
 8582TIP3   OH249940   1.567   5.716   8.609  0.0041 -0.2025  0.0786
 8582TIP3    H149941   1.571   5.798   8.559  0.1224 -0.5124 -0.4238
 8582TIP3    H249942   1.474   5.702   8.625  0.0273  0.4865  0.9414
 8583TIP3   OH249943   3.166   5.024   8.931  0.1545 -0.1627  0.2045
 8583TIP3    H149944   3.239   4.981   8.887 -1.4178 -2.8391  0.0185
 8583TIP3    H249945   3.111   5.057   8.860  0.4083  0.5295  0.3187
 8584TIP3   OH249946   1.911   0.084   7.636 -0.2504 -0.0534  0.3568
 8584TIP3    H149947   1.999   0.094   7.598 -0.6160 -2.1746 -1.2490
 8584TIP3    H249948   1.923   0.100   7.729  1.8772 -0.3461  0.1866
 8585TIP3   OH249949   3.094   3.631   7.089  0.1908  0.5689 -0.7878
 8585TIP3    H149950   3.028   3.640   7.020 -0.1357 -1.8415 -0.8988
 8585TIP3    H249951   3.167   3.685   7.059 -1.1650  2.1714 -1.3644
 8586TIP3   OH249952   5.350   1.019   6.558  0.9218 -0.1486  0.4505
 8586TIP3    H149953   5.267   0.975   6.540  0.8878  0.5067 -1.1609
 8586TIP3    H249954   5.416   0.950   6.546  0.6994 -0.3441  0.3495
 8587TIP3   OH249955   3.434   6.656   7.866  0.2453 -0.2593  0.2606
 8587TIP3    H149956   3.382   6.652   7.946  0.2234  0.2310  0.2736
 8587TIP3    H249957   3.519   6.689   7.894  0.4580 -0.7459  0.1893
 8588TIP3   OH249958   4.020   1.927   6.541 -0.5708  0.4429 -0.4696
 8588TIP3    H149959   3.940   1.947   6.492 -1.0727  0.0405  0.1614
 8588TIP3    H249960   3.989   1.875   6.616  0.1906  0.9869  0.2296
 8589TIP3   OH249961   0.130   1.123   5.674 -0.4348 -0.4264  0.5581
 8589TIP3    H149962   0.039   1.119   5.643 -0.2749  1.0643 -0.1980
 8589TIP3    H249963   0.154   1.032   5.689 -1.4913 -0.9929 -0.9425
 8590TIP3   OH249964   4.256   0.602   5.571  0.0225 -0.1423  0.7031
 8590TIP3    H149965   4.347   0.573   5.565 -0.5297 -1.6669 -1.6166
 8590TIP3    H249966   4.259   0.695   5.549  0.9146 -0.4490 -0.5796
 8591TIP3   OH249967   5.532   4.029   5.926 -0.4438  0.2161  1.1663
 8591TIP3    H149968   5.569   4.100   5.873  0.7151 -0.2855  1.2939
 8591TIP3    H249969   5.529   4.065   6.015 -1.0415  0.5460  1.0176
 8592TIP3   OH249970   5.372   1.931   8.584  0.3720 -0.4283  0.0915
 8592TIP3    H149971   5.306   1.862   8.584  0.3352 -0.3952 -0.1283
 8592TIP3    H249972   5.410   1.928   8.496 -0.8220  0.9764 -0.5132
 8593TIP3   OH249973   2.928   1.314   7.988 -0.1471  0.1956  0.7579
 8593TIP3    H149974   2.875   1.335   8.065  0.2288  0.1679  1.0276
 8593TIP3    H249975   2.878   1.248   7.941 -0.7918  0.8467  0.5203
 8594TIP3   OH249976   1.819   3.060   7.418 -0.2679 -0.1249 -0.3462
 8594TIP3    H149977   1.739   3.094   7.378 -1.4048 -0.3706  1.5524
 8594TIP3    H249978   1.823   3.103   7.503  2.2705  0.7086 -0.8000
 8595TIP3   OH249979   0.839   5.305   7.938 -0.6036  0.1931  0.1767
 8595TIP3    H149980   0.747   5.283   7.955 -0.4512  0.2854  1.1598
 8595TIP3    H249981   0.834   5.374   7.871 -1.3050  0.8182  0.8407
 8596TIP3   OH249982   3.610   3.821   6.176  0.3638  0.4935  0.2508
 8596TIP3    H149983   3.590   3.729   6.158 -1.8675  1.0117 -0.1855
 8596TIP3    H249984   3.551   3.870   6.119 -0.8127  2.1941  2.7646
 8597TIP3   OH249985   4.338   0.404   9.022 -0.0678  0.2448 -0.4276
 8597TIP3    H149986   4.400   0.457   9.073 -0.9686  1.0059 -0.0910
 8597TIP3    H249987   4.327   0.325   9.075  0.7284  0.0282 -0.5694
 8598TIP3   OH249988   4.903   4.884   5.600  0.1499  0.0863 -0.3219
 8598TIP3    H149989   4.916   4.949   5.531  1.3339  0.7654  0.5057
 8598TIP3    H249990   4.958   4.811   5.574 -0.5937 -0.2980 -0.8623
 8599TIP3   OH249991   2.132   0.161   6.892 -0.1513  0.4664  0.1054
 8599TIP3    H149992   2.178   0.242   6.869 -1.2552  0.8310 -0.8916
 8599TIP3    H249993   2.192   0.115   6.951  1.4359  0.9709 -1.0610
 8600TIP3   OH249994   6.076   0.360   5.859  0.2762  0.9083 -0.1862
 8600TIP3    H149995   6.125   0.398   5.786  1.3144 -0.0378 -0.0250
 8600TIP3    H249996   6.044   0.435   5.909 -0.7464  1.5793 -1.7835
 8601TIP3   OH249997   0.512   2.040   7.532  0.2265  0.2273 -0.1388
 8601TIP3    H149998   0.595   2.032   7.580  0.9155  4.2136 -0.3275
 8601TIP3    H249999   0.534   2.011   7.443  0.5272 -1.5928  0.4795
 8602TIP3   OH250000   4.470   0.472   7.732  0.0931 -0.0977  0.7408
 8602TIP3    H150001   4.519   0.420   7.796  0.2184 -0.0391  0.6923
 8602TIP3    H250002   4.537   0.507   7.673 -0.0434 -0.3783  0.4107
 8603TIP3   OH250003   2.019   4.852   7.085  0.4576  0.3225 -0.4454
 8603TIP3    H150004   2.071   4.928   7.056  1.4868  0.1697  0.8846
 8603TIP3    H250005   2.080   4.779   7.081 -0.2468 -0.2548 -0.7565
 8604TIP3   OH250006   1.982   4.855   5.544  0.5997  0.2211  0.4121
 8604TIP3    H150007   2.046   4.785   5.557 -0.6542 -1.2603 -1.0173
 8604TIP3    H250008   2.035   4.934   5.538  2.1768 -0.7545  0.7011
 8605TIP3   OH250009   3.855   2.309   7.143 -0.1720  0.0615 -0.2522
 8605TIP3    H150010   3.900   2.243   7.091  1.2926 -0.4093  1.4962
 8605TIP3    H250011   3.874   2.392   7.098 -2.8956 -0.6645 -3.0556
 8606TIP3   OH250012   6.390   3.540   7.801  0.0144 -1.1627  0.2103
 8606TIP3    H150013   6.365   3.559   7.892 -0.4450 -2.6038  0.4068
 8606TIP3    H250014   6.470   3.489   7.809  0.8568  0.0384 -0.2812
 8607TIP3   OH250015   6.447   0.673   6.414  0.2002 -1.0365  0.3957
 8607TIP3    H150016   6.485   0.759   6.397  1.4262 -1.5439  0.4797
 8607TIP3    H250017   6.394   0.685   6.493 -1.3266  0.1047 -0.7276
 8608TIP3   OH250018   5.527   2.753   8.399  0.0134 -0.1087  0.1897
 8608TIP3    H150019   5.594   2.709   8.346  1.6321  1.3343  0.9198
 8608TIP3    H250020   5.556   2.740   8.489 -1.5295 -0.7053  0.6242
 8609TIP3   OH250021   6.009   5.762   7.077 -0.5146 -0.1126  0.2335
 8609TIP3    H150022   5.955   5.709   7.018 -0.8812  0.6068 -0.0807
 8609TIP3    H250023   5.964   5.846   7.083  2.0347  1.6951 -2.5011
 8610TIP3   OH250024   0.538   3.580   8.273  0.4228  0.0063 -0.4609
 8610TIP3    H150025   0.467   3.643   8.285  0.0412 -0.5363  0.1767
 8610TIP3    H250026   0.514   3.530   8.195  1.0619  1.0743 -1.3751
 8611TIP3   OH250027   3.243   2.963   7.750  0.3177  0.2217 -0.1302
 8611TIP3    H150028   3.268   2.871   7.762  1.0343  0.4974  0.6884
 8611TIP3    H250029   3.312   3.012   7.796  0.7088  1.2305 -1.7281
 8612TIP3   OH250030   2.867   0.466   6.275  0.7299  0.1935 -0.0239
 8612TIP3    H150031   2.853   0.486   6.367  0.0470  0.4498 -0.1751
 8612TIP3    H250032   2.935   0.399   6.274 -0.6165 -1.2552  0.7781
 8613TIP3   OH250033   3.597   1.745   7.494  0.0522  0.0376 -0.2244
 8613TIP3    H150034   3.625   1.835   7.482  0.9786 -0.3455 -1.1681
 8613TIP3    H250035   3.634   1.719   7.579  0.4702  0.3001 -0.3242
 8614TIP3   OH250036   2.959   1.321   7.208  1.0657  0.1581  0.2361
 8614TIP3    H150037   2.882   1.264   7.219  1.8888 -1.0232  0.0869
 8614TIP3    H250038   2.937   1.376   7.133  0.4789 -0.3624  0.0148
 8615TIP3   OH250039   6.209   0.217   6.836 -0.2009 -0.0688  0.0322
 8615TIP3    H150040   6.117   0.192   6.825 -0.3463  1.4058 -3.3485
 8615TIP3    H250041   6.252   0.138   6.869 -2.0468 -2.0403 -1.9476
 8616TIP3   OH250042   5.588   0.985   7.626 -0.6222  0.3831  0.0261
 8616TIP3    H150043   5.638   0.958   7.549 -0.0590  0.1280  0.4737
 8616TIP3    H250044   5.523   1.047   7.592  0.3060  1.1014 -0.4960
 8617TIP3   OH250045   0.017   0.245   6.941 -0.4166 -0.1171  0.2788
 8617TIP3    H150046   0.101   0.224   6.981 -1.3626 -0.4819  2.1959
 8617TIP3    H250047  -0.043   0.256   7.015 -1.8335  1.1687 -0.9933
 8618TIP3   OH250048   1.484   5.897   6.638  0.0449  0.1723  0.1317
 8618TIP3    H150049   1.449   5.958   6.704 -0.4104  0.9438 -0.7880
 8618TIP3    H250050   1.564   5.939   6.607  0.4704 -0.3832  0.4696
 8619TIP3   OH250051   3.363   5.198   5.671 -0.0873  0.2285  0.0920
 8619TIP3    H150052   3.326   5.120   5.711 -1.0424  0.1351 -0.9333
 8619TIP3    H250053   3.427   5.165   5.608 -0.5047  0.2676 -0.3556
 8620TIP3   OH250054   6.286   1.230   5.579  0.2010 -0.1875 -0.6841
 8620TIP3    H150055   6.338   1.272   5.510  0.9249 -1.5297 -0.9987
 8620TIP3    H250056   6.196   1.259   5.562  0.6212  0.9346 -1.0789
 8621TIP3   OH250057   0.616   4.455   6.259 -0.1342 -0.4493 -0.1337
 8621TIP3    H150058   0.648   4.543   6.278  0.2513 -0.5427 -0.3548
 8621TIP3    H250059   0.573   4.428   6.340 -0.6428  0.1131 -0.2051
 8622TIP3   OH250060   0.763   0.689   6.058 -0.4021  0.0904  0.1182
 8622TIP3    H150061   0.780   0.775   6.019 -0.6315  0.1568  0.1624
 8622TIP3    H250062   0.844   0.665   6.102 -0.5627  0.6015  0.7045
 8623TIP3   OH250063   3.928   3.324   6.249 -0.0202  0.1525 -0.5263
 8623TIP3    H150064   3.949   3.411   6.215  1.3353 -0.1684 -0.5821
 8623TIP3    H250065   3.930   3.268   6.171  0.3320 -0.1242 -0.3192
 8624TIP3   OH250066   4.883   5.750   5.868 -0.0997  0.7227 -0.5742
 8624TIP3    H150067   4.975   5.774   5.855 -0.0113  0.4200 -0.5367
 8624TIP3    H250068   4.864   5.689   5.796  0.1523 -0.3287  0.2338
 8625TIP3   OH250069   4.890   3.684   8.202 -0.3167 -0.5229 -0.2245
 8625TIP3    H150070   4.868   3.656   8.114  0.5438  0.1108 -0.6593
 8625TIP3    H250071   4.868   3.609   8.257 -2.6837 -0.2379 -0.6924
 8626TIP3   OH250072   0.198   2.871   7.052  0.1240 -0.4266  0.6886
 8626TIP3    H150073   0.219   2.866   6.958 -0.2989  1.2458  0.4706
 8626TIP3    H250074   0.109   2.837   7.058 -1.3139  2.8419 -0.1593
 8627TIP3   OH250075   3.353   2.455   6.408  0.1578  0.2013 -0.1873
 8627TIP3    H150076   3.291   2.502   6.352  0.4495 -1.2766 -1.8395
 8627TIP3    H250077   3.320   2.365   6.409  0.9626 -0.0929  0.8696
 8628TIP3   OH250078   2.424   4.788   5.402  0.7894 -0.0116 -0.2821
 8628TIP3    H150079   2.396   4.879   5.412 -0.5378 -0.4248 -0.0760
 8628TIP3    H250080   2.351   4.746   5.357  1.5298 -0.9073 -0.6598
 8629TIP3   OH250081   2.030   2.389   6.850  0.1883  0.1576 -0.2880
 8629TIP3    H150082   2.021   2.297   6.873 -1.1508  0.5270  0.8688
 8629TIP3    H250083   2.054   2.389   6.757  0.8103 -1.3474 -0.1533
 8630TIP3   OH250084   0.580   5.750   7.059 -0.1907 -0.2643 -0.2057
 8630TIP3    H150085   0.636   5.714   6.991  0.0501  2.4697 -1.6195
 8630TIP3    H250086   0.598   5.697   7.136  3.4867 -0.2632 -0.8900
 8631TIP3   OH250087   4.264   5.712   6.921 -0.0135 -0.0689 -0.0790
 8631TIP3    H150088   4.341   5.658   6.940  0.3691  0.6266  0.3728
 8631TIP3    H250089   4.212   5.658   6.861  0.9639 -0.4346 -0.6286
 8632TIP3   OH250090   4.608   5.821   7.089 -0.2634 -0.4237  0.4756
 8632TIP3    H150091   4.576   5.812   7.179 -0.6309 -1.8819  0.2133
 8632TIP3    H250092   4.577   5.743   7.044  0.7774 -0.2067 -0.6690
 8633TIP3   OH250093   6.591   5.898   8.743 -0.0700 -0.0660  0.1569
 8633TIP3    H150094   6.581   5.986   8.778  1.0701  0.1012  0.0902
 8633TIP3    H250095   6.529   5.845   8.794 -0.3569  0.6689  0.5832
 8634TIP3   OH250096   3.540   2.687   8.780 -0.2657  0.2266 -0.1125
 8634TIP3    H150097   3.601   2.705   8.851  0.2923 -1.1914 -0.2132
 8634TIP3    H250098   3.593   2.691   8.700 -0.3776 -0.6382 -0.2335
 8635TIP3   OH250099   1.425   2.825   5.557  0.1711 -0.4922 -0.3532
 8635TIP3    H150100   1.429   2.801   5.465  0.5566 -1.6768 -0.0426
 8635TIP3    H250101   1.407   2.743   5.603  1.9664 -0.3228  0.7801
 8636TIP3   OH250102   0.414   5.217   7.280  0.1420 -0.2164 -0.4818
 8636TIP3    H150103   0.481   5.192   7.216  0.6128  0.3609 -0.2301
 8636TIP3    H250104   0.362   5.284   7.236 -2.5425 -3.1035 -1.9951
 8637TIP3   OH250105   2.348   3.168   7.383 -0.0488  0.0661  0.0214
 8637TIP3    H150106   2.431   3.213   7.372  0.3047 -0.6564 -0.3509
 8637TIP3    H250107   2.293   3.229   7.432  0.0475  1.3341 -1.3911
 8638TIP3   OH250108   5.159   2.377   8.865  0.0663 -0.3177  0.1839
 8638TIP3    H150109   5.148   2.458   8.916 -0.2181 -1.3603  1.8499
 8638TIP3    H250110   5.254   2.364   8.862  0.1439  0.3319 -0.5461
 8639TIP3   OH250111   4.620   2.140   8.389  0.4846 -0.0014  0.1333
 8639TIP3    H150112   4.674   2.219   8.386 -1.4615  1.3833 -1.4837
 8639TIP3    H250113   4.560   2.155   8.461  0.1050  0.0227 -0.1840
 8640TIP3   OH250114   3.919   0.578   7.135 -0.2141  0.3241 -0.0674
 8640TIP3    H150115   3.937   0.570   7.041 -1.0409 -0.4773 -0.1726
 8640TIP3    H250116   4.003   0.562   7.177 -0.4902 -3.2059 -0.5410
 8641TIP3   OH250117   2.957   5.724   7.686  0.3920  0.8804 -0.2633
 8641TIP3    H150118   2.975   5.682   7.602 -0.2404  1.9630 -0.9661
 8641TIP3    H250119   2.989   5.662   7.752 -0.6445 -0.7688 -1.2459
 8642TIP3   OH250120   6.434   2.864   8.247 -0.3300 -0.1682 -0.0505
 8642TIP3    H150121   6.347   2.839   8.216 -0.1443 -1.7166  0.6138
 8642TIP3    H250122   6.488   2.869   8.168 -0.5347 -1.2421 -0.2633
 8643TIP3   OH250123   2.394   2.976   6.386 -0.6843 -0.1229  0.0820
 8643TIP3    H150124   2.351   2.962   6.301  1.4443  1.4359 -1.3594
 8643TIP3    H250125   2.481   2.938   6.375  0.5269  2.2785  0.6190
 8644TIP3   OH250126   6.727   6.510   7.931 -0.0377  0.9124 -0.5653
 8644TIP3    H150127   6.633   6.503   7.912 -0.5393  0.4237  1.7125
 8644TIP3    H250128   6.731   6.519   8.026  2.3425 -3.0050 -0.0616
 8645TIP3   OH250129   3.930   0.909   6.140 -0.8179 -0.2091  0.3050
 8645TIP3    H150130   3.913   0.988   6.191 -1.4306 -0.8475  1.1193
 8645TIP3    H250131   3.989   0.857   6.195  0.2740  0.0304 -0.5894
 8646TIP3   OH250132   5.373   2.867   5.839 -0.5592  0.1777 -0.0508
 8646TIP3    H150133   5.370   2.796   5.903  0.8006 -0.1082 -0.2673
 8646TIP3    H250134   5.452   2.850   5.788 -1.8706  0.0896 -2.1923
 8647TIP3   OH250135   3.768   0.064   6.741 -0.3616 -0.2306 -0.2856
 8647TIP3    H150136   3.791   0.131   6.677  0.9716 -0.2682  0.1237
 8647TIP3    H250137   3.706   0.008   6.695 -1.4269  1.2076 -0.6616
 8648TIP3   OH250138   4.519   5.549   6.976  0.5020 -0.3002 -0.0046
 8648TIP3    H150139   4.492   5.493   6.904  2.0816 -0.8510 -0.1960
 8648TIP3    H250140   4.601   5.511   7.007  1.1774  1.4169  0.4081
 8649TIP3   OH250141   3.031   3.777   9.343  0.4481 -0.5927 -0.3658
 8649TIP3    H150142   3.086   3.699   9.343  1.9423  0.4263 -0.4709
 8649TIP3    H250143   3.048   3.818   9.428  1.0303  0.5235 -1.0028
 8650TIP3   OH250144   6.241   2.750   8.576  0.2390 -0.1244  0.4535
 8650TIP3    H150145   6.213   2.745   8.668  0.3508 -0.5347  0.4673
 8650TIP3    H250146   6.162   2.727   8.526  0.6994 -1.9850  0.5119
 8651TIP3   OH250147   4.149   4.601   9.107 -0.2583 -1.1805  0.1221
 8651TIP3    H150148   4.230   4.560   9.137  0.6194  0.2607 -0.1545
 8651TIP3    H250149   4.080   4.556   9.155  0.9035 -0.6220  2.4439
 8652TIP3   OH250150   5.792   1.533   6.905  0.1944  0.3013  0.4192
 8652TIP3    H150151   5.837   1.512   6.987  0.7068 -0.8322 -0.1313
 8652TIP3    H250152   5.857   1.515   6.837 -1.1591 -1.6887 -0.4367
 8653TIP3   OH250153   6.657   5.250   5.896 -0.6974 -0.0856  0.5479
 8653TIP3    H150154   6.589   5.248   5.829 -0.4910 -0.8865  0.3522
 8653TIP3    H250155   6.654   5.339   5.931 -1.6829 -0.0409  0.3746
 8654TIP3   OH250156   5.928   2.325   6.010 -0.5408 -0.0014 -0.8337
 8654TIP3    H150157   5.842   2.357   5.986 -1.3175 -2.9630 -2.4935
 8654TIP3    H250158   5.948   2.258   5.944  2.2285 -0.6826  0.5413
 8655TIP3   OH250159   6.156   2.116   7.333 -0.4604  0.1673  0.2509
 8655TIP3    H150160   6.149   2.209   7.309  2.2265 -0.3581 -3.4979
 8655TIP3    H250161   6.126   2.069   7.255  0.5618 -2.0857  1.1124
 8656TIP3   OH250162   0.396   4.625   5.834  0.0576 -0.0796 -0.9215
 8656TIP3    H150163   0.400   4.572   5.754  1.6916 -1.5100  0.0599
 8656TIP3    H250164   0.303   4.623   5.859  0.2359 -3.9319 -0.0499
 8657TIP3   OH250165   3.189   2.401   5.822 -0.2204 -0.0935  0.4806
 8657TIP3    H150166   3.231   2.433   5.742 -0.1597  2.8311  1.5583
 8657TIP3    H250167   3.257   2.404   5.889 -0.6561 -1.0790  0.9982
 8658TIP3   OH250168   3.104   1.041   7.409 -0.1972 -0.1430 -0.3073
 8658TIP3    H150169   3.180   1.036   7.351 -0.0156  0.8479 -0.1743
 8658TIP3    H250170   3.047   0.969   7.380 -0.4658  0.7775 -2.2228
 8659TIP3   OH250171   3.645   2.934   7.815 -0.3784  0.2187  0.8540
 8659TIP3    H150172   3.585   3.004   7.839 -1.6439 -0.6471  0.3447
 8659TIP3    H250173   3.589   2.867   7.775  0.9355 -0.6189  0.3432
 8660TIP3   OH250174   2.656   5.340   6.522 -0.7452  0.4449  0.0451
 8660TIP3    H150175   2.714   5.359   6.597 -0.4262 -2.3719  0.6397
 8660TIP3    H250176   2.706   5.278   6.469 -2.2041 -0.0074 -0.8471
 8661TIP3   OH250177   0.192   2.836   5.405  0.4549 -0.1788  0.2447
 8661TIP3    H150178   0.280   2.838   5.368 -0.2658  0.9849 -1.5601
 8661TIP3    H250179   0.205   2.830   5.499  2.4431 -0.6828 -0.0356
 8662TIP3   OH250180   2.503   5.216   6.317  0.2520 -0.6087  0.2733
 8662TIP3    H150181   2.548   5.252   6.394 -0.4134  0.2338  0.2835
 8662TIP3    H250182   2.479   5.127   6.343  1.1386 -0.7723  0.5801
 8663TIP3   OH250183   1.370   4.953   7.030 -0.1285 -0.5559  0.0229
 8663TIP3    H150184   1.326   5.036   7.009 -0.4379 -0.4996  0.8502
 8663TIP3    H250185   1.324   4.922   7.108  1.3574 -0.4631  0.9652
 8664TIP3   OH250186   6.531   3.870   6.634  0.2227 -0.5343  0.0276
 8664TIP3    H150187   6.556   3.872   6.727 -0.5266  1.4967  0.2548
 8664TIP3    H250188   6.530   3.778   6.611  3.1817 -1.0098  1.2586
 8665TIP3   OH250189   5.348   5.404   6.064 -0.0877 -0.6317  0.3146
 8665TIP3    H150190   5.297   5.327   6.041  0.2529 -0.4460 -1.1619
 8665TIP3    H250191   5.292   5.478   6.041  0.0522 -0.4262  0.6144
 8666TIP3   OH250192   3.233   3.140   8.227  0.4733 -0.5328  0.4139
 8666TIP3    H150193   3.242   3.228   8.263 -1.0595  0.0187 -0.4558
 8666TIP3    H250194   3.210   3.086   8.302 -2.9681  0.6538  0.4080
 8667TIP3   OH250195   6.701   1.198   6.266  0.1860 -0.0100 -0.3795
 8667TIP3    H150196   6.778   1.240   6.304 -0.1487 -0.3378  0.6908
 8667TIP3    H250197   6.627   1.240   6.310 -0.2203 -0.3230 -0.7518
 8668TIP3   OH250198   0.759   2.800   6.346 -0.2090  0.0898 -0.2559
 8668TIP3    H150199   0.847   2.762   6.351  0.3187  1.0137 -1.6919
 8668TIP3    H250200   0.713   2.766   6.422  0.8652 -1.7722 -0.3976
 8669TIP3   OH250201   3.521   4.906   6.504  0.3503  0.1787  0.3023
 8669TIP3    H150202   3.501   4.821   6.467 -0.7685 -0.1216  1.5068
 8669TIP3    H250203   3.616   4.912   6.501  0.3429 -0.2612 -1.5823
 8670TIP3   OH250204   5.645   4.251   5.799 -0.6043  0.8320 -0.3894
 8670TIP3    H150205   5.730   4.264   5.839 -0.3248 -0.4116 -0.5458
 8670TIP3    H250206   5.655   4.286   5.710  0.1379 -0.4265 -0.8202
 8671TIP3   OH250207   1.902   2.551   8.070  0.6418  0.2612 -0.2117
 8671TIP3    H150208   1.822   2.519   8.112  0.0389  0.3848 -1.2214
 8671TIP3    H250209   1.897   2.646   8.079  0.3037  0.3157 -0.8936
 8672TIP3   OH250210   2.280   6.460   6.886  0.1520 -0.3820 -0.0439
 8672TIP3    H150211   2.220   6.391   6.914 -0.5528  0.4638  0.5758
 8672TIP3    H250212   2.238   6.498   6.808  0.2178 -0.2302 -0.0066
 8673TIP3   OH250213   2.436   2.200   6.286  0.6184  0.1848 -0.3307
 8673TIP3    H150214   2.485   2.209   6.204  1.5929  1.1992  0.3322
 8673TIP3    H250215   2.488   2.140   6.339  1.6042  1.8277  0.6570
 8674TIP3   OH250216   6.560   2.271   8.672 -0.7846  0.3961  0.1348
 8674TIP3    H150217   6.560   2.332   8.598  0.0385  0.1735 -0.0581
 8674TIP3    H250218   6.559   2.328   8.749  0.0335  0.6564 -0.0420
 8675TIP3   OH250219   2.183   2.111   6.859 -0.1718 -0.1816  0.3481
 8675TIP3    H150220   2.245   2.100   6.930 -0.5674  0.8398  0.8686
 8675TIP3    H250221   2.237   2.122   6.781  0.2920  0.1744  0.7171
 8676TIP3   OH250222   3.775   6.182   6.418  0.1538 -0.2329  0.0229
 8676TIP3    H150223   3.845   6.127   6.455  0.2772  0.0233  0.1698
 8676TIP3    H250224   3.817   6.267   6.403 -0.3389  0.1632  0.8580
 8677TIP3   OH250225   0.341   6.585   8.165  0.4723  0.0917 -0.6372
 8677TIP3    H150226   0.358   6.496   8.136  0.1898  0.4099 -1.8622
 8677TIP3    H250227   0.285   6.622   8.097  1.5768  1.5714 -0.8051
 8678TIP3   OH250228   6.697   3.076   8.216  0.0415 -0.2442  0.2875
 8678TIP3    H150229   6.661   3.157   8.253  0.8781  0.0998  0.3651
 8678TIP3    H250230   6.650   3.006   8.262 -1.6176  0.1679 -0.6854
 8679TIP3   OH250231   1.989   1.430   7.886  0.3840  0.4627  0.8212
 8679TIP3    H150232   2.029   1.379   7.957 -0.5707 -1.4148  0.0940
 8679TIP3    H250233   2.034   1.400   7.807 -1.1932 -0.4190  0.2013
 8680TIP3   OH250234   2.754   3.849   6.050  0.1541 -0.5430  0.6481
 8680TIP3    H150235   2.787   3.913   6.113 -0.7902 -0.8222  1.4417
 8680TIP3    H250236   2.762   3.894   5.966 -2.2326  1.4037  1.3445
 8681TIP3   OH250237   5.066   0.327   8.521 -0.5287 -0.7767  0.4239
 8681TIP3    H150238   4.982   0.283   8.512 -0.9986 -0.0551  1.0815
 8681TIP3    H250239   5.043   0.420   8.527  0.3482 -0.5403  0.1662
 8682TIP3   OH250240   0.039   5.112   6.607  0.3624  0.1650 -0.4455
 8682TIP3    H150241  -0.009   5.100   6.689  0.9427 -1.2036 -0.2639
 8682TIP3    H250242  -0.014   5.172   6.556  0.4033  1.7378  1.2584
 8683TIP3   OH250243   3.428   3.914   5.999 -0.1989 -0.8572 -0.5055
 8683TIP3    H150244   3.403   3.847   5.935  1.1506  1.3668 -3.6129
 8683TIP3    H250245   3.353   3.974   6.002  0.4058 -0.0241 -1.4271
 8684TIP3   OH250246   6.056   1.344   5.512  0.7460  0.2485 -0.2943
 8684TIP3    H150247   5.983   1.324   5.454  0.1178 -2.0882  1.1639
 8684TIP3    H250248   6.058   1.439   5.516 -0.4572  0.4366 -2.4887
 8685TIP3   OH250249   4.714   1.451   6.650 -0.1413  0.1151  0.2778
 8685TIP3    H150250   4.663   1.531   6.662  0.5243  0.8667 -1.5370
 8685TIP3    H250251   4.798   1.481   6.614  0.6170 -1.3030  0.7698
 8686TIP3   OH250252   0.348   2.310   6.053 -0.4698 -0.0783 -0.2814
 8686TIP3    H150253   0.286   2.366   6.006 -1.5101  1.2317  2.3906
 8686TIP3    H250254   0.428   2.361   6.057  0.4189 -1.1786 -2.5135
 8687TIP3   OH250255   5.622   2.270   7.803 -0.4850 -0.0780  0.3202
 8687TIP3    H150256   5.648   2.190   7.849  1.4635  0.2710 -0.1029
 8687TIP3    H250257   5.627   2.339   7.869  0.8607  0.1790 -0.0296
 8688TIP3   OH250258   3.320   5.491   8.741 -0.6817  0.1484 -0.0334
 8688TIP3    H150259   3.297   5.399   8.734  0.2169 -0.0540 -0.5405
 8688TIP3    H250260   3.347   5.503   8.831 -1.8507  0.1877  0.3343
 8689TIP3   OH250261   6.121   5.317   6.063  0.5001 -0.3039  0.5673
 8689TIP3    H150262   6.088   5.401   6.029  1.1831  0.3230  1.4308
 8689TIP3    H250263   6.070   5.251   6.015  0.0817  0.5909 -0.2621
 8690TIP3   OH250264   0.898   3.977   8.355 -0.2584  0.0416 -0.5917
 8690TIP3    H150265   0.970   3.920   8.327  1.0412  0.0173  2.4466
 8690TIP3    H250266   0.824   3.951   8.299  1.2053 -2.2045 -1.6405
 8691TIP3   OH250267   1.293   4.598   8.443 -0.5893  0.5526 -0.6233
 8691TIP3    H150268   1.277   4.594   8.348 -0.6043  1.7447 -0.6926
 8691TIP3    H250269   1.209   4.627   8.480 -0.7799 -0.5527 -0.1618
 8692TIP3   OH250270   3.123   3.140   8.828 -0.3069  0.1816  0.3635
 8692TIP3    H150271   3.027   3.143   8.821 -0.4207 -0.2195  1.4386
 8692TIP3    H250272   3.140   3.055   8.868  0.4601  0.4907  0.7038
 8693TIP3   OH250273   5.925   4.708   7.506  0.1284 -0.6448 -0.2061
 8693TIP3    H150274   5.909   4.714   7.412 -2.0544 -1.7105  0.0275
 8693TIP3    H250275   5.955   4.795   7.531  0.3705 -0.2343 -1.8183
 8694TIP3   OH250276   3.323   5.943   7.644 -0.1868 -0.1354  0.4645
 8694TIP3    H150277   3.233   5.956   7.674  0.2833  2.1271  1.0934
 8694TIP3    H250278   3.377   5.988   7.709  1.3481 -0.7062 -0.3629
 8695TIP3   OH250279   4.401   2.270   7.957  0.2509  0.5082 -0.3433
 8695TIP3    H150280   4.341   2.300   7.888  0.1382  2.1123  0.4025
 8695TIP3    H250281   4.370   2.182   7.979 -0.9509  0.7544 -0.9567
 8696TIP3   OH250282   3.148   6.069   7.048 -0.7692 -0.2871  0.8632
 8696TIP3    H150283   3.198   5.992   7.022 -3.3430 -1.8219  0.1154
 8696TIP3    H250284   3.166   6.078   7.142  1.7373 -0.0363  0.4245
 8697TIP3   OH250285   6.106   0.849   8.297  0.5820  0.1861 -0.1362
 8697TIP3    H150286   6.011   0.840   8.297  0.5020  0.7353 -2.1059
 8697TIP3    H250287   6.129   0.853   8.390 -1.5357  2.2808  0.4044
 8698TIP3   OH250288   0.061   2.375   8.303  0.6896  0.5239 -0.0169
 8698TIP3    H150289   0.084   2.460   8.339  2.9329 -0.3994  0.9298
 8698TIP3    H250290   0.119   2.313   8.348  0.9146 -1.1960 -2.4733
 8699TIP3   OH250291   1.906   3.865   7.335  1.0061 -0.0599  0.5353
 8699TIP3    H150292   1.994   3.837   7.308  0.7743  0.9898 -1.5295
 8699TIP3    H250293   1.865   3.895   7.254 -0.1936  2.3218  1.9322
 8700TIP3   OH250294   6.364   4.178   5.772  0.0880  0.0791 -0.0763
 8700TIP3    H150295   6.424   4.201   5.844  0.2084 -0.0585 -0.1322
 8700TIP3    H250296   6.328   4.262   5.743  1.4672  0.3467 -1.1135
 8701TIP3   OH250297   2.859   1.794   5.809 -0.2144 -0.3788 -0.0557
 8701TIP3    H150298   2.879   1.707   5.843  0.1643 -0.2593  0.0410
 8701TIP3    H250299   2.898   1.854   5.873  0.6094 -0.1538 -0.7533
 8702TIP3   OH250300   1.916   1.655   7.332  0.3730  0.3707  0.4930
 8702TIP3    H150301   1.958   1.741   7.340  0.0332  0.4737  1.2607
 8702TIP3    H250302   1.894   1.630   7.421  0.3930 -0.4873  0.2684
 8703TIP3   OH250303   3.475   3.386   7.830 -0.0818 -0.2432 -0.5139
 8703TIP3    H150304   3.540   3.443   7.870 -0.3893 -0.3252  0.1083
 8703TIP3    H250305   3.394   3.437   7.830 -0.6593 -1.0717  1.1451
 8704TIP3   OH250306   4.941   4.195   9.104  0.0516 -0.4308 -0.2781
 8704TIP3    H150307   4.960   4.289   9.098 -0.8927 -0.2606 -0.6714
 8704TIP3    H250308   5.019   4.158   9.146  1.4314  0.2036 -2.1349
 8705TIP3   OH250309   5.133   4.970   7.373  0.5371  0.5951  0.4580
 8705TIP3    H150310   5.088   4.978   7.288  1.1828  1.1245  0.1558
 8705TIP3    H250311   5.129   4.877   7.394 -3.4427  0.8821  1.9546
 8706TIP3   OH250312   6.690   6.187   7.374  0.1877  0.3678 -0.1755
 8706TIP3    H150313   6.748   6.167   7.301 -1.2105 -0.4109 -1.1233
 8706TIP3    H250314   6.630   6.253   7.338  0.4828  1.1826  0.7921
 8707TIP3   OH250315   0.742   0.246   8.096 -0.2635  0.5877  0.4362
 8707TIP3    H150316   0.715   0.314   8.158  1.3848  1.2934  0.4303
 8707TIP3    H250317   0.828   0.274   8.066  0.8690 -1.9120  1.0811
 8708TIP3   OH250318   3.940   5.022   7.735 -0.1610 -0.6798 -0.3053
 8708TIP3    H150319   3.924   5.066   7.818  0.4787 -0.2325 -0.4049
 8708TIP3    H250320   3.861   5.036   7.684 -0.0377  0.2021 -0.2655
 8709TIP3   OH250321   6.248   5.559   8.936  0.2950 -0.1772 -1.0539
 8709TIP3    H150322   6.159   5.559   8.901  0.8353 -1.7625 -2.5653
 8709TIP3    H250323   6.273   5.651   8.939 -1.1365  0.2420 -1.2492
 8710TIP3   OH250324   1.517   4.942   7.530 -0.3507 -0.0070  0.5500
 8710TIP3    H150325   1.470   4.904   7.456 -0.8469 -0.5239  1.1211
 8710TIP3    H250326   1.452   4.996   7.575  0.5116  2.1668 -0.6549
 8711TIP3   OH250327   1.631   2.003   8.924  0.3567 -0.2702 -0.4098
 8711TIP3    H150328   1.673   1.925   8.887  0.0003 -1.2253  1.1151
 8711TIP3    H250329   1.539   1.979   8.934 -0.2309  1.1370 -1.9110
 8712TIP3   OH250330   5.329   3.184   6.695 -0.4731 -0.3508 -0.1347
 8712TIP3    H150331   5.272   3.148   6.762 -0.2914 -1.7656 -0.7001
 8712TIP3    H250332   5.323   3.122   6.622  1.4275 -0.3275 -0.3753
 8713TIP3   OH250333   3.310   4.457   7.565  0.0606 -0.1764  0.0500
 8713TIP3    H150334   3.338   4.445   7.474  0.3309  0.1764  0.0845
 8713TIP3    H250335   3.383   4.502   7.606 -1.1981  2.3279 -0.2752
 8714TIP3   OH250336   3.452   4.675   8.425 -0.0008  0.1129  0.2937
 8714TIP3    H150337   3.460   4.645   8.515 -0.2222  0.6085  0.4840
 8714TIP3    H250338   3.399   4.608   8.381 -0.7801  0.3944  0.7942
 8715TIP3   OH250339   1.671   4.863   8.425  0.0902 -0.0328  0.1636
 8715TIP3    H150340   1.730   4.909   8.367 -0.2299  2.3739  1.6108
 8715TIP3    H250341   1.608   4.820   8.367  1.2172  0.2017 -1.2860
 8716TIP3   OH250342   3.253   0.572   6.445 -0.1693  0.1623 -0.0611
 8716TIP3    H150343   3.238   0.482   6.416 -0.2839  0.1546  0.0232
 8716TIP3    H250344   3.335   0.597   6.402  0.2731 -0.2469  0.5305
 8717TIP3   OH250345   3.475   1.915   7.029 -0.5308 -0.4846 -0.2708
 8717TIP3    H150346   3.513   1.902   7.116 -1.2085  0.5768  0.2057
 8717TIP3    H250347   3.385   1.943   7.046 -0.5111  0.2784 -1.2960
 8718TIP3   OH250348   4.787   2.100   6.566  0.2386 -0.6639 -0.4798
 8718TIP3    H150349   4.859   2.154   6.599  0.6948 -2.5358  1.8090
 8718TIP3    H250350   4.784   2.120   6.472  1.1558  2.3490  0.0147
 8719TIP3   OH250351   3.834   3.109   8.500  0.0984  0.1583  0.0163
 8719TIP3    H150352   3.768   3.160   8.545 -0.8141 -2.0157  1.2782
 8719TIP3    H250353   3.837   3.026   8.547  2.7128 -0.3639 -0.8948
 8720TIP3   OH250354   2.936   5.112   8.735 -0.6013  0.1018  0.7056
 8720TIP3    H150355   2.863   5.123   8.674 -1.1131  0.4540  1.3659
 8720TIP3    H250356   2.958   5.019   8.729  0.3866  0.4046 -1.1480
 8721TIP3   OH250357   1.564   2.299   6.021 -0.2008  0.5304 -0.2762
 8721TIP3    H150358   1.472   2.275   6.032 -1.1832  3.2513 -1.4625
 8721TIP3    H250359   1.609   2.255   6.093 -2.5507 -0.2654  0.8378
 8722TIP3   OH250360   2.994   4.790   9.038  0.0737  0.3130  0.0090
 8722TIP3    H150361   3.025   4.811   8.950 -1.5015 -1.2788 -0.9885
 8722TIP3    H250362   3.020   4.699   9.051 -1.7122 -0.2066  0.2105
 8723TIP3   OH250363   5.564   0.018   8.682 -0.4910 -0.3751  0.5367
 8723TIP3    H150364   5.485   0.055   8.720 -0.6966 -0.7836  0.5131
 8723TIP3    H250365   5.596  -0.043   8.749 -0.5638 -0.7078  0.2678
 8724TIP3   OH250366   5.770   2.981   7.202 -0.3258 -0.0422  0.1383
 8724TIP3    H150367   5.796   3.038   7.129 -0.2583 -1.5372 -1.0592
 8724TIP3    H250368   5.683   2.949   7.177 -1.0933  0.8016  1.5954
 8725TIP3   OH250369   6.463   2.020   6.191 -0.0904 -0.0479 -0.4451
 8725TIP3    H150370   6.509   2.003   6.109  0.5983  0.5051 -0.1842
 8725TIP3    H250371   6.518   2.084   6.236 -0.4933 -0.2922  0.4148
 8726TIP3   OH250372   0.380   1.397   7.886  0.3741  0.5551 -0.2717
 8726TIP3    H150373   0.366   1.328   7.821 -2.2976 -0.5095  1.2955
 8726TIP3    H250374   0.384   1.478   7.834 -1.1787 -0.2984 -1.8234
 8727TIP3   OH250375   0.167   4.675   5.467 -0.0951 -0.8497  0.3417
 8727TIP3    H150376   0.157   4.740   5.537 -0.8547 -1.5799  0.9361
 8727TIP3    H250377   0.087   4.623   5.471 -0.1984 -0.8581 -1.1433
 8728TIP3   OH250378   0.864   4.076   7.674 -0.2230  0.0872  0.2054
 8728TIP3    H150379   0.894   4.165   7.658 -0.8600  0.5156  1.2933
 8728TIP3    H250380   0.904   4.052   7.758 -2.2599  0.4147  1.3362
 8729TIP3   OH250381   1.336   4.619   8.005  0.5967  0.3889  0.6459
 8729TIP3    H150382   1.346   4.537   7.958  1.1525  1.1046 -0.5481
 8729TIP3    H250383   1.367   4.686   7.944 -0.1339  1.5249  1.4574
 8730TIP3   OH250384   1.154   2.576   7.921  0.0624 -0.0441 -0.1640
 8730TIP3    H150385   1.150   2.630   8.000  2.2393  1.2645 -0.8390
 8730TIP3    H250386   1.182   2.490   7.952  0.6629  0.3870  0.5375
 8731TIP3   OH250387   2.149   5.302   5.866  0.3884 -0.2283  0.6206
 8731TIP3    H150388   2.207   5.378   5.875  0.8094 -0.5297  0.4996
 8731TIP3    H250389   2.076   5.321   5.924  0.0268  0.6967 -0.1058
 8732TIP3   OH250390   0.027   0.273   5.865 -0.2014 -0.1951 -0.6239
 8732TIP3    H150391  -0.065   0.255   5.886 -0.0281 -0.7489 -0.3098
 8732TIP3    H250392   0.072   0.191   5.886  0.7236  0.7853  1.5320
 8733TIP3   OH250393   0.303   5.718   7.552 -0.3802 -0.7335 -0.1662
 8733TIP3    H150394   0.267   5.754   7.471  1.4098 -0.8503 -1.0622
 8733TIP3    H250395   0.241   5.745   7.620 -0.2998  2.1497 -1.1027
 8734TIP3   OH250396   6.533   2.490   7.273 -0.3667 -0.1251 -0.4629
 8734TIP3    H150397   6.628   2.496   7.286 -0.1937  0.9080 -1.8956
 8734TIP3    H250398   6.521   2.412   7.219 -0.1426  0.4855 -1.4460
 8735TIP3   OH250399   6.075   4.892   8.135  0.6340 -0.3720  0.0396
 8735TIP3    H150400   6.004   4.907   8.072  1.1628 -0.4325 -0.5722
 8735TIP3    H250401   6.085   4.797   8.137  0.5969 -0.3727  0.2443
 8736TIP3   OH250402   3.666   3.569   7.929  0.0961 -0.3895  0.9343
 8736TIP3    H150403   3.634   3.657   7.907 -0.5700 -0.4805  1.5246
 8736TIP3    H250404   3.723   3.583   8.005 -0.4824 -0.5430  1.3980
 8737TIP3   OH250405   3.249   5.470   7.518  0.6371  0.0687 -0.3479
 8737TIP3    H150406   3.162   5.506   7.534  0.7171  0.3473 -0.5311
 8737TIP3    H250407   3.235   5.402   7.452  0.5983  0.3185 -0.6018
 8738TIP3   OH250408   2.982   1.522   5.636 -0.1403 -0.5468  0.1661
 8738TIP3    H150409   2.920   1.592   5.619  0.1993  0.0983  1.4911
 8738TIP3    H250410   3.044   1.527   5.563  0.6787  1.4542  0.9405
 8739TIP3   OH250411   2.039   5.545   8.194 -0.2935  0.3823  0.3876
 8739TIP3    H150412   2.133   5.529   8.195 -0.4377 -0.6784 -0.3536
 8739TIP3    H250413   2.018   5.573   8.283  0.6146 -0.0427  0.7466
 8740TIP3   OH250414   2.364   1.476   7.645 -0.2034  0.7262  0.0073
 8740TIP3    H150415   2.330   1.399   7.599  1.6401  0.3138 -0.7759
 8740TIP3    H250416   2.375   1.542   7.576 -0.0811  1.0761  0.3589
 8741TIP3   OH250417   5.481   5.209   7.268  0.0402 -0.8371  0.1472
 8741TIP3    H150418   5.573   5.190   7.287  0.3759  0.3708 -0.1636
 8741TIP3    H250419   5.483   5.288   7.214 -1.2300 -0.1406  1.0535
 8742TIP3   OH250420   3.231   1.978   7.140  0.0407 -0.0961  0.4202
 8742TIP3    H150421   3.154   1.985   7.083  0.1203 -1.3144  0.1206
 8742TIP3    H250422   3.198   1.996   7.228  0.0330  2.4261 -0.0446
 8743TIP3   OH250423   2.211   6.185   8.033  0.5103  0.1180  0.5448
 8743TIP3    H150424   2.267   6.246   7.985 -0.7780  0.0906 -1.0859
 8743TIP3    H250425   2.141   6.240   8.068  0.7317 -0.0594  1.2717
 8744TIP3   OH250426   4.289   5.980   6.924  0.4109 -0.3597  0.1876
 8744TIP3    H150427   4.371   5.971   6.874  0.5146 -0.6747  0.4083
 8744TIP3    H250428   4.252   5.892   6.925 -0.1014 -0.1530 -0.1907
 8745TIP3   OH250429   4.778   2.926   7.529 -0.5089  1.0595  0.2937
 8745TIP3    H150430   4.837   2.861   7.492  0.1702  1.3983  0.7534
 8745TIP3    H250431   4.834   2.979   7.586 -0.8938  2.4746 -0.5879
 8746TIP3   OH250432   5.298   1.836   8.137  0.0590 -0.3220 -0.3117
 8746TIP3    H150433   5.316   1.854   8.045  0.0822 -0.7660 -0.3962
 8746TIP3    H250434   5.280   1.742   8.140  1.2295 -0.5397  0.3142
 8747TIP3   OH250435   3.568   2.300   7.159  0.6954 -0.1130 -0.0193
 8747TIP3    H150436   3.546   2.228   7.219  0.4569 -1.0500 -1.1907
 8747TIP3    H250437   3.663   2.292   7.148  0.6944 -0.1404 -0.0088
 8748TIP3   OH250438   4.614   2.671   5.442 -0.4265 -0.1159  0.2118
 8748TIP3    H150439   4.690   2.653   5.387  0.0036  3.3085 -0.5582
 8748TIP3    H250440   4.645   2.733   5.508 -2.4960  1.5147 -0.2236
 8749TIP3   OH250441   5.507   2.615   6.677  0.0698  0.5988 -0.2544
 8749TIP3    H150442   5.433   2.556   6.668 -0.6732  1.5295 -0.3935
 8749TIP3    H250443   5.584   2.559   6.667 -0.6241 -0.1827 -1.3766
 8750TIP3   OH250444   1.621   1.284   7.256 -0.1997  0.0705 -0.0904
 8750TIP3    H150445   1.654   1.324   7.337 -3.4248  1.9187  0.4818
 8750TIP3    H250446   1.546   1.232   7.284 -1.3063  0.6394 -1.8716
 8751TIP3   OH250447   1.794   1.994   8.360 -0.4683 -0.2631 -0.1222
 8751TIP3    H150448   1.884   2.013   8.389 -0.0206  0.1330 -1.6856
 8751TIP3    H250449   1.772   1.912   8.404  0.5299 -0.1993  0.5450
 8752TIP3   OH250450   2.381   0.331   6.892 -0.2208 -0.1605 -0.4136
 8752TIP3    H150451   2.438   0.292   6.826 -0.5732  1.2814 -1.6377
 8752TIP3    H250452   2.405   0.288   6.974  2.2218 -0.0263 -0.9847
 8753TIP3   OH250453   2.747   6.483   8.293  0.1419  0.5698  0.1186
 8753TIP3    H150454   2.736   6.568   8.250 -0.7653  0.7247  0.6350
 8753TIP3    H250455   2.693   6.489   8.372  0.4939 -0.2992  0.4340
 8754TIP3   OH250456   3.272   5.073   6.661  0.5764  0.3009 -0.1278
 8754TIP3    H150457   3.211   5.081   6.588 -0.5781 -3.3661  0.2143
 8754TIP3    H250458   3.354   5.047   6.621  0.3332 -0.3036 -0.2465
 8755TIP3   OH250459   0.735   4.091   8.559  0.2984 -0.0112  0.2729
 8755TIP3    H150460   0.760   4.051   8.476 -1.6559  0.8839 -0.7998
 8755TIP3    H250461   0.757   4.024   8.625  0.1105 -1.5300 -1.1324
 8756TIP3   OH250462   3.117   0.833   6.683  0.7052 -0.4511  0.4026
 8756TIP3    H150463   3.056   0.761   6.697  1.1298 -1.2131 -1.3569
 8756TIP3    H250464   3.203   0.790   6.674  0.9709  0.2377 -0.6353
 8757TIP3   OH250465   2.134   2.225   7.175  0.4191 -0.1092 -0.0489
 8757TIP3    H150466   2.080   2.148   7.155 -1.0754  0.9542 -0.2778
 8757TIP3    H250467   2.216   2.209   7.128 -1.2204  0.1299 -3.2624
 8758TIP3   OH250468   3.469   1.260   5.931  0.7904 -0.0825  0.0786
 8758TIP3    H150469   3.403   1.196   5.958 -0.3539  0.7084 -0.7617
 8758TIP3    H250470   3.526   1.211   5.871  0.3123 -0.4916 -0.0469
 8759TIP3   OH250471   6.541   4.540   6.135 -0.8191  0.2811  0.2625
 8759TIP3    H150472   6.573   4.615   6.184 -1.7329  0.5878  0.4037
 8759TIP3    H250473   6.547   4.467   6.196 -0.1444  0.2718  0.1958
 8760TIP3   OH250474   4.665   4.413   8.938 -0.1235  0.5967 -0.4220
 8760TIP3    H150475   4.672   4.422   8.843 -0.5776  0.3276 -0.4821
 8760TIP3    H250476   4.694   4.498   8.972 -2.6301  1.7313 -0.9185
 8761TIP3   OH250477   1.398   3.844   8.659  0.2152  0.0547  0.1130
 8761TIP3    H150478   1.397   3.878   8.748 -0.2823  1.1987 -0.3018
 8761TIP3    H250479   1.321   3.787   8.654  1.1113 -1.2658  0.8473
 8762TIP3   OH250480   3.211   2.121   6.176  0.5203  0.0626 -0.0177
 8762TIP3    H150481   3.236   2.087   6.090  1.3051 -1.2321  0.6925
 8762TIP3    H250482   3.180   2.044   6.224 -1.7251  1.0544  0.2674
 8763TIP3   OH250483   1.131   1.463   7.037  0.5305  0.1352  0.0207
 8763TIP3    H150484   1.066   1.413   7.087  1.6856 -0.0142  1.4200
 8763TIP3    H250485   1.189   1.397   7.000  0.4287  0.3138 -0.4643
 8764TIP3   OH250486   0.660   4.421  16.430 -0.2370 -0.2336 -0.8087
 8764TIP3    H150487   0.626   4.510  16.442  2.6082  0.9112 -0.4546
 8764TIP3    H250488   0.714   4.425  16.351  0.7607 -1.3510 -0.2276
 8765TIP3   OH250489   1.586   6.055   7.659 -0.3244 -0.0792  0.1309
 8765TIP3    H150490   1.552   6.065   7.748  0.3221  0.9091  0.2828
 8765TIP3    H250491   1.681   6.064   7.668 -0.1556 -1.0925 -0.5123
 8766TIP3   OH250492   5.529   3.699   7.028 -0.1302  0.3565  0.7021
 8766TIP3    H150493   5.485   3.694   6.943 -0.2865 -0.8946  0.8386
 8766TIP3    H250494   5.458   3.707   7.092  0.0283  2.9303  0.6586
 8767TIP3   OH250495   4.474   5.523   8.374  0.0772  0.1377 -0.3998
 8767TIP3    H150496   4.539   5.561   8.434 -1.5692  1.9716  0.3098
 8767TIP3    H250497   4.493   5.429   8.377  2.2224  0.5128  0.3320
 8768TIP3   OH250498   2.391   3.013   6.664  0.1442  0.2052 -0.5225
 8768TIP3    H150499   2.466   2.961   6.692 -0.3507 -1.7575 -2.6101
 8768TIP3    H250500   2.393   3.011   6.569 -2.2539  0.5162 -0.6613
 8769TIP3   OH250501   4.280   5.661   7.689 -0.5536  0.3967 -0.1275
 8769TIP3    H150502   4.327   5.586   7.726  1.1946  1.1310 -0.7651
 8769TIP3    H250503   4.260   5.635   7.599 -0.9201  0.2950 -0.0200
 8770TIP3   OH250504   6.343   1.232   7.504 -0.7456 -0.5489  0.4688
 8770TIP3    H150505   6.301   1.182   7.435 -0.5107 -0.6732  0.4168
 8770TIP3    H250506   6.431   1.249   7.472 -0.4569 -1.0774  0.9668
 8771TIP3   OH250507   0.949   5.401   6.162 -0.2941  0.3286  0.1014
 8771TIP3    H150508   0.906   5.340   6.101 -0.2528 -0.4764  0.8499
 8771TIP3    H250509   0.886   5.473   6.172 -0.1962  0.5886 -1.0625
 8772TIP3   OH250510   1.054   5.308   8.935  0.1890  0.8566 -0.0171
 8772TIP3    H150511   1.013   5.378   8.885  1.0098  0.6616 -0.9975
 8772TIP3    H250512   1.008   5.229   8.908 -1.4264  1.0869  1.8396
 8773TIP3   OH250513   2.607   6.208   7.381 -0.5682  0.1435  0.1876
 8773TIP3    H150514   2.547   6.214   7.307 -0.8836 -0.5479  0.3852
 8773TIP3    H250515   2.694   6.210   7.342 -0.7364 -0.3414 -0.2105
 8774TIP3   OH250516   1.977   0.566   9.032  0.5382 -0.0998  0.4114
 8774TIP3    H150517   1.951   0.652   8.998  2.9512  0.2498 -0.6927
 8774TIP3    H250518   2.071   0.574   9.048  0.7019 -2.3707  0.8329
 8775TIP3   OH250519   4.430   1.753   7.363 -0.7513  0.6357  0.4678
 8775TIP3    H150520   4.338   1.743   7.387 -0.5997  0.5538  1.0179
 8775TIP3    H250521   4.441   1.845   7.342 -1.0076  0.6042  0.1981
 8776TIP3   OH250522   5.514   1.094  13.115 -0.3207 -0.1375 -0.2189
 8776TIP3    H150523   5.560   1.022  13.071  0.8283  0.3861  0.0822
 8776TIP3    H250524   5.546   1.173  13.072  0.1315  0.3237  0.9052
 8777TIP3   OH250525   5.761   6.331   9.240  0.0564 -0.2480  0.7233
 8777TIP3    H150526   5.832   6.267   9.247 -0.6610 -1.0754  0.5560
 8777TIP3    H250527   5.704   6.312   9.315  0.1516  0.6049  1.0287
 8778TIP3   OH250528   2.679   3.618   7.315 -1.0208  0.0782 -0.4976
 8778TIP3    H150529   2.756   3.675   7.323 -2.2936  1.6828  0.9108
 8778TIP3    H250530   2.692   3.551   7.382  0.5070 -1.4795 -2.1971
 8779TIP3   OH250531   1.678   0.348   8.144  0.1799  0.0036  0.0757
 8779TIP3    H150532   1.594   0.363   8.187  0.8126  1.2298  0.9191
 8779TIP3    H250533   1.714   0.435   8.129  0.8602 -0.4690 -1.2052
 8780TIP3   OH250534   4.678   0.077   6.179 -0.6656 -0.2273 -0.5341
 8780TIP3    H150535   4.722   0.002   6.219 -0.4656  0.8475  1.3486
 8780TIP3    H250536   4.657   0.047   6.090  0.8987 -1.9168 -0.4073
 8781TIP3   OH250537   3.555   6.722   8.489  0.3958  0.2933  0.1967
 8781TIP3    H150538   3.639   6.686   8.518 -0.4231 -1.9346 -0.0089
 8781TIP3    H250539   3.507   6.738   8.570  1.5831  3.3356  0.4385
 8782TIP3   OH250540   4.074   2.958   5.807 -0.0370  0.5923 -0.6471
 8782TIP3    H150541   4.064   2.907   5.888 -0.0386 -0.6930 -1.4428
 8782TIP3    H250542   4.051   3.048   5.833  0.3289  0.2820  0.8655
 8783TIP3   OH250543   2.785   1.014   8.262  0.3911  0.2267  0.0120
 8783TIP3    H150544   2.731   1.065   8.201  0.3261 -0.2784 -0.3613
 8783TIP3    H250545   2.749   1.034   8.348 -0.9469 -0.7609 -0.2931
 8784TIP3   OH250546   5.491   1.633   7.064 -0.3905  0.5555  0.2388
 8784TIP3    H150547   5.586   1.632   7.076 -0.1995 -1.1404 -1.0795
 8784TIP3    H250548   5.456   1.591   7.143  0.0837 -0.3664 -0.0290
 8785TIP3   OH250549   2.149   4.626   9.146 -0.7572  0.1218 -0.0666
 8785TIP3    H150550   2.134   4.541   9.188 -1.0317 -0.2582 -0.9113
 8785TIP3    H250551   2.061   4.659   9.126 -0.6655  0.7560  0.5270
 8786TIP3   OH250552   3.530   3.259   6.160  0.3053 -0.4708  0.0252
 8786TIP3    H150553   3.435   3.247   6.154  0.4150 -0.6364 -1.7128
 8786TIP3    H250554   3.541   3.352   6.178 -0.1691 -0.4701  0.3435
 8787TIP3   OH250555   5.851   0.768   5.997  0.3462 -0.3260 -0.7620
 8787TIP3    H150556   5.794   0.725   5.933 -0.5791  0.4362 -0.4847
 8787TIP3    H250557   5.850   0.710   6.073  1.2285 -1.0972 -1.3157
 8788TIP3   OH250558   0.271   1.021   6.392 -0.2260  0.2550 -0.2917
 8788TIP3    H150559   0.231   0.988   6.312  1.4629 -1.2139 -0.6137
 8788TIP3    H250560   0.362   1.037   6.367 -0.2254  2.0614  0.7523
 8789TIP3   OH250561   3.982   2.521   7.029  0.0079 -0.2218 -0.2183
 8789TIP3    H150562   4.003   2.520   6.936 -3.0599 -0.6925 -1.0347
 8789TIP3    H250563   3.939   2.606   7.043 -2.1026 -1.2750  0.0396
 8790TIP3   OH250564   1.666   3.237   6.413 -0.1066  0.0305  0.1066
 8790TIP3    H150565   1.659   3.146   6.386 -1.0814  0.4629 -1.1779
 8790TIP3    H250566   1.628   3.287   6.341 -0.4716  1.4016  1.2011
 8791TIP3   OH250567   1.570   2.727   5.914 -0.0258 -0.4631 -0.6748
 8791TIP3    H150568   1.630   2.760   5.847  0.4241 -0.8369 -0.4656
 8791TIP3    H250569   1.491   2.702   5.866  0.3827 -0.9611 -1.1030
 8792TIP3   OH250570   4.257   4.791   6.628  0.1239  0.2652  0.2009
 8792TIP3    H150571   4.283   4.737   6.703 -0.2196  0.2859  0.3390
 8792TIP3    H250572   4.248   4.729   6.556  0.8131  0.2953  0.0848
 8793TIP3   OH250573   6.070   6.011   8.027  0.0352 -0.2381  0.0968
 8793TIP3    H150574   6.152   6.060   8.032  0.5586 -1.1130  0.2420
 8793TIP3    H250575   6.032   6.038   7.943 -0.1487  1.0991  0.5797
 8794TIP3   OH250576   0.652   2.196   5.576  0.4881  0.0149  0.2628
 8794TIP3    H150577   0.636   2.281   5.535 -0.6677 -0.4204 -0.2292
 8794TIP3    H250578   0.569   2.149   5.566  0.7893 -0.8057  1.4183
 8795TIP3   OH250579   0.041   1.045   6.813 -0.1380  0.0598 -0.3019
 8795TIP3    H150580   0.108   0.982   6.787 -0.2614 -0.0696 -0.3034
 8795TIP3    H250581   0.063   1.125   6.764  0.7685  0.4255  0.6432
 8796TIP3   OH250582   2.609   1.040   6.038 -0.2611 -0.1396  0.0016
 8796TIP3    H150583   2.631   0.947   6.030  1.0650  0.2357 -0.8877
 8796TIP3    H250584   2.639   1.079   5.956 -0.3311  1.1732  0.5818
 8797TIP3   OH250585   2.430   0.115   8.515  0.2806  0.4380  0.1031
 8797TIP3    H150586   2.511   0.125   8.465  1.5601  0.1088  2.0184
 8797TIP3    H250587   2.436   0.181   8.585 -0.3957 -0.5721  1.1457
 8798TIP3   OH250588   5.982   0.707   6.864 -0.3744  0.3038 -0.8051
 8798TIP3    H150589   6.042   0.643   6.900  0.7202  0.3135 -2.5220
 8798TIP3    H250590   6.009   0.718   6.773 -1.1164  2.5017 -0.8296
 8799TIP3   OH250591   2.761   4.183   8.004 -0.4493  0.3599 -0.1100
 8799TIP3    H150592   2.830   4.209   8.066  0.2932  1.9361 -1.5343
 8799TIP3    H250593   2.704   4.260   7.999 -0.6574  0.1468 -1.1412
 8800TIP3   OH250594   5.805   6.534   6.745 -0.2467  0.0434 -0.0255
 8800TIP3    H150595   5.852   6.486   6.676 -1.1757 -2.5495  1.0221
 8800TIP3    H250596   5.714   6.535   6.717 -0.5608 -0.6229  0.9172
 8801TIP3   OH250597   4.364   1.119   6.634 -0.4409 -0.2471  0.2438
 8801TIP3    H150598   4.322   1.088   6.714  0.6476  0.2658  1.0374
 8801TIP3    H250599   4.333   1.209   6.624 -2.2349 -0.9592 -1.1065
 8802TIP3   OH250600   0.057   3.257   6.515  0.0728 -0.0185 -0.0705
 8802TIP3    H150601   0.050   3.236   6.608 -0.8054 -1.0089 -0.3287
 8802TIP3    H250602   0.037   3.174   6.471 -2.9642  1.1496 -1.1545
 8803TIP3   OH250603   2.719   6.428   7.554  0.1877 -0.0844 -0.0890
 8803TIP3    H150604   2.691   6.361   7.492 -0.6815  0.6222 -0.4693
 8803TIP3    H250605   2.699   6.511   7.511  1.4240  0.4332  0.2986
 8804TIP3   OH250606   0.609   2.653   6.577 -0.0996  0.4298 -0.0101
 8804TIP3    H150607   0.642   2.577   6.530 -1.3454  1.2479 -2.4110
 8804TIP3    H250608   0.659   2.655   6.659  1.1915 -1.9188 -0.6550
 8805TIP3   OH250609   4.582   6.006   6.357 -0.0612  0.3006 -0.4398
 8805TIP3    H150610   4.586   5.977   6.448  3.3435  0.5297 -0.3755
 8805TIP3    H250611   4.497   5.976   6.325 -0.6630 -1.2300  2.3351
 8806TIP3   OH250612   2.808   0.028   7.193  0.3543 -0.0828 -0.1517
 8806TIP3    H150613   2.887   0.082   7.184  1.0789 -1.2792 -1.3891
 8806TIP3    H250614   2.787   0.002   7.103  0.6657 -2.6779  0.4542
 8807TIP3   OH250615   4.168   3.634   8.822 -0.0460  0.1845  0.5709
 8807TIP3    H150616   4.097   3.583   8.863 -1.8216  2.6644  0.7861
 8807TIP3    H250617   4.210   3.572   8.762 -1.1130 -1.9318  1.8747
 8808TIP3   OH250618   4.505   3.919   8.710  0.4811 -0.1825 -0.4444
 8808TIP3    H150619   4.457   3.927   8.792 -1.0764 -1.9046 -1.1255
 8808TIP3    H250620   4.438   3.907   8.643  1.7771 -0.7674 -1.7020
 8809TIP3   OH250621   1.864   2.360   5.968 -0.2722  0.3131 -0.0925
 8809TIP3    H150622   1.778   2.329   5.941 -0.4279  0.3518  0.3600
 8809TIP3    H250623   1.907   2.283   6.006  0.7183 -0.2891 -2.2297
 8810TIP3   OH250624   4.590   5.782   6.103  0.1170  0.2988  0.1758
 8810TIP3    H150625   4.660   5.818   6.157  1.3046 -1.8507  0.1419
 8810TIP3    H250626   4.611   5.811   6.014  0.4885  0.3398  0.2765
 8811TIP3   OH250627   4.338   5.163   6.435  0.3796  0.5745 -0.1572
 8811TIP3    H150628   4.268   5.157   6.370  0.8248  0.5726 -0.6474
 8811TIP3    H250629   4.385   5.080   6.428  0.3979  0.5536  0.2030
 8812TIP3   OH250630   2.095   5.730   8.468  0.1231  0.4296 -0.0084
 8812TIP3    H150631   2.120   5.809   8.515  1.5763  0.0024 -0.0161
 8812TIP3    H250632   2.000   5.735   8.460  0.2290  2.3890 -0.3925
 8813TIP3   OH250633   4.325   6.399   6.751  0.8809  0.6169  0.0910
 8813TIP3    H150634   4.401   6.426   6.700  0.7420  1.6053  0.3878
 8813TIP3    H250635   4.361   6.373   6.836  0.8579  1.4089  0.3467
 8814TIP3   OH250636   2.109   4.403   6.933  0.0315 -0.5399 -0.0911
 8814TIP3    H150637   2.175   4.386   6.865  0.4521  0.9304 -0.0917
 8814TIP3    H250638   2.084   4.494   6.919 -0.5208 -0.4813  1.1905
 8815TIP3   OH250639   3.768   2.906   6.046 -0.7487 -0.3666 -0.1974
 8815TIP3    H150640   3.700   2.955   5.999 -0.8386  0.1426  0.4663
 8815TIP3    H250641   3.780   2.952   6.128 -1.6592 -2.0910  0.9723
 8816TIP3   OH250642   1.214   4.881   6.056 -0.1357 -0.0068 -0.3864
 8816TIP3    H150643   1.291   4.828   6.035 -0.0461  0.3846 -1.0851
 8816TIP3    H250644   1.177   4.840   6.134  1.2255  0.2463  0.4298
 8817TIP3   OH250645   6.482   5.962   8.051  0.1509  0.4639 -0.3791
 8817TIP3    H150646   6.529   5.979   8.133 -1.3933  0.0542  0.6228
 8817TIP3    H250647   6.433   6.043   8.035 -1.6461 -0.3844  0.5808
 8818TIP3   OH250648   0.630   5.098   8.250 -0.6075  0.0973  0.3482
 8818TIP3    H150649   0.620   5.063   8.338  1.3501 -2.4519 -0.3257
 8818TIP3    H250650   0.604   5.026   8.192  1.7230  0.3590 -1.1383
 8819TIP3   OH250651   4.438   4.681   8.895 -0.1157  0.6125 -0.2263
 8819TIP3    H150652   4.441   4.743   8.968 -1.1450 -0.2025  0.5487
 8819TIP3    H250653   4.478   4.727   8.821 -1.2692  2.3854  0.2011
 8820TIP3   OH250654   2.868   2.912   7.899  0.6211  0.5634  0.0434
 8820TIP3    H150655   2.892   2.819   7.906 -0.1821  0.3023 -0.3949
 8820TIP3    H250656   2.926   2.957   7.959  1.3381 -0.1749 -0.0787
 8821TIP3   OH250657   4.990   0.031   7.115 -0.1574 -0.2231 -0.9857
 8821TIP3    H150658   4.921   0.096   7.128  0.6229  0.7781 -1.7332
 8821TIP3    H250659   5.045   0.038   7.193 -0.6545 -0.7306 -0.5827
 8822TIP3   OH250660   2.149   0.664   5.987  0.0010  0.1995  0.0602
 8822TIP3    H150661   2.061   0.689   6.014 -0.0633  0.3108 -0.2434
 8822TIP3    H250662   2.153   0.570   6.001  0.2403  0.3656  1.2035
 8823TIP3   OH250663   0.547   5.858   8.650 -0.6267  0.0139 -0.2035
 8823TIP3    H150664   0.579   5.836   8.738  0.6995 -0.0133 -0.6691
 8823TIP3    H250665   0.515   5.947   8.659 -1.0666 -0.2029  0.4526
 8824TIP3   OH250666   3.954   6.108   8.154  0.0246  0.4531  0.5448
 8824TIP3    H150667   4.049   6.109   8.167  0.3693  1.6337 -1.5813
 8824TIP3    H250668   3.943   6.092   8.061 -1.8801  0.5286  0.7182
 8825TIP3   OH250669   0.183   4.694   7.483 -0.1926 -0.0118  0.2144
 8825TIP3    H150670   0.240   4.767   7.510 -0.9122  1.1559 -1.3240
 8825TIP3    H250671   0.095   4.723   7.506 -0.3629 -1.1101  1.0451
 8826TIP3   OH250672   5.089   0.851   6.491  0.0435 -0.3704 -0.0174
 8826TIP3    H150673   4.994   0.861   6.482  0.2291  0.1801 -1.6665
 8826TIP3    H250674   5.100   0.767   6.537 -1.2593  0.9316  2.9544
 8827TIP3   OH250675   5.240   6.109   8.163  0.4598  0.1494 -0.7269
 8827TIP3    H150676   5.270   6.105   8.073  3.2027  2.2376 -0.0587
 8827TIP3    H250677   5.304   6.057   8.212  0.1142  0.6073  0.2439
 8828TIP3   OH250678   5.485   4.566   8.106  0.6304 -0.2364  0.1896
 8828TIP3    H150679   5.543   4.629   8.063  0.3807  0.4892  0.8972
 8828TIP3    H250680   5.427   4.535   8.036  0.1232  1.0384  0.0238
 8829TIP3   OH250681   1.337   6.329   8.140  0.0512 -0.3718  0.2783
 8829TIP3    H150682   1.409   6.336   8.078  1.8276 -2.6473  1.8792
 8829TIP3    H250683   1.378   6.338   8.226 -1.9654  0.5085  1.2101
 8830TIP3   OH250684   2.157   3.976   5.951 -0.1225 -0.1962 -0.1636
 8830TIP3    H150685   2.188   3.889   5.976 -0.3337 -0.6224 -1.3042
 8830TIP3    H250686   2.108   3.961   5.869 -1.4222  0.7835  0.4032
 8831TIP3   OH250687   5.529   4.441   7.239  0.3124  0.4495  0.4859
 8831TIP3    H150688   5.614   4.454   7.282  1.3716  0.7746 -1.5869
 8831TIP3    H250689   5.497   4.529   7.222  0.5107  0.3521 -0.4598
 8832TIP3   OH250690   0.807   3.135   7.759  0.0012 -0.0627 -0.3173
 8832TIP3    H150691   0.806   3.193   7.835  2.3273  0.2826 -0.4620
 8832TIP3    H250692   0.759   3.057   7.788 -2.1616  1.3967  0.2723
 8833TIP3   OH250693   2.562   5.577   7.752  0.1868 -0.1436  0.4266
 8833TIP3    H150694   2.469   5.561   7.736  0.4040 -0.7670 -0.2727
 8833TIP3    H250695   2.565   5.661   7.798 -0.7310 -0.2124  0.6188
 8834TIP3   OH250696   6.610   1.849   6.408  0.1650  0.2344 -0.1218
 8834TIP3    H150697   6.556   1.878   6.334  0.2664  0.3995 -0.1319
 8834TIP3    H250698   6.698   1.843   6.372  0.3850  1.2055  0.2012
 8835TIP3   OH250699   5.985   5.304   6.690 -0.8946  0.2956 -0.8644
 8835TIP3    H150700   6.043   5.343   6.756 -1.7513  0.6201 -0.2823
 8835TIP3    H250701   6.044   5.266   6.625 -0.0369  0.8015 -0.3926
 8836TIP3   OH250702   4.825   3.093   6.651 -0.2505  0.4052  0.2157
 8836TIP3    H150703   4.752   3.114   6.593  0.4526  0.6278 -0.5977
 8836TIP3    H250704   4.783   3.067   6.733 -1.2390  0.6885 -0.1858
 8837TIP3   OH250705   3.529   4.850   9.671 -0.2679  0.1775  0.5609
 8837TIP3    H150706   3.620   4.837   9.645 -0.3906  0.0234  0.2091
 8837TIP3    H250707   3.518   4.945   9.672 -0.0107  0.2094  0.9363
 8838TIP3   OH250708   4.382   3.246   7.873  0.1353  0.2854  0.8218
 8838TIP3    H150709   4.324   3.172   7.894 -2.6149  1.3615 -2.2686
 8838TIP3    H250710   4.455   3.206   7.825 -1.1117 -0.5459 -0.4619
 8839TIP3   OH250711   1.926   3.312   8.224  0.2654 -0.3489 -0.0315
 8839TIP3    H150712   1.918   3.346   8.313 -2.6332 -1.5302  0.2828
 8839TIP3    H250713   1.956   3.386   8.172  0.4298  0.8129  1.6569
 8840TIP3   OH250714   5.398   5.877   8.624 -0.3427 -0.2112  0.5289
 8840TIP3    H150715   5.381   5.842   8.711 -0.5726 -0.7945  0.2560
 8840TIP3    H250716   5.389   5.801   8.566 -1.1389  0.3606 -0.1027
 8841TIP3   OH250717   0.672   3.135   6.932  0.0304 -0.0753  0.0877
 8841TIP3    H150718   0.695   3.042   6.932  1.2696  0.2121  0.8890
 8841TIP3    H250719   0.577   3.136   6.944  0.0525 -1.2382  0.4760
 8842TIP3   OH250720   2.584   3.350   6.591 -0.6731  0.1329 -0.0239
 8842TIP3    H150721   2.506   3.353   6.536 -0.6377  0.8815 -0.0429
 8842TIP3    H250722   2.558   3.294   6.665 -0.2044 -2.2014 -1.5359
 8843TIP3   OH250723   0.811   4.378   6.744  0.3987 -0.1700 -0.7189
 8843TIP3    H150724   0.826   4.410   6.655  0.6235  0.4642 -0.4574
 8843TIP3    H250725   0.778   4.455   6.791  1.3658 -0.1986  0.0348
 8844TIP3   OH250726   2.239   0.565   7.852 -0.6578  0.1615  0.4292
 8844TIP3    H150727   2.295   0.640   7.871  0.2233 -0.5274  0.6474
 8844TIP3    H250728   2.193   0.588   7.772  0.6497  0.3785 -0.2808
 8845TIP3   OH250729   2.807   6.434   7.820 -0.9226 -0.0998  0.0943
 8845TIP3    H150730   2.815   6.446   7.725  1.8738 -4.0900 -0.3940
 8845TIP3    H250731   2.884   6.477   7.856 -1.7759  1.0598  0.6042
 8846TIP3   OH250732   5.426   3.637   8.173  0.1140 -0.1203  0.2642
 8846TIP3    H150733   5.421   3.613   8.266 -0.1245 -1.4190 -0.0758
 8846TIP3    H250734   5.510   3.684   8.166  1.0441 -1.6182  0.7967
 8847TIP3   OH250735   4.471   2.051   7.485 -0.1771  0.1749 -0.5476
 8847TIP3    H150736   4.406   2.024   7.549 -0.1384  0.9018 -0.1936
 8847TIP3    H250737   4.451   2.143   7.466 -0.9338 -0.3453 -2.4889
 8848TIP3   OH250738   2.374   0.945   8.225 -0.0114  0.0141 -0.3962
 8848TIP3    H150739   2.397   1.036   8.246 -1.0325  0.3377 -0.6067
 8848TIP3    H250740   2.285   0.934   8.259  0.6199 -1.3795  0.9435
 8849TIP3   OH250741   5.695   0.258   7.481 -0.1550 -0.1292  0.2259
 8849TIP3    H150742   5.640   0.189   7.444  0.1648 -0.8676  1.0746
 8849TIP3    H250743   5.746   0.291   7.407 -0.1641 -0.9507 -0.1562
 8850TIP3   OH250744   3.446   5.855   6.291 -0.0372  0.1239 -0.0713
 8850TIP3    H150745   3.444   5.901   6.207  1.1638  1.3015  0.5019
 8850TIP3    H250746   3.375   5.894   6.341 -0.5579 -0.3643 -0.4116
 8851TIP3   OH250747   4.686   2.581   7.857  0.2060 -0.3386 -0.6248
 8851TIP3    H150748   4.594   2.572   7.832  0.0497 -0.9286  0.1492
 8851TIP3    H250749   4.734   2.554   7.778 -0.2884 -1.7607 -0.4681
 8852TIP3   OH250750   0.411   3.076   6.722  0.0466 -0.2107 -0.3755
 8852TIP3    H150751   0.409   3.053   6.815  3.0389 -0.4785 -0.2812
 8852TIP3    H250752   0.381   2.998   6.677 -2.0047  0.1146  0.3157
 8853TIP3   OH250753   0.398   2.636   8.225  0.1091 -0.2260 -0.0294
 8853TIP3    H150754   0.454   2.601   8.294  1.0797  0.3087 -0.5169
 8853TIP3    H250755   0.361   2.716   8.261 -0.9852 -0.9663  0.5707
 8854TIP3   OH250756   0.267   6.217   7.251  0.5330  0.3428  0.4094
 8854TIP3    H150757   0.192   6.196   7.195 -1.4769  1.7827  2.3294
 8854TIP3    H250758   0.278   6.312   7.241  0.6480  0.4974  1.7666
 8855TIP3   OH250759   2.191   2.334   8.280 -0.2276  0.0393 -0.6630
 8855TIP3    H150760   2.187   2.429   8.270 -1.3966 -0.0318 -0.9749
 8855TIP3    H250761   2.182   2.319   8.374 -0.0684  0.2259 -0.6167
 8856TIP3   OH250762   2.215   6.602   7.625 -0.2360 -0.1087  0.6374
 8856TIP3    H150763   2.223   6.506   7.630 -2.1270 -0.4718 -1.7741
 8856TIP3    H250764   2.196   6.628   7.715 -2.9359 -2.4091  0.8805
 8857TIP3   OH250765   5.830   6.438   6.340 -0.0225  0.4035 -0.3433
 8857TIP3    H150766   5.827   6.441   6.244 -2.3463 -0.5264 -0.3697
 8857TIP3    H250767   5.818   6.529   6.367 -1.5463  0.4311 -0.9850
 8858TIP3   OH250768   2.505   5.240   7.426 -0.4695  0.5596 -0.3534
 8858TIP3    H150769   2.449   5.181   7.375  0.3169 -0.8687  0.3597
 8858TIP3    H250770   2.475   5.328   7.403 -0.4421 -0.0303 -2.8966
 8859TIP3   OH250771   0.999   3.282   6.485  0.3590 -0.4987  0.1923
 8859TIP3    H150772   0.998   3.198   6.530 -0.1806  0.0462  1.2371
 8859TIP3    H250773   1.049   3.340   6.542  1.0839 -0.1956 -0.7180
 8860TIP3   OH250774   0.977   6.473   7.673  0.6417  0.5704  0.2056
 8860TIP3    H150775   0.914   6.542   7.696  0.3690  0.6783 -0.7848
 8860TIP3    H250776   0.930   6.391   7.688  0.2639  0.6498 -0.4724
 8861TIP3   OH250777   5.407   6.257   5.808  0.4699 -0.5348 -0.2433
 8861TIP3    H150778   5.495   6.284   5.835 -0.1509  1.2032  0.1432
 8861TIP3    H250779   5.373   6.332   5.759 -1.3036 -0.6297  0.7810
 8862TIP3   OH250780   2.224   0.681   6.290  0.2118 -0.0764  0.2176
 8862TIP3    H150781   2.305   0.643   6.258  1.5871  1.6677  1.3971
 8862TIP3    H250782   2.209   0.757   6.233  0.6566  0.8878  1.3400
 8863TIP3   OH250783   6.368   5.353   5.957  0.2088  0.3271  0.2539
 8863TIP3    H150784   6.385   5.269   5.914 -0.7629 -0.0511  0.5864
 8863TIP3    H250785   6.274   5.352   5.976 -0.3672  2.4685 -1.8639
 8864TIP3   OH250786   6.023   3.585   7.452  0.6263 -0.8639  0.3125
 8864TIP3    H150787   5.937   3.548   7.432 -0.0358  0.0337  1.4017
 8864TIP3    H250788   6.069   3.584   7.368 -1.7778  2.0819 -1.2758
 8865TIP3   OH250789   6.271   2.421   6.775 -0.0927  0.4600 -0.7104
 8865TIP3    H150790   6.186   2.385   6.797  0.5375 -1.5745 -1.4018
 8865TIP3    H250791   6.263   2.447   6.683 -0.3438  1.5464 -0.3994
 8866TIP3   OH250792   1.835   1.215   8.410 -0.4377  0.0900 -0.1215
 8866TIP3    H150793   1.883   1.294   8.383 -0.1644  0.3653  1.1045
 8866TIP3    H250794   1.792   1.185   8.330 -0.2573  1.2775 -0.6907
 8867TIP3   OH250795   2.078   2.902   6.807  0.0025  0.0514 -0.2653
 8867TIP3    H150796   1.996   2.900   6.757  1.1453 -0.5907 -2.2184
 8867TIP3    H250797   2.111   2.991   6.795  0.4977 -0.2294 -1.0885
 8868TIP3   OH250798   4.762   4.217   6.957 -0.1249  0.0884 -0.3110
 8868TIP3    H150799   4.691   4.175   6.909  0.6895 -1.6889 -0.0286
 8868TIP3    H250800   4.825   4.242   6.889  0.7062 -1.7970 -0.2935
 8869TIP3   OH250801   6.072   3.180   8.420  0.5225  0.1248  0.1798
 8869TIP3    H150802   6.150   3.213   8.465  1.5436  1.2538 -2.2347
 8869TIP3    H250803   6.015   3.149   8.490  3.1211 -0.7811  2.0618
 8870TIP3   OH250804   3.503   4.559   7.714 -0.2241 -0.1967 -0.1631
 8870TIP3    H150805   3.559   4.624   7.670 -1.8003  1.3473 -0.0213
 8870TIP3    H250806   3.511   4.580   7.807 -1.5609  0.5614 -0.1861
 8871TIP3   OH250807   6.323   6.017   7.531  0.1955 -0.1090 -0.3337
 8871TIP3    H150808   6.230   6.004   7.512 -0.3881  0.8743  1.6089
 8871TIP3    H250809   6.368   5.975   7.458 -1.7301 -1.8794 -0.6019
 8872TIP3   OH250810   4.091   3.631   7.500 -0.2546 -0.0820  0.3157
 8872TIP3    H150811   4.004   3.649   7.464 -0.7919 -1.6278  0.7354
 8872TIP3    H250812   4.074   3.600   7.589  0.5215 -2.2275 -0.2247
 8873TIP3   OH250813   6.611   1.598   6.517  0.0439 -0.2157 -0.3808
 8873TIP3    H150814   6.600   1.677   6.464 -1.6271 -0.1437  0.0390
 8873TIP3    H250815   6.606   1.629   6.607  3.5375 -0.2372 -0.0472
 8874TIP3   OH250816   5.312   2.447   6.471  0.0162 -0.5555 -0.6130
 8874TIP3    H150817   5.308   2.366   6.523  0.1082 -0.1226  0.0895
 8874TIP3    H250818   5.243   2.503   6.509  1.0820  0.3453  0.0545
 8875TIP3   OH250819   1.068   6.136   7.257  0.0475 -0.1762 -0.9824
 8875TIP3    H150820   1.050   6.057   7.309 -0.6932 -2.0596 -3.8352
 8875TIP3    H250821   0.990   6.190   7.268 -0.0642 -0.5041 -0.1075
 8876TIP3   OH250822   3.022   2.404   7.401 -0.1534 -0.5208 -0.0076
 8876TIP3    H150823   3.028   2.498   7.416  0.3861 -0.2794 -1.5277
 8876TIP3    H250824   3.109   2.379   7.370  0.0667 -1.7672  1.4691
 8877TIP3   OH250825   5.721   3.136   7.917  0.4366  0.4276 -0.2235
 8877TIP3    H150826   5.639   3.097   7.948  1.9374 -1.6730  1.4138
 8877TIP3    H250827   5.754   3.185   7.992  0.8635  0.9782 -0.7595
 8878TIP3   OH250828   3.268   2.050   9.234  0.1789  0.3149  0.1633
 8878TIP3    H150829   3.264   2.103   9.314 -0.6221 -0.2343  0.5109
 8878TIP3    H250830   3.233   2.106   9.166 -1.6717 -0.0791  0.7272
 8879TIP3   OH250831   1.207   5.768   7.281 -0.0151  0.1210  0.4864
 8879TIP3    H150832   1.202   5.672   7.285 -0.2347 -0.0378 -2.0611
 8879TIP3    H250833   1.132   5.797   7.333 -1.1193 -1.1780 -0.2945
 8880TIP3   OH250834   0.364   2.780   7.265 -0.0083  0.2768  0.4276
 8880TIP3    H150835   0.320   2.798   7.182  0.5900 -0.3747 -0.0336
 8880TIP3    H250836   0.315   2.833   7.329 -1.2592 -0.1648 -0.1250
 8881TIP3   OH250837   1.663   3.122   6.084  0.3464 -0.6033 -0.3714
 8881TIP3    H150838   1.600   3.058   6.050 -0.7989  0.3198 -0.0346
 8881TIP3    H250839   1.744   3.102   6.037 -0.5743 -0.8596 -1.9228
 8882TIP3   OH250840   3.790   5.224   5.727 -0.0734  0.0183  0.1789
 8882TIP3    H150841   3.700   5.190   5.734 -0.0891  0.2902  1.5390
 8882TIP3    H250842   3.842   5.167   5.784  0.7878 -0.5866 -1.1501
 8883TIP3   OH250843   5.620   1.802   7.876  0.1042 -0.2234 -0.4868
 8883TIP3    H150844   5.579   1.760   7.800 -0.9242  0.4372 -0.3074
 8883TIP3    H250845   5.696   1.848   7.840 -0.3309  0.0224 -1.1047
 8884TIP3   OH250846   2.631   2.238   8.805 -0.0899  0.1852  0.0874
 8884TIP3    H150847   2.563   2.242   8.737 -1.3489 -0.8791  1.2133
 8884TIP3    H250848   2.660   2.147   8.804 -0.1195  0.1577  0.9484
 8885TIP3   OH250849   4.801   3.302   7.629 -0.5450 -0.3624  0.2231
 8885TIP3    H150850   4.765   3.359   7.561  1.7319 -0.5264 -1.2187
 8885TIP3    H250851   4.822   3.361   7.702 -2.6731 -0.1334  0.7249
 8886TIP3   OH250852   3.113   1.246   7.601  0.1833 -0.0344 -0.4495
 8886TIP3    H150853   3.051   1.205   7.662  0.8955 -0.4672 -0.0042
 8886TIP3    H250854   3.148   1.174   7.550  2.1679 -0.1696  0.9886
 8887TIP3   OH250855   4.637   4.975   6.540 -0.2742 -0.5166 -0.0157
 8887TIP3    H150856   4.571   4.924   6.493  1.7179 -2.8611 -0.4773
 8887TIP3    H250857   4.670   5.037   6.475 -0.5220 -0.8344 -0.4497
 8888TIP3   OH250858   2.655   0.199   6.315 -0.5157  0.1527 -0.2513
 8888TIP3    H150859   2.626   0.261   6.383  2.3687  0.0412  1.2256
 8888TIP3    H250860   2.608   0.227   6.236  0.2194  3.9272  0.4358
 8889TIP3   OH250861   0.139   0.538   6.841 -0.2793  0.1319 -0.3865
 8889TIP3    H150862   0.052   0.577   6.843 -1.3197 -1.7473 -2.8621
 8889TIP3    H250863   0.123   0.443   6.838  1.8228 -0.2636 -1.2166
 8890TIP3   OH250864   3.535   3.577   5.615 -0.1749  0.3172 -0.5748
 8890TIP3    H150865   3.466   3.511   5.621  1.1430 -1.0055  3.4877
 8890TIP3    H250866   3.615   3.526   5.598  0.5774  1.0851  0.5331
 8891TIP3   OH250867   2.782   1.350   8.224 -0.2919 -0.0484  0.0538
 8891TIP3    H150868   2.746   1.360   8.312  0.2661 -0.4962  0.3493
 8891TIP3    H250869   2.730   1.280   8.184 -0.4040  0.0052  0.1058
 8892TIP3   OH250870   0.727   4.409   8.249 -0.3721  0.0526  0.4616
 8892TIP3    H150871   0.691   4.330   8.210 -0.4930 -0.1895  1.0547
 8892TIP3    H250872   0.654   4.472   8.247 -0.3514  0.0663  0.2145
 8893TIP3   OH250873   2.202   0.535   6.964 -0.3341 -0.7137  0.6925
 8893TIP3    H150874   2.291   0.499   6.956 -0.2502 -0.2468 -0.7441
 8893TIP3    H250875   2.173   0.545   6.874 -1.8862 -0.9048  1.1537
 8894TIP3   OH250876   2.228   3.730   7.412  0.2792  0.5677  0.3902
 8894TIP3    H150877   2.323   3.738   7.408  0.3439 -0.4016 -0.1320
 8894TIP3    H250878   2.198   3.751   7.324  0.3121 -2.5883 -0.4975
 8895TIP3   OH250879   4.334   4.586   7.388 -1.0556 -0.3115 -0.6551
 8895TIP3    H150880   4.261   4.524   7.385  0.1508 -1.7615 -1.4436
 8895TIP3    H250881   4.405   4.538   7.432 -0.6524  1.1844  0.4171
 8896TIP3   OH250882   1.760   6.173   9.003  0.4147 -0.6007  0.1401
 8896TIP3    H150883   1.719   6.197   8.920 -0.3927 -0.4024  0.5806
 8896TIP3    H250884   1.852   6.160   8.982  0.5989  1.3485 -0.4250
 8897TIP3   OH250885   4.631   5.431   8.902  0.1283 -0.2688  0.0994
 8897TIP3    H150886   4.641   5.526   8.894  1.0223 -0.1937  1.7085
 8897TIP3    H250887   4.716   5.400   8.934 -0.2564 -1.5745 -0.0793
 8898TIP3   OH250888   1.445   3.827   8.062  0.5678 -0.1620  0.2667
 8898TIP3    H150889   1.367   3.773   8.067  0.5120 -0.1405 -0.3563
 8898TIP3    H250890   1.424   3.905   8.115  1.6592 -1.9229  3.5895
 8899TIP3   OH250891   5.964   0.393   6.844 -0.1067 -0.0713  0.1918
 8899TIP3    H150892   5.948   0.300   6.825  2.4899 -0.3326 -1.1595
 8899TIP3    H250893   5.879   0.426   6.872 -1.6234 -2.3640 -1.2911
 8900TIP3   OH250894   5.322   6.755   6.180 -0.7288  0.0027  0.2530
 8900TIP3    H150895   5.295   6.829   6.127 -1.3727  2.8547  4.1235
 8900TIP3    H250896   5.244   6.699   6.187 -1.1345  0.4868 -0.3904
 8901TIP3   OH250897   0.877   6.735   8.690 -0.0753  0.2785  0.5290
 8901TIP3    H150898   0.800   6.793   8.691 -0.3700 -0.0595 -0.8780
 8901TIP3    H250899   0.865   6.680   8.613  2.9313  2.0743 -1.4175
 8902TIP3   OH250900   5.912   2.610   8.946 -0.5051 -0.7185  0.0280
 8902TIP3    H150901   5.837   2.590   8.890  0.8219 -2.0966 -1.3522
 8902TIP3    H250902   5.909   2.543   9.015 -1.3508  0.1418  0.8632
 8903TIP3   OH250903   0.470   4.458   8.792  0.2801  0.2061  0.5475
 8903TIP3    H150904   0.456   4.425   8.880  0.1766  2.5418  1.4986
 8903TIP3    H250905   0.384   4.451   8.749  0.0630  0.0535  1.0055
 8904TIP3   OH250906   0.715   4.894   7.105  0.6069  0.1337 -0.2365
 8904TIP3    H150907   0.692   4.853   7.188 -0.6405 -0.3938 -0.8240
 8904TIP3    H250908   0.769   4.829   7.060  1.2461  0.4025  0.1223
 8905TIP3   OH250909   1.925   0.920   7.455  0.8374  0.1520 -0.6355
 8905TIP3    H150910   1.887   0.841   7.494 -0.4566  0.2937 -1.5282
 8905TIP3    H250911   2.018   0.914   7.473  0.2823  0.6984  3.3333
 8906TIP3   OH250912   5.424   1.062   8.959  0.5078  0.0826 -0.1578
 8906TIP3    H150913   5.476   1.100   8.889 -0.0484  0.4930 -0.3578
 8906TIP3    H250914   5.343   1.034   8.916 -0.1801  1.0701  0.4586
 8907TIP3   OH250915   0.020   2.889   6.794  0.1379 -0.3887 -0.1677
 8907TIP3    H150916   0.006   2.882   6.699 -0.1165 -2.0224 -0.0371
 8907TIP3    H250917  -0.068   2.899   6.830  0.0534 -1.6264  0.0095
 8908TIP3   OH250918   0.080   0.934   6.177  0.0366  0.3816  0.0545
 8908TIP3    H150919   0.040   0.974   6.254 -0.9991  0.3255 -0.4263
 8908TIP3    H250920   0.023   0.959   6.105  1.0498  0.5175 -0.7179
 8909TIP3   OH250921   2.706   4.984   5.996 -0.4928  0.0500 -0.0433
 8909TIP3    H150922   2.754   4.948   6.071  0.5875  0.6199 -0.4435
 8909TIP3    H250923   2.662   4.909   5.958 -0.2678 -0.4164  0.5934
 8910TIP3   OH250924   4.590   4.249   5.703  0.1728 -0.1791  0.0778
 8910TIP3    H150925   4.638   4.306   5.762  1.6190 -1.2549 -0.0160
 8910TIP3    H250926   4.498   4.260   5.729  0.6104  0.6339  1.3881
 8911TIP3   OH250927   4.610   0.640   7.129 -0.2178  0.2798 -0.4500
 8911TIP3    H150928   4.703   0.661   7.118 -0.0810 -0.0419  0.0503
 8911TIP3    H250929   4.610   0.556   7.174 -0.7548  0.2382 -0.5221
 8912TIP3   OH250930   0.643   5.759   5.983  0.6484 -0.5930 -0.0738
 8912TIP3    H150931   0.684   5.761   6.070  0.7764 -0.8681 -0.1288
 8912TIP3    H250932   0.715   5.767   5.922  0.6586 -1.4863 -0.1786
 8913TIP3   OH250933   3.044   2.819   6.937 -0.5166 -0.3398  0.0099
 8913TIP3    H150934   3.116   2.788   6.991 -0.9618 -1.1784  0.1430
 8913TIP3    H250935   2.966   2.809   6.992 -0.7456  0.5517 -0.1273
 8914TIP3   OH250936   3.910   5.831   6.260 -0.0070 -0.3411 -0.2011
 8914TIP3    H150937   3.938   5.899   6.198 -0.0309  0.4060  0.5965
 8914TIP3    H250938   3.937   5.749   6.218  0.7144  0.1920 -0.8211
 8915TIP3   OH250939   5.360   3.314   7.975  0.1018  0.1939 -0.1010
 8915TIP3    H150940   5.268   3.325   7.953  0.0701 -1.6680 -1.0999
 8915TIP3    H250941   5.358   3.279   8.065 -0.4221 -2.7605 -1.1343
 8916TIP3   OH250942   1.904   4.226   7.399 -0.3292  0.0318  0.3492
 8916TIP3    H150943   1.940   4.313   7.419 -0.3049  0.3475 -1.0064
 8916TIP3    H250944   1.937   4.206   7.312 -0.3808 -1.3311  0.6260
 8917TIP3   OH250945   0.540   1.628   5.453 -0.2752  0.3487 -0.0943
 8917TIP3    H150946   0.531   1.678   5.372 -0.0725  0.2010 -0.2048
 8917TIP3    H250947   0.613   1.669   5.499  1.1643 -1.0544 -1.0524
 8918TIP3   OH250948   1.222   0.001   8.815  0.1371 -0.1967  0.5056
 8918TIP3    H150949   1.263  -0.075   8.857 -0.5539  0.4712  2.5100
 8918TIP3    H250950   1.234   0.073   8.878 -1.6935  0.6631 -0.0424
 8919TIP3   OH250951   3.027   4.259   5.991 -0.0705 -0.4179 -0.6721
 8919TIP3    H150952   2.969   4.304   6.053 -0.6540 -2.2239  0.1474
 8919TIP3    H250953   2.971   4.198   5.944  0.7715 -0.5972 -1.4769
 8920TIP3   OH250954   4.390   5.495   7.207 -0.6014 -0.1186 -0.5501
 8920TIP3    H150955   4.304   5.456   7.192 -0.5610  0.5041 -2.8461
 8920TIP3    H250956   4.422   5.516   7.119  1.3091  0.9429  0.3364
 8921TIP3   OH250957   5.958   3.313   6.394  0.2409  1.1334  0.3326
 8921TIP3    H150958   5.953   3.280   6.304  1.1406  3.1696 -0.5377
 8921TIP3    H250959   5.885   3.374   6.401 -0.5759  0.0635  1.4396
 8922TIP3   OH250960   0.766   2.841   7.609  0.0709 -0.0074 -0.3364
 8922TIP3    H150961   0.736   2.788   7.535  1.1566 -0.0669 -0.7515
 8922TIP3    H250962   0.804   2.919   7.569 -1.3080  1.0116  0.2603
 8923TIP3   OH250963   0.539   5.490   6.465  0.0635 -0.3994  0.1684
 8923TIP3    H150964   0.457   5.447   6.490  0.3824 -0.3356  1.3595
 8923TIP3    H250965   0.557   5.456   6.377 -1.7134  0.2913 -0.5068
 8924TIP3   OH250966   0.627   4.388   8.543 -0.3779  0.4729 -0.4635
 8924TIP3    H150967   0.641   4.302   8.505  1.0458  0.6076 -0.3099
 8924TIP3    H250968   0.649   4.378   8.635  0.5803  1.1600 -0.5979
 8925TIP3   OH250969   3.903   2.579   8.295 -0.8815 -0.0766  0.8031
 8925TIP3    H150970   3.917   2.569   8.389  1.3928 -1.3756  0.3965
 8925TIP3    H250971   3.963   2.648   8.269 -0.3872 -0.7577  0.0919
 8926TIP3   OH250972   3.056   0.832   7.623  0.0183  0.2380  0.0647
 8926TIP3    H150973   3.084   0.765   7.561 -0.0191  1.3208 -1.1694
 8926TIP3    H250974   3.010   0.897   7.569 -2.4198 -0.1025  1.6119
 8927TIP3   OH250975   1.014   1.077   6.629 -0.8246 -0.6117  0.5804
 8927TIP3    H150976   1.070   1.006   6.657 -0.3492 -0.2704  0.5121
 8927TIP3    H250977   0.929   1.036   6.612 -0.2901 -1.3482 -0.4415
 8928TIP3   OH250978   3.996   6.462   8.067  0.2058  0.0377 -0.1411
 8928TIP3    H150979   4.038   6.521   8.004  1.5102 -3.1867 -2.5829
 8928TIP3    H250980   4.059   6.456   8.139  2.9733 -2.5731 -2.4905
 8929TIP3   OH250981   5.644   6.390   5.870 -0.4001  0.3858  0.0267
 8929TIP3    H150982   5.655   6.453   5.799  0.2678 -0.1333 -0.3512
 8929TIP3    H250983   5.733   6.374   5.902 -0.4280 -1.0600 -0.5251
 8930TIP3   OH250984   4.448   5.385   8.635  0.2326 -0.2951  0.1846
 8930TIP3    H150985   4.391   5.312   8.608 -0.0387 -0.1261  0.2882
 8930TIP3    H250986   4.530   5.343   8.660  0.8982 -0.3542 -1.9761
 8931TIP3   OH250987   5.438   1.733   7.442 -0.3416 -0.0184 -0.0950
 8931TIP3    H150988   5.359   1.683   7.464  0.1115 -1.2793 -1.2138
 8931TIP3    H250989   5.501   1.710   7.509 -1.3187  2.1852  1.7325
 8932TIP3   OH250990   0.967   0.742   5.796  0.4660  0.1084  0.3184
 8932TIP3    H150991   0.954   0.793   5.876  0.9009  2.1002 -0.8033
 8932TIP3    H250992   0.881   0.738   5.755  0.1444 -1.3196  1.0657
 8933TIP3   OH250993   0.440   0.237   8.179  0.4507 -0.0530 -0.5849
 8933TIP3    H150994   0.517   0.290   8.198  0.1372  0.4934 -0.8344
 8933TIP3    H250995   0.472   0.147   8.182  1.0282  0.1559 -0.3669
 8934TIP3   OH250996   3.104   4.644   6.131 -0.0603 -0.0136 -0.1586
 8934TIP3    H150997   3.122   4.567   6.186  1.5938 -1.0525 -2.0189
 8934TIP3    H250998   3.036   4.616   6.071  0.4716  0.0004 -0.7752
 8935TIP3   OH250999   3.723   5.502   5.624  0.3534  0.3199  0.4659
 8935TIP3    H151000   3.758   5.416   5.644 -0.4053  0.1073  0.9333
 8935TIP3    H251001   3.632   5.499   5.655 -0.0523  0.8801 -0.6180
 8936TIP3   OH251002   5.810   6.066   8.539  0.0614  0.0613  0.4743
 8936TIP3    H151003   5.816   6.123   8.616 -0.9467 -0.0256  0.6296
 8936TIP3    H251004   5.834   6.123   8.465  1.6088 -0.0086  0.8928
 8937TIP3   OH251005   3.233   0.399   6.780 -0.2523  0.0180  0.1757
 8937TIP3    H151006   3.220   0.480   6.731 -1.5880  0.1888  0.7425
 8937TIP3    H251007   3.326   0.399   6.803 -0.1135  1.1045 -0.3147
 8938TIP3   OH251008   0.936   4.891   9.129  0.2067 -0.1539 -0.8077
 8938TIP3    H151009   0.907   4.959   9.190 -1.2032  0.0209 -1.6426
 8938TIP3    H251010   0.980   4.939   9.059  1.6069 -0.3384 -0.1029
 8939TIP3   OH251011   3.073   5.877   8.515  0.0639 -0.2645 -0.2633
 8939TIP3    H151012   3.035   5.955   8.473 -0.3820 -0.3735 -0.0755
 8939TIP3    H251013   3.082   5.902   8.607  1.4506  0.1300 -0.4827
 8940TIP3   OH251014   2.158   4.188   7.799  0.1719  0.3731  0.4106
 8940TIP3    H151015   2.162   4.257   7.733  0.3312  0.2662  0.3088
 8940TIP3    H251016   2.109   4.117   7.757 -0.2252  0.5281  0.6101
 8941TIP3   OH251017   4.166   1.753   6.320 -0.5132 -0.0422  0.5669
 8941TIP3    H151018   4.169   1.712   6.234 -0.6977 -0.2587  0.6593
 8941TIP3    H251019   4.241   1.716   6.367 -1.0380 -0.7643  0.8582
 8942TIP3   OH251020   3.203   3.843   8.846  0.1678  0.1511  0.4847
 8942TIP3    H151021   3.186   3.937   8.845 -1.2070 -0.0856 -0.8754
 8942TIP3    H251022   3.146   3.808   8.914  1.4514  0.4039  1.7300
 8943TIP3   OH251023   6.021   1.788   7.975  0.1189  0.4293  0.0149
 8943TIP3    H151024   6.053   1.722   8.036  2.5306  1.8311  0.4061
 8943TIP3    H251025   5.981   1.738   7.904  1.3194 -1.4222  0.5678
 8944TIP3   OH251026   2.361   6.493   6.020  0.3121 -0.0255 -0.2455
 8944TIP3    H151027   2.384   6.406   5.986  0.3741 -0.4429  0.8182
 8944TIP3    H251028   2.443   6.542   6.015  0.3516 -0.1244 -0.5833
 8945TIP3   OH251029   4.550   2.605   9.185  0.0517 -0.4682 -0.4684
 8945TIP3    H151030   4.498   2.602   9.104  0.9405  1.9845 -1.2472
 8945TIP3    H251031   4.509   2.674   9.237  0.5245 -0.8363  0.4114
 8946TIP3   OH251032   4.699   4.468   7.232  0.5103 -0.4371 -0.4927
 8946TIP3    H151033   4.750   4.512   7.164 -0.7868 -0.1725 -1.3390
 8946TIP3    H251034   4.626   4.527   7.249  0.6506 -0.6341  0.9573
 8947TIP3   OH251035   6.212   3.754   5.765 -0.2941 -0.0302 -0.1582
 8947TIP3    H151036   6.162   3.675   5.746  0.7574 -0.8394  0.3771
 8947TIP3    H251037   6.253   3.737   5.850 -0.1576  1.1444  0.0331
 8948TIP3   OH251038   2.464   6.245   5.943 -0.0788 -0.9247  0.3768
 8948TIP3    H151039   2.545   6.199   5.965 -0.2068 -0.7512  1.2219
 8948TIP3    H251040   2.475   6.269   5.851  1.7405  0.9703  1.0297
 8949TIP3   OH251041   1.475   0.910   6.901  0.6860 -0.0458 -0.3621
 8949TIP3    H151042   1.549   0.881   6.953 -1.2184 -0.7659  2.1298
 8949TIP3    H251043   1.423   0.831   6.886  0.4489  0.4133 -2.1628
 8950TIP3   OH251044   6.137   2.069   8.760  0.0613 -0.2940  0.0761
 8950TIP3    H151045   6.065   2.043   8.819 -0.1961 -0.7674 -0.4381
 8950TIP3    H251046   6.131   2.165   8.758  0.5675 -0.2055  1.4257
 8951TIP3   OH251047   1.937   2.830   6.205 -0.0901  0.2149  0.2480
 8951TIP3    H151048   2.032   2.823   6.196 -0.0932  0.0683  0.3223
 8951TIP3    H251049   1.905   2.741   6.190 -0.0685 -0.1311  2.0490
 8952TIP3   OH251050   1.542   3.348   6.143  0.5274  0.5108  0.3866
 8952TIP3    H151051   1.483   3.353   6.067 -0.1303 -1.1816  0.7464
 8952TIP3    H251052   1.592   3.268   6.129  0.6634  0.3816  1.5590
 8953TIP3   OH251053   6.608   0.648   6.866  0.3060 -0.2766 -0.1537
 8953TIP3    H151054   6.656   0.667   6.947 -1.3600 -0.5965  0.9540
 8953TIP3    H251055   6.527   0.608   6.896 -0.2379 -0.6246 -2.0217
 8954TIP3   OH251056   6.537   6.226   7.655 -0.4319 -0.7779 -0.0831
 8954TIP3    H151057   6.629   6.199   7.658 -0.0992  0.3954  1.8377
 8954TIP3    H251058   6.496   6.164   7.594  1.4352 -1.8940 -0.2840
 8955TIP3   OH251059   1.135   3.651   5.954  0.1239 -0.2875 -0.3385
 8955TIP3    H151060   1.126   3.634   5.860 -1.6509 -0.3114 -0.2001
 8955TIP3    H251061   1.074   3.723   5.971  0.0230 -0.6460  0.8929
 8956TIP3   OH251062   6.524   0.365   7.681 -0.1173  0.1082  0.0757
 8956TIP3    H151063   6.458   0.352   7.749 -2.1394  1.2357 -1.5766
 8956TIP3    H251064   6.510   0.292   7.620 -0.2546  0.6842 -0.5905
 8957TIP3   OH251065   5.926   4.104   7.936  0.5041 -0.3032 -0.9850
 8957TIP3    H151066   5.914   4.198   7.945 -2.7896 -0.4368 -2.5854
 8957TIP3    H251067   5.943   4.090   7.843  1.3545 -1.2827 -0.7025
 8958TIP3   OH251068   4.222   6.007   8.663  0.0278 -0.2757 -0.3057
 8958TIP3    H151069   4.210   5.942   8.733 -0.4215 -1.0483 -1.0853
 8958TIP3    H251070   4.214   6.091   8.708  1.7914 -0.7100  0.9515
 8959TIP3   OH251071   4.728   6.231   6.959 -0.3518 -0.0139  0.1869
 8959TIP3    H151072   4.738   6.150   6.908  0.6317 -0.3594  0.9080
 8959TIP3    H251073   4.648   6.217   7.010  0.1391 -0.8055  0.7696
 8960TIP3   OH251074   4.025   4.563   7.683 -0.1016  0.6626 -0.2142
 8960TIP3    H151075   4.082   4.637   7.663  0.5754 -0.0207 -0.8667
 8960TIP3    H251076   4.039   4.546   7.776  0.0602  1.0778 -0.1621
 8961TIP3   OH251077   0.224   0.269   6.722  0.2818  0.1300 -0.0126
 8961TIP3    H151078   0.272   0.288   6.802 -0.4185  0.3663  0.3541
 8961TIP3    H251079   0.196   0.178   6.732  0.7765 -0.0627 -0.3008
 8962TIP3   OH251080   2.205   0.756   7.454  0.6280 -0.4010 -0.0055
 8962TIP3    H151081   2.188   0.701   7.378  2.2704  1.5395 -1.9120
 8962TIP3    H251082   2.264   0.704   7.509 -1.3063 -2.1844  0.4958
 8963TIP3   OH251083   4.531   2.683   5.769 -0.1051 -0.1294 -0.1393
 8963TIP3    H151084   4.563   2.691   5.859  0.3764  1.1757 -0.3943
 8963TIP3    H251085   4.589   2.619   5.728  0.0843 -0.2402  0.2973
 8964TIP3   OH251086   5.357   3.168   8.634  0.1111  0.1915 -0.5725
 8964TIP3    H151087   5.300   3.107   8.680  0.9487  0.7091  1.2437
 8964TIP3    H251088   5.403   3.114   8.569 -1.1058 -0.5590 -0.8272
 8965TIP3   OH251089   5.230   3.785   8.059  0.2909 -0.6832  0.1974
 8965TIP3    H151090   5.287   3.722   8.103 -0.3509 -1.1342  0.4062
 8965TIP3    H251091   5.176   3.822   8.129  0.0427 -0.5707 -0.0526
 8966TIP3   OH251092   2.463   4.116   8.551  0.2473  0.0886 -0.5738
 8966TIP3    H151093   2.386   4.086   8.503  0.9431  0.0093 -1.6794
 8966TIP3    H251094   2.502   4.036   8.587 -1.3479  0.3059  1.8910
 8967TIP3   OH251095   4.848   0.223   7.782 -0.0199  0.0906  0.1926
 8967TIP3    H151096   4.771   0.199   7.729  0.4781 -0.5269 -0.2639
 8967TIP3    H251097   4.841   0.168   7.860  0.4163 -0.5927 -0.2466
 8968TIP3   OH251098   0.830   6.170   8.415  0.0786 -0.3210  0.5024
 8968TIP3    H151099   0.808   6.218   8.335  2.8633 -1.6995 -1.2388
 8968TIP3    H251100   0.888   6.229   8.463 -1.3568  0.3870  1.4330
 8969TIP3   OH251101   1.012   0.501   7.190  0.0051 -0.4032  0.1874
 8969TIP3    H151102   0.964   0.580   7.213 -0.2931 -0.1548 -1.1767
 8969TIP3    H251103   0.975   0.432   7.245 -0.0605  0.3076  1.0469
 8970TIP3   OH251104   2.666   3.575   8.032  0.2794  0.1342  0.1936
 8970TIP3    H151105   2.634   3.649   7.980  0.0096 -0.2177 -0.1589
 8970TIP3    H251106   2.658   3.603   8.123  2.8860  1.6221  0.0284
 8971TIP3   OH251107   5.375   2.271   5.242 -0.1673 -0.1082 -0.2832
 8971TIP3    H151108   5.372   2.185   5.284 -1.4535  0.1159  0.1309
 8971TIP3    H251109   5.463   2.277   5.204  0.6463 -0.7876  1.3943
 8972TIP3   OH251110   6.270   2.856   5.984  0.2690 -0.3439 -0.0485
 8972TIP3    H151111   6.235   2.864   6.073  1.4056  0.0970  0.3889
 8972TIP3    H251112   6.365   2.859   5.996  0.4359  0.3069 -1.3373
 8973TIP3   OH251113   0.089   3.037   6.283 -0.1299 -0.5328  0.0010
 8973TIP3    H151114   0.016   3.079   6.237  0.7813  0.4184 -0.6113
 8973TIP3    H251115   0.156   3.024   6.215  1.3258  1.0872  1.0524
 8974TIP3   OH251116   5.980   2.742   8.508 -0.1262  0.2710  0.8188
 8974TIP3    H151117   5.916   2.671   8.506 -1.1133  1.0719  2.3325
 8974TIP3    H251118   5.958   2.792   8.586  0.4858  2.3128 -0.2581
 8975TIP3   OH251119   3.860   2.876   8.673  0.4288  0.3140 -0.3833
 8975TIP3    H151120   3.788   2.890   8.734 -0.1486 -0.9891 -0.7351
 8975TIP3    H251121   3.926   2.828   8.723  0.2999 -0.0403 -0.5504
 8976TIP3   OH251122   1.301   4.391   6.131 -0.4071 -0.2275  1.2009
 8976TIP3    H151123   1.323   4.361   6.043  2.1582  2.2233  0.8572
 8976TIP3    H251124   1.323   4.317   6.188 -2.4391 -1.9757 -0.1377
 8977TIP3   OH251125   0.788   5.964   6.527 -0.1614 -0.0357  0.5077
 8977TIP3    H151126   0.848   6.025   6.569  0.8464 -0.6270 -0.0320
 8977TIP3    H251127   0.745   6.015   6.459  1.8803 -0.2626 -1.0486
 8978TIP3   OH251128   3.824   3.649   7.449  0.3797  0.3581 -0.3208
 8978TIP3    H151129   3.755   3.585   7.467  0.1866  0.1528 -1.6691
 8978TIP3    H251130   3.799   3.688   7.365  0.8182  1.7859  0.1868
 8979TIP3   OH251131   0.946   4.693   5.444  0.9347  0.5090 -0.0624
 8979TIP3    H151132   1.024   4.735   5.480  0.7354 -0.9153  2.2817
 8979TIP3    H251133   0.919   4.630   5.512 -0.8962 -0.7182 -1.7978
 8980TIP3   OH251134   3.585   1.422   6.111  0.2641  0.1101 -0.1083
 8980TIP3    H151135   3.517   1.455   6.170 -0.6943 -0.5286 -0.8255
 8980TIP3    H251136   3.541   1.355   6.059  1.3148  0.0588 -0.9616
 8981TIP3   OH251137   1.722   4.859   5.641  0.4551 -0.1943 -0.3351
 8981TIP3    H151138   1.665   4.885   5.569  2.4206 -0.9686 -2.2807
 8981TIP3    H251139   1.806   4.840   5.600  1.9036  0.0253  2.2749
 8982TIP3   OH251140   6.743   2.762   8.363 -0.0929  0.1567 -0.3782
 8982TIP3    H151141   6.803   2.819   8.410 -1.0173  2.2105 -1.5788
 8982TIP3    H251142   6.656   2.784   8.396 -0.3996 -1.2880 -0.1550
 8983TIP3   OH251143   2.992   4.481   6.675 -0.1131  0.1389  0.4743
 8983TIP3    H151144   2.917   4.540   6.684 -1.4073 -1.5978  1.4808
 8983TIP3    H251145   2.990   4.426   6.753  1.9131 -0.3212  0.2690
 8984TIP3   OH251146   3.174   6.149   8.965  0.4390 -0.0138  0.0070
 8984TIP3    H151147   3.100   6.192   8.923  0.6617 -0.7250 -1.1666
 8984TIP3    H251148   3.138   6.067   8.998  0.7842 -0.5716 -0.9707
 8985TIP3   OH251149   2.963   6.051   8.332 -0.4250  0.2503  0.3127
 8985TIP3    H151150   2.945   6.103   8.411  1.1641 -1.0974  1.6549
 8985TIP3    H251151   2.878   6.040   8.290 -1.5141  0.1317  2.4166
 8986TIP3   OH251152   2.076   0.821   8.049 -0.0043  0.1367  0.8499
 8986TIP3    H151153   2.097   0.845   8.139 -0.7495  1.8313  0.6174
 8986TIP3    H251154   1.996   0.870   8.029 -0.5106 -1.1221 -0.3632
 8987TIP3   OH251155   4.769   0.403   6.375 -0.1309  0.3864  0.9731
 8987TIP3    H151156   4.741   0.354   6.452 -1.9325  1.0909  0.8121
 8987TIP3    H251157   4.773   0.494   6.405 -1.9039  0.8223  0.0207
 8988TIP3   OH251158   6.655   1.609   7.100  0.0301 -0.1429 -0.6470
 8988TIP3    H151159   6.635   1.584   7.190 -0.8280  1.4585 -0.3675
 8988TIP3    H251160   6.727   1.551   7.075 -0.1833 -1.0927  0.8170
 8989TIP3   OH251161   2.212   6.613   6.342 -0.0536  0.4200 -0.1352
 8989TIP3    H151162   2.273   6.552   6.301 -2.0774 -0.7276 -1.6718
 8989TIP3    H251163   2.256   6.698   6.340  1.7265 -0.4809 -0.5160
 8990TIP3   OH251164   6.748   0.681   7.092 -0.1889  0.3982 -0.4953
 8990TIP3    H151165   6.794   0.763   7.113 -0.6784  0.3350  0.9375
 8990TIP3    H251166   6.815   0.614   7.100 -0.2260  0.4468  0.3565
 8991TIP3   OH251167   2.923   1.473   8.467  0.3043  0.2624  1.0694
 8991TIP3    H151168   2.961   1.426   8.392 -1.0632  0.8495 -0.0354
 8991TIP3    H251169   2.900   1.404   8.529 -0.6017 -0.4607 -0.0259
 8992TIP3   OH251170   6.464   6.459   7.585  0.3364  0.4993  0.3352
 8992TIP3    H151171   6.435   6.500   7.667  1.2224 -0.4280  1.1490
 8992TIP3    H251172   6.487   6.370   7.610 -2.3734 -0.8878 -1.5284
 8993TIP3   OH251173   5.283   1.901   6.803  0.3611 -0.1694  0.5996
 8993TIP3    H151174   5.213   1.908   6.867 -1.4714 -0.6277 -1.2345
 8993TIP3    H251175   5.278   1.984   6.754  0.2705 -0.7111 -0.3231
 8994TIP3   OH251176   2.983   0.339   8.471 -0.0881 -0.3999  0.5545
 8994TIP3    H151177   2.938   0.334   8.387 -0.2634  0.4798  0.5912
 8994TIP3    H251178   2.967   0.428   8.502  0.4766 -0.5275  1.2424
 8995TIP3   OH251179   3.708   4.914   7.251  0.4072 -0.1628  0.3956
 8995TIP3    H151180   3.775   4.850   7.275  0.0481 -1.0290 -0.7933
 8995TIP3    H251181   3.654   4.868   7.186  0.4908  1.5258 -0.9296
 8996TIP3   OH251182   2.283   5.182   6.124  0.5933  0.6768 -0.4350
 8996TIP3    H151183   2.287   5.260   6.069  1.1198  1.0894  0.1629
 8996TIP3    H251184   2.349   5.198   6.192  2.9213 -1.5839 -1.9647
 8997TIP3   OH251185   4.082   5.448   8.601 -0.2812  0.4733 -0.1709
 8997TIP3    H151186   4.016   5.518   8.604  1.9842  2.6870  1.4928
 8997TIP3    H251187   4.149   5.480   8.541  0.4227 -0.6773 -0.0330
 8998TIP3   OH251188   4.554   0.066   7.816 -0.6515  1.0352  0.1807
 8998TIP3    H151189   4.591   0.134   7.759  0.5674  0.3633  0.1492
 8998TIP3    H251190   4.515   0.003   7.756  0.8557  0.1966  0.0373
 8999TIP3   OH251191   4.988   2.548   9.014  0.9924  0.2152  0.7006
 8999TIP3    H151192   4.915   2.605   9.038  1.0822  0.7990 -0.3556
 8999TIP3    H251193   4.952   2.459   9.019  0.3024  0.4787  0.5077
 9000TIP3   OH251194   5.901   6.629   7.289 -0.6550 -0.4572 -0.5961
 9000TIP3    H151195   5.912   6.535   7.277 -1.2212 -0.5595 -0.3488
 9000TIP3    H251196   5.821   6.650   7.240  0.0492  0.0923 -1.5496
 9001TIP3   OH251197   0.962   4.056   6.614  0.0461 -0.0012  0.0339
 9001TIP3    H151198   0.976   4.137   6.663  1.8008 -0.5000  0.4152
 9001TIP3    H251199   0.952   3.989   6.681 -2.1400 -0.0364 -0.2682
 9002TIP3   OH251200   2.735   4.134   6.464 -0.2475  0.6226  0.2758
 9002TIP3    H151201   2.726   4.224   6.431  0.7601  0.8336  0.5516
 9002TIP3    H251202   2.736   4.144   6.559  2.2697  0.5948  0.2997
 9003TIP3   OH251203   3.915   3.788   6.134  0.3909 -0.1241 -0.3956
 9003TIP3    H151204   3.824   3.807   6.159  0.6248  0.8977 -0.2764
 9003TIP3    H251205   3.911   3.776   6.039  0.1358 -0.0402 -0.3976
 9004TIP3   OH251206   2.202   1.355   8.038 -0.1597  0.4937 -0.4530
 9004TIP3    H151207   2.215   1.263   8.014  1.4318  0.6873 -0.4376
 9004TIP3    H251208   2.289   1.394   8.029  0.0177  1.2109  3.0002
 9005TIP3   OH251209   1.809   4.913   6.247  0.0016  0.6519  0.1587
 9005TIP3    H151210   1.747   4.840   6.247  2.4632 -1.6696 -1.4061
 9005TIP3    H251211   1.806   4.948   6.336 -2.2717 -0.4196  0.5832
 9006TIP3   OH251212   6.035   3.294   7.929 -0.2413  0.3094 -0.7645
 9006TIP3    H151213   6.017   3.376   7.883 -1.2625 -0.0370 -1.0039
 9006TIP3    H251214   6.044   3.229   7.859  3.2621  0.6297 -0.7872
 9007TIP3   OH251215   6.513   4.907   7.127  0.4132  0.4322 -0.0466
 9007TIP3    H151216   6.497   4.843   7.058  1.5555 -0.9980  0.9429
 9007TIP3    H251217   6.596   4.948   7.103  0.7650 -0.0020  0.4075
 9008TIP3   OH251218   0.582   5.205   8.003 -0.1633  0.0010  0.4398
 9008TIP3    H151219   0.516   5.257   8.048 -0.3823  0.5997 -0.5370
 9008TIP3    H251220   0.614   5.144   8.069 -2.2273 -0.8309  0.7418
 9009TIP3   OH251221   4.394   2.238   7.039 -0.3344  0.3625  0.6433
 9009TIP3    H151222   4.359   2.201   7.120  1.5093  0.7049  1.6338
 9009TIP3    H251223   4.366   2.176   6.971 -1.2623 -0.3356  1.6224
 9010TIP3   OH251224   4.427   3.442   7.657  0.2431  0.3682 -0.8421
 9010TIP3    H151225   4.365   3.402   7.596  1.7276 -1.2528 -1.3798
 9010TIP3    H251226   4.421   3.389   7.736  0.5113  0.5744 -0.6803
 9011TIP3   OH251227   6.471   2.977   7.541 -0.1700  0.4674 -0.2961
 9011TIP3    H151228   6.475   3.039   7.614 -1.0640  0.1783  0.0076
 9011TIP3    H251229   6.497   2.893   7.580 -1.9452  0.0314  0.0367
 9012TIP3   OH251230   1.975   0.291   6.240  0.0942 -0.1072 -0.4874
 9012TIP3    H151231   1.880   0.298   6.232  0.1137  0.4968 -0.2339
 9012TIP3    H251232   1.992   0.197   6.246 -0.5795 -0.1712  0.5805
 9013TIP3   OH251233   1.789   2.614   6.092  0.5462  0.1084 -0.1122
 9013TIP3    H151234   1.733   2.636   6.018  0.1034  1.2976  0.5359
 9013TIP3    H251235   1.808   2.521   6.082 -2.4103 -0.6322  0.1806
 9014TIP3   OH251236   3.013   4.794  10.270 -0.0039  0.3951 -0.0631
 9014TIP3    H151237   2.970   4.860  10.215  0.5682  0.7987 -0.0315
 9014TIP3    H251238   3.088   4.765  10.218 -0.7547 -0.9137 -0.4698
 9015TIP3   OH251239   3.835   5.659   7.162 -0.2055  0.1413  0.4994
 9015TIP3    H151240   3.831   5.568   7.190 -0.3686 -0.4105 -1.2296
 9015TIP3    H251241   3.764   5.702   7.210 -0.7070 -0.8306  0.6487
 9016TIP3   OH251242   5.208   4.418   8.199  0.9531 -0.7496  0.2364
 9016TIP3    H151243   5.232   4.470   8.123  2.3567  0.4533  1.4463
 9016TIP3    H251244   5.120   4.386   8.180  0.4001  1.3398 -0.9510
 9017TIP3   OH251245   2.999   2.056   7.023  0.1880 -0.0146 -0.6909
 9017TIP3    H151246   2.918   2.021   7.060  0.2817 -0.1568 -0.6190
 9017TIP3    H251247   2.973   2.095   6.939  0.3207 -1.5780 -1.4981
 9018TIP3   OH251248   1.807   3.976   6.681 -0.3471  0.4763  0.1299
 9018TIP3    H151249   1.797   3.941   6.592  0.8270 -1.0132  0.5423
 9018TIP3    H251250   1.733   4.036   6.691 -1.5515 -0.6904 -1.2200
 9019TIP3   OH251251   4.476   0.446   5.580  0.7787 -0.0340  0.4259
 9019TIP3    H151252   4.557   0.496   5.575  1.2665 -0.9366 -1.1931
 9019TIP3    H251253   4.468   0.424   5.673  0.7652  2.6125  1.1190
 9020TIP3   OH251254   5.696   4.091   7.618 -0.1152  0.3018 -0.4038
 9020TIP3    H151255   5.741   4.176   7.621  1.5382 -0.5465  0.3742
 9020TIP3    H251256   5.604   4.113   7.603  0.1584  2.2647  0.4420
 9021TIP3   OH251257   3.442   4.301   9.668 -0.3637 -0.1955  0.2951
 9021TIP3    H151258   3.507   4.235   9.694 -0.5102 -0.0884  0.9706
 9021TIP3    H251259   3.379   4.253   9.614  1.3800  0.1371 -2.2066
 9022TIP3   OH251260   1.088   5.286   7.146 -0.1171  0.3025 -0.5236
 9022TIP3    H151261   1.150   5.359   7.152  0.3919 -0.1849  0.4197
 9022TIP3    H251262   1.121   5.222   7.209 -1.0996 -0.3403 -0.6456
 9023TIP3   OH251263   5.327   6.452   9.492  0.2804  0.1007  0.5096
 9023TIP3    H151264   5.319   6.485   9.402  0.9271 -0.5323  0.2126
 9023TIP3    H251265   5.237   6.448   9.524  0.0296  0.1848 -0.1688
 9024TIP3   OH251266   5.676   4.010   8.817 -0.2964 -0.0211 -0.2404
 9024TIP3    H151267   5.756   3.974   8.854 -0.7036 -0.5373  0.1511
 9024TIP3    H251268   5.698   4.029   8.725  0.3084 -0.0208 -0.0977
 9025TIP3   OH251269   5.228   6.750   5.464 -0.4795 -0.3274 -0.0609
 9025TIP3    H151270   5.191   6.708   5.387  1.4844  0.1665 -1.3335
 9025TIP3    H251271   5.223   6.844   5.446  0.8146 -0.2323 -0.0202
 9026TIP3   OH251272   5.760   4.367   8.777  1.0609 -0.3181 -0.3545
 9026TIP3    H151273   5.788   4.316   8.853 -0.5961 -0.3646  0.2680
 9026TIP3    H251274   5.797   4.454   8.792  1.7853 -0.6515 -0.1411
 9027TIP3   OH251275   1.634   4.555   6.109 -0.2037  0.3585 -0.6317
 9027TIP3    H151276   1.652   4.615   6.181  0.3874 -0.8842  0.2779
 9027TIP3    H251277   1.666   4.601   6.031 -1.7593  2.1527 -0.2924
 9028TIP3   OH251278   4.175   3.043   7.370  0.0845 -0.5321 -0.5437
 9028TIP3    H151279   4.113   3.023   7.440 -0.6435 -2.0652 -1.5801
 9028TIP3    H251280   4.162   2.974   7.306  1.2313  0.4447 -1.8867
 9029TIP3   OH251281   5.192   3.472   5.683  0.0324  0.1123 -0.2058
 9029TIP3    H151282   5.227   3.388   5.654  0.5037  0.6615 -1.3062
 9029TIP3    H251283   5.246   3.495   5.759 -0.0964 -0.5680  0.0985
 9030TIP3   OH251284   5.549   3.227   6.382 -0.0071 -0.0030 -0.1683
 9030TIP3    H151285   5.462   3.220   6.421 -0.6650  0.1294 -1.5643
 9030TIP3    H251286   5.609   3.208   6.454 -1.1874 -0.2836  0.7719
 9031TIP3   OH251287   2.664   5.626   6.424  0.4994  0.1359  0.2143
 9031TIP3    H151288   2.618   5.543   6.427 -0.1741  0.5174  0.4809
 9031TIP3    H251289   2.659   5.653   6.332  0.2876  0.1210  0.2213
 9032TIP3   OH251290   6.452   6.713   8.802 -0.0545 -0.1576 -0.1926
 9032TIP3    H151291   6.417   6.635   8.844 -0.9886  0.9765  1.2325
 9032TIP3    H251292   6.379   6.775   8.802  1.2615  1.4835  0.7933
 9033TIP3   OH251293   2.835   6.738   7.675 -0.1264 -0.4460  0.1550
 9033TIP3    H151294   2.818   6.705   7.587  0.7122 -1.2434  0.2742
 9033TIP3    H251295   2.917   6.695   7.701 -1.5336 -2.0479  2.2190
 9034TIP3   OH251296   0.763   2.342   6.200  0.1559 -0.1692  0.0766
 9034TIP3    H151297   0.735   2.355   6.291  1.1086 -1.1012  0.5347
 9034TIP3    H251298   0.854   2.372   6.199 -0.0719  0.5107 -0.7578
 9035TIP3   OH251299   3.262   4.648   7.142 -0.0786  0.1032 -0.0490
 9035TIP3    H151300   3.218   4.697   7.072 -2.4882  0.9838  1.9132
 9035TIP3    H251301   3.239   4.695   7.222 -0.6684 -2.9565  1.7562
 9036TIP3   OH251302   3.574   5.109   5.875  0.1322  0.2049 -0.0180
 9036TIP3    H151303   3.645   5.051   5.903 -0.1909  0.0977  0.6161
 9036TIP3    H251304   3.500   5.050   5.860 -0.5247  0.5347  1.7197
 9037TIP3   OH251305   4.775   1.892   8.531 -0.5225  0.4141 -1.3342
 9037TIP3    H151306   4.748   1.847   8.612  0.2142 -1.2935 -1.9845
 9037TIP3    H251307   4.712   1.963   8.521 -2.1535 -0.8382 -0.5482
 9038TIP3   OH251308   3.474   2.229   6.614 -0.3728 -0.1900  0.1708
 9038TIP3    H151309   3.441   2.251   6.702 -0.9778 -1.5933  0.3150
 9038TIP3    H251310   3.398   2.240   6.557  0.1919  1.4164 -0.3275
 9039TIP3   OH251311   3.751   6.658   6.980 -0.2630 -0.0269  0.4056
 9039TIP3    H151312   3.784   6.715   6.911  2.0714 -1.6480  0.0412
 9039TIP3    H251313   3.663   6.635   6.952 -0.2227  1.1768 -0.8338
 9040TIP3   OH251314   2.246   3.463   8.379  0.1084  0.3264 -0.3578
 9040TIP3    H151315   2.284   3.400   8.318  0.1061 -0.6277  0.5886
 9040TIP3    H251316   2.320   3.491   8.433  0.1640  1.3728 -0.9545
 9041TIP3   OH251317   3.724   2.980   6.974 -0.2663 -0.2907 -0.0596
 9041TIP3    H151318   3.800   2.999   6.920  0.2131  0.2256  0.7654
 9041TIP3    H251319   3.719   3.054   7.035 -0.5936 -1.0013  0.8063
 9042TIP3   OH251320   6.044   1.161   7.138 -0.2905 -0.5211 -0.2872
 9042TIP3    H151321   5.976   1.159   7.206 -0.4514  0.8966 -0.3652
 9042TIP3    H251322   5.995   1.162   7.056 -0.1185 -1.2992 -0.4030
 9043TIP3   OH251323   2.172   0.187   7.530 -0.1445  0.0603  0.4978
 9043TIP3    H151324   2.202   0.138   7.453 -0.1639 -0.5454  0.8689
 9043TIP3    H251325   2.221   0.149   7.603 -0.0717  0.6865  0.7733
 9044TIP3   OH251326   4.465   0.708   7.497  0.4174 -0.0604  0.0377
 9044TIP3    H151327   4.371   0.689   7.504  0.3598  0.7163  2.3798
 9044TIP3    H251328   4.473   0.759   7.417 -1.3141  0.5805  0.2179
 9045TIP3   OH251329   3.172   4.106   8.922 -0.2185 -0.0028 -0.2112
 9045TIP3    H151330   3.160   4.183   8.867  1.3833 -0.7104 -1.6294
 9045TIP3    H251331   3.252   4.124   8.971 -1.0214  0.1336  1.1060
 9046TIP3   OH251332   0.672   3.406   7.540 -0.1144  0.2064 -0.9064
 9046TIP3    H151333   0.651   3.461   7.464 -0.2839  2.2915  0.5712
 9046TIP3    H251334   0.752   3.445   7.576 -0.0620 -0.7174  0.0083
 9047TIP3   OH251335   2.284   4.617   8.585  0.4388  0.0704 -0.1425
 9047TIP3    H151336   2.218   4.680   8.557  0.4681 -0.7031 -2.0639
 9047TIP3    H251337   2.301   4.564   8.508  1.0585 -1.7447  1.1838
 9048TIP3   OH251338   1.121   3.405   5.421 -0.2886  0.2397  0.0529
 9048TIP3    H151339   1.176   3.480   5.444  0.5760 -0.4488  0.2544
 9048TIP3    H251340   1.057   3.400   5.493 -1.5560  1.9025 -0.8870
 9049TIP3   OH251341   1.575   6.224   8.810  0.0146  0.2522 -0.6749
 9049TIP3    H151342   1.539   6.135   8.805 -0.5908  0.4426  0.1516
 9049TIP3    H251343   1.516   6.270   8.870  0.6416  1.0633 -0.6733
 9050TIP3   OH251344   2.620   1.435   8.447 -0.1635  0.3942 -0.2190
 9050TIP3    H151345   2.620   1.481   8.531 -1.7128  0.3752 -0.1723
 9050TIP3    H251346   2.616   1.342   8.470 -5.0382  0.3808 -0.1178
 9051TIP3   OH251347   4.743   1.956   8.225  0.1785 -0.1144  0.6909
 9051TIP3    H151348   4.730   2.045   8.256 -0.6539 -0.5780  1.7125
 9051TIP3    H251349   4.660   1.912   8.241  0.2217 -0.8144 -0.7761
 9052TIP3   OH251350   2.956   3.129   7.247  0.2545  0.3339  0.6447
 9052TIP3    H151351   2.975   3.199   7.310  2.0383 -0.5757  1.1951
 9052TIP3    H251352   3.017   3.059   7.270 -0.2677 -0.7229 -1.0037
 9053TIP3   OH251353   4.523   4.820   8.691 -0.0254 -0.2419 -0.1530
 9053TIP3    H151354   4.577   4.888   8.650 -0.7102  0.6699  0.4031
 9053TIP3    H251355   4.475   4.781   8.618 -0.8749  1.0434 -0.3322
 9054TIP3   OH251356   0.344   5.700   9.344  0.2441  0.2635 -0.3291
 9054TIP3    H151357   0.282   5.716   9.273  0.0180 -1.8532 -0.6611
 9054TIP3    H251358   0.323   5.612   9.375  2.0329  0.1270  0.6367
 9055TIP3   OH251359   6.289   3.786   6.400  0.1944  0.3722 -0.3955
 9055TIP3    H151360   6.367   3.733   6.417 -0.0483  0.5206  1.3615
 9055TIP3    H251361   6.322   3.863   6.354  1.0049  0.1419 -0.2161
 9056TIP3   OH251362   5.843   6.511   6.070  0.4664 -0.5140 -0.1574
 9056TIP3    H151363   5.811   6.579   6.011 -0.3230  0.4773  1.3512
 9056TIP3    H251364   5.935   6.500   6.047 -0.0656 -0.9320 -2.2619
 9057TIP3   OH251365   2.452   1.685   8.642 -0.0474 -0.6640 -0.0539
 9057TIP3    H151366   2.465   1.603   8.690  3.2230 -0.6787 -0.7215
 9057TIP3    H251367   2.499   1.750   8.694  0.1516  0.1113 -1.1853
 9058TIP3   OH251368   6.152   1.688   7.402 -0.3791  0.3522 -0.0625
 9058TIP3    H151369   6.068   1.648   7.379 -0.3407 -0.4621  1.1147
 9058TIP3    H251370   6.197   1.622   7.454  1.1441  0.6715 -0.9225
 9059TIP3   OH251371   5.889   5.760   6.071 -0.3441 -0.3273  0.4998
 9059TIP3    H151372   5.850   5.814   6.002  0.8714 -0.1475 -0.0696
 9059TIP3    H251373   5.895   5.817   6.147 -0.4981 -0.1325  0.3658
 9060TIP3   OH251374   5.664   2.941   6.070  0.8498 -0.3410  0.1790
 9060TIP3    H151375   5.724   3.001   6.025  0.5445  0.6015  0.9754
 9060TIP3    H251376   5.702   2.855   6.057  2.6488  0.2618  1.0001
 9061TIP3   OH251377   2.650   2.105   8.507 -0.3796  0.1811 -0.1125
 9061TIP3    H151378   2.561   2.119   8.539 -0.5769 -1.5608  0.1976
 9061TIP3    H251379   2.662   2.010   8.509  0.0486 -0.0096 -3.9218
 9062TIP3   OH251380   5.296   4.780   8.259 -0.1467 -0.1996  0.0814
 9062TIP3    H151381   5.220   4.788   8.201 -0.0768 -1.2187 -0.1660
 9062TIP3    H251382   5.361   4.732   8.207  0.3387 -0.1188  0.6025
 9063TIP3   OH251383   4.957   2.183   8.477  0.4299  0.0056 -0.2828
 9063TIP3    H151384   4.876   2.182   8.427  0.9541 -0.8783 -1.1422
 9063TIP3    H251385   4.976   2.092   8.496  1.7758  0.0859 -1.0509
 9064TIP3   OH251386   2.522   1.304   7.399 -0.4454  0.3721  0.1622
 9064TIP3    H151387   2.492   1.395   7.394 -0.7960  0.3850  1.8223
 9064TIP3    H251388   2.617   1.311   7.412 -0.5526  0.5200  0.8733
 9065TIP3   OH251389   5.766   5.120   6.933 -0.1898 -0.0304  0.2123
 9065TIP3    H151390   5.768   5.150   6.842 -0.6630 -1.3078 -0.2444
 9065TIP3    H251391   5.815   5.038   6.932 -0.8176 -0.4237  0.9620
 9066TIP3   OH251392   4.044   3.583   7.761  0.5959  0.1865  0.6803
 9066TIP3    H151393   3.967   3.532   7.787  0.6680  0.0013  0.5291
 9066TIP3    H251394   4.115   3.548   7.814  0.5400  0.4811  0.9520
 9067TIP3   OH251395   3.675   5.626   8.731 -0.1106  0.0672 -0.0133
 9067TIP3    H151396   3.655   5.597   8.820 -1.0575  3.2933  0.9455
 9067TIP3    H251397   3.692   5.545   8.683  0.3084 -1.8042  3.0345
 9068TIP3   OH251398   1.140   4.856   8.630 -0.2260 -0.2910 -0.3494
 9068TIP3    H151399   1.120   4.800   8.555 -0.7224 -0.5536 -0.0223
 9068TIP3    H251400   1.096   4.815   8.704 -0.5296  0.4786 -0.0896
 9069TIP3   OH251401   0.802   5.687   6.214  0.4018 -0.3046  0.5153
 9069TIP3    H151402   0.806   5.781   6.199 -3.1485  0.1990  1.6927
 9069TIP3    H251403   0.835   5.675   6.304  2.0640 -0.4487 -0.0725
 9070TIP3   OH251404   1.000   0.856   6.101 -0.2219  0.2836  0.1142
 9070TIP3    H151405   1.094   0.856   6.116 -0.1852 -0.3830 -0.0981
 9070TIP3    H251406   0.963   0.899   6.179  0.1711 -0.5335  0.7591
 9071TIP3   OH251407   0.369   4.286   5.978  0.0123 -0.0091 -0.1853
 9071TIP3    H151408   0.394   4.207   5.930  1.8120 -0.2684  1.0828
 9071TIP3    H251409   0.351   4.351   5.910  1.8007 -0.5601 -1.2474
 9072TIP3   OH251410   1.174   2.905   7.307 -0.3186 -0.4990  0.1235
 9072TIP3    H151411   1.096   2.859   7.275  0.6789 -1.0892 -1.5836
 9072TIP3    H251412   1.154   2.998   7.293  0.4395 -0.7031 -3.5110
 9073TIP3   OH251413   3.065   1.510   7.625 -0.2447  0.5541  0.7358
 9073TIP3    H151414   3.006   1.497   7.699 -2.2044  0.5939 -0.7478
 9073TIP3    H251415   3.081   1.423   7.591 -0.7949  0.6835  0.1395
 9074TIP3   OH251416   2.812   3.055   5.823 -0.4520  0.0778  0.1819
 9074TIP3    H151417   2.718   3.038   5.832 -0.5136  0.7221  0.8347
 9074TIP3    H251418   2.852   2.968   5.819 -1.2038 -0.2455 -1.7215
 9075TIP3   OH251419   6.581   1.803   8.165  0.7619 -0.0321  0.1950
 9075TIP3    H151420   6.637   1.860   8.113 -0.4773  1.0609  0.0107
 9075TIP3    H251421   6.642   1.754   8.221  2.0578 -0.6234 -1.6384
 9076TIP3   OH251422   2.077   1.181   7.396  0.4523  0.5959  0.2058
 9076TIP3    H151423   2.089   1.253   7.458 -0.9337  0.6547  0.4385
 9076TIP3    H251424   2.002   1.132   7.430 -1.8381  1.9008 -2.4996
 9077TIP3   OH251425   6.469   5.221   7.537 -0.4372  0.4266 -0.0943
 9077TIP3    H151426   6.453   5.209   7.444 -1.9551  0.9910  0.0772
 9077TIP3    H251427   6.484   5.315   7.547  2.2300  0.0857 -0.0922
 9078TIP3   OH251428   3.202   4.595   7.887  0.0756 -0.4187 -0.5093
 9078TIP3    H151429   3.292   4.618   7.862  0.1716  0.1940  0.3321
 9078TIP3    H251430   3.178   4.663   7.950 -1.2781 -0.0968 -1.3242
 9079TIP3   OH251431   3.876   5.170   9.399  0.3731  0.2750  0.2078
 9079TIP3    H151432   3.804   5.150   9.339  0.4644 -0.3525  0.3088
 9079TIP3    H251433   3.841   5.239   9.456 -0.0170  0.2411  0.0107
 9080TIP3   OH251434   0.206   0.513   8.428  0.0801  0.0365 -0.1301
 9080TIP3    H151435   0.183   0.566   8.352 -1.1526  0.2590  0.3809
 9080TIP3    H251436   0.123   0.479   8.460  0.6448 -0.5415  0.7719
 9081TIP3   OH251437   1.639   1.135   8.246  0.6234  0.3809  0.0246
 9081TIP3    H151438   1.572   1.175   8.302  0.5874 -0.7704  0.8237
 9081TIP3    H251439   1.608   1.151   8.157 -2.0950 -2.2892  0.3226
 9082TIP3   OH251440   5.760   6.597   8.102 -0.1439 -0.2575  0.0262
 9082TIP3    H151441   5.737   6.681   8.142 -0.7430  0.2053 -1.2532
 9082TIP3    H251442   5.804   6.549   8.172  0.2623  1.1353  0.7676
 9083TIP3   OH251443   2.610   4.806   5.823  0.2725 -0.7279 -0.8848
 9083TIP3    H151444   2.597   4.872   5.756  0.2456 -0.9421 -1.0944
 9083TIP3    H251445   2.545   4.738   5.804  0.0917 -0.6678 -0.4847
 9084TIP3   OH251446   2.271   4.951   5.962  0.0425 -0.0857  0.3408
 9084TIP3    H151447   2.278   5.036   6.006 -2.5782 -0.9733  2.7678
 9084TIP3    H251448   2.346   4.901   5.994  0.5484  0.6959  0.4036
 9085TIP3   OH251449   4.039   5.165   8.028 -0.0398  0.3527 -0.1615
 9085TIP3    H151450   4.019   5.204   8.114  0.6464 -0.7016  0.5053
 9085TIP3    H251451   3.960   5.181   7.976 -0.1003  1.8653  0.3304
 9086TIP3   OH251452   6.621   1.275   7.676 -0.0679 -0.7898 -0.3777
 9086TIP3    H151453   6.584   1.363   7.668  0.3079 -0.6082 -0.1511
 9086TIP3    H251454   6.613   1.238   7.588 -0.3378 -0.5715 -0.4458
 9087TIP3   OH251455   2.768   4.030   7.250 -0.1760  0.1251  0.1686
 9087TIP3    H151456   2.811   4.046   7.166 -0.5281  0.5469  0.0627
 9087TIP3    H251457   2.827   4.071   7.314  0.5288 -0.9513  0.2240
 9088TIP3   OH251458   5.043   3.173   8.447 -0.0674 -0.3306  0.6949
 9088TIP3    H151459   5.075   3.083   8.449 -0.6943 -0.5662  0.4249
 9088TIP3    H251460   5.093   3.218   8.515 -0.1119 -1.0079  1.1914
 9089TIP3   OH251461   2.898   2.270   9.296  0.0071 -0.0821 -0.1149
 9089TIP3    H151462   2.899   2.230   9.209  5.4169  2.4212 -1.6020
 9089TIP3    H251463   2.887   2.363   9.279  1.1729  0.4686  1.8435
 9090TIP3   OH251464   5.695   4.332   6.415  0.8734  0.1226  1.0358
 9090TIP3    H151465   5.639   4.336   6.492 -0.1356 -1.3289  0.4147
 9090TIP3    H251466   5.711   4.239   6.401  1.8354  0.4109  0.0487
 9091TIP3   OH251467   5.266   5.655   7.361 -0.0195 -0.1542  0.0595
 9091TIP3    H151468   5.200   5.631   7.296  0.5612  0.5566 -0.8099
 9091TIP3    H251469   5.234   5.616   7.443 -1.6059  0.3370 -0.2953
 9092TIP3   OH251470   2.355   3.594   7.138 -0.5147 -0.2912  0.3935
 9092TIP3    H151471   2.370   3.627   7.050  0.6159  0.1494  0.7238
 9092TIP3    H251472   2.373   3.669   7.195 -1.6692 -0.4405  0.9895
 9093TIP3   OH251473   3.983   3.822   8.722  0.5784 -0.5274 -0.2834
 9093TIP3    H151474   3.971   3.832   8.628 -0.4514 -0.5824 -0.1630
 9093TIP3    H251475   4.043   3.748   8.731  1.7000  0.2558 -0.9212
 9094TIP3   OH251476   4.758   3.541   7.192 -0.0310 -0.0765  0.0725
 9094TIP3    H151477   4.763   3.608   7.124  1.0077 -0.9340 -0.7253
 9094TIP3    H251478   4.664   3.529   7.207 -0.2514  2.1907  0.9104
 9095TIP3   OH251479   4.028   1.797   5.916 -0.2888  0.2760 -0.1100
 9095TIP3    H151480   4.075   1.797   5.832 -1.0903 -0.0079 -0.5688
 9095TIP3    H251481   4.085   1.747   5.975 -0.3854 -0.7734 -0.8779
 9096TIP3   OH251482   3.770   4.971   6.458  0.8133  0.4841  0.1157
 9096TIP3    H151483   3.787   5.021   6.538  1.6145  0.8691 -0.2866
 9096TIP3    H251484   3.746   5.037   6.393  1.6526  0.3293 -0.3612
 9097TIP3   OH251485   2.362   1.824   5.923 -0.0099 -0.4546  0.3149
 9097TIP3    H151486   2.361   1.732   5.949 -0.8045 -0.5580 -0.0435
 9097TIP3    H251487   2.379   1.872   6.003  0.4201 -0.9145  0.5040
 9098TIP3   OH251488   4.362   4.044   8.238 -0.3644 -0.0140  0.3305
 9098TIP3    H151489   4.278   4.059   8.282 -0.7091 -0.8316 -0.0106
 9098TIP3    H251490   4.395   3.963   8.277  0.3312  0.3767  0.5525
 9099TIP3   OH251491   1.291   2.462   8.188  0.0415 -0.7118  0.5284
 9099TIP3    H151492   1.298   2.367   8.173 -0.9762 -0.8150  0.6592
 9099TIP3    H251493   1.203   2.474   8.223  0.2801  0.2530  0.8073
 9100TIP3   OH251494   4.440   2.464   5.557 -0.6640  0.1521 -0.1719
 9100TIP3    H151495   4.348   2.467   5.532 -0.5079  0.1146 -0.7661
 9100TIP3    H251496   4.480   2.538   5.513 -0.5347  0.5860  0.6483
 9101TIP3   OH251497   2.147   0.991   6.826 -0.5812 -0.1262 -0.5469
 9101TIP3    H151498   2.207   0.954   6.762  0.3969  0.6700 -0.1200
 9101TIP3    H251499   2.069   1.015   6.775  0.4233  1.0970 -1.5892
 9102TIP3   OH251500   2.631   3.384   5.722  0.0075 -1.0776  0.3445
 9102TIP3    H151501   2.710   3.352   5.678  1.7699 -0.7851  3.1158
 9102TIP3    H251502   2.607   3.314   5.783 -0.6303 -0.2824  1.0290
 9103TIP3   OH251503   2.052   4.243   6.363 -0.7838  0.1560  0.1359
 9103TIP3    H151504   1.970   4.196   6.375 -0.0963 -1.0563  0.3506
 9103TIP3    H251505   2.113   4.200   6.423  0.6794 -0.7406 -1.8638
 9104TIP3   OH251506   5.871   4.609   8.791 -0.3313  0.0380  0.0316
 9104TIP3    H151507   5.899   4.642   8.705 -0.3637 -1.2552 -0.5092
 9104TIP3    H251508   5.821   4.681   8.830  2.6233  1.9640  0.5057
 9105TIP3   OH251509   6.080   6.333   6.574  0.2278 -0.0865 -0.4000
 9105TIP3    H151510   5.990   6.316   6.604  0.4478  2.3464  2.0752
 9105TIP3    H251511   6.080   6.308   6.482 -3.3747  1.0170 -0.8529
 9106TIP3   OH251512   3.738   3.612   6.475 -0.1798  0.7639 -0.3844
 9106TIP3    H151513   3.762   3.524   6.504 -0.4866  0.8641  0.2026
 9106TIP3    H251514   3.786   3.625   6.394 -1.7449 -0.7814 -1.6398
 9107TIP3   OH251515   4.064   6.287   6.607  0.5606  0.6695 -0.0046
 9107TIP3    H151516   4.151   6.283   6.568 -0.1392  0.3054 -1.6082
 9107TIP3    H251517   4.026   6.201   6.587 -1.9881  2.4499 -3.8677
 9108TIP3   OH251518   5.125   0.695   7.794 -0.2056 -0.2339 -0.0221
 9108TIP3    H151519   5.071   0.618   7.806  1.2162 -1.4687 -1.1088
 9108TIP3    H251520   5.180   0.699   7.872  0.4267 -0.9434 -0.4221
 9109TIP3   OH251521   0.649   0.546   5.873  0.2156 -1.0077  0.6223
 9109TIP3    H151522   0.680   0.611   5.937  0.1007 -1.1185  0.7895
 9109TIP3    H251523   0.660   0.590   5.789  0.4445 -0.8920  0.7114
 9110TIP3   OH251524   1.510   0.159   5.917  0.0984  0.2728  0.3340
 9110TIP3    H151525   1.435   0.183   5.862 -1.3558  1.0509  2.5604
 9110TIP3    H251526   1.502   0.065   5.930  0.9276 -0.0773 -1.3718
 9111TIP3   OH251527   3.596   3.898   7.374  0.4696 -0.4055  0.1133
 9111TIP3    H151528   3.584   3.968   7.310  2.1873  0.7871  1.0140
 9111TIP3    H251529   3.651   3.834   7.330  1.0988  0.0963  0.1578
 9112TIP3   OH251530   3.785   4.901   8.171  0.3129 -0.0324  0.2503
 9112TIP3    H151531   3.787   4.961   8.245 -0.4510 -1.5746  1.5923
 9112TIP3    H251532   3.728   4.830   8.200  0.8281 -1.1890 -1.4362
 9113TIP3   OH251533   5.573   1.353   6.943 -0.5190 -0.0559 -0.3206
 9113TIP3    H151534   5.641   1.416   6.965 -1.7602  1.4010 -0.4924
 9113TIP3    H251535   5.533   1.387   6.864 -2.7243  0.2263  0.8357
 9114TIP3   OH251536   2.525   4.320   9.087 -0.2389 -0.2083  0.1825
 9114TIP3    H151537   2.434   4.341   9.067 -0.3613  0.7694  1.5842
 9114TIP3    H251538   2.552   4.261   9.017 -1.5655  0.4571 -0.9528
 9115TIP3   OH251539   4.840   1.168   7.403  0.0202  0.3003 -0.2987
 9115TIP3    H151540   4.805   1.091   7.447 -0.8443  1.1360  0.5058
 9115TIP3    H251541   4.778   1.186   7.333 -0.1484  0.6697 -0.0548
 9116TIP3   OH251542   5.435   0.619   8.996  0.1223 -0.0895  0.4344
 9116TIP3    H151543   5.474   0.679   9.059  0.3187 -1.2543  1.4479
 9116TIP3    H251544   5.384   0.558   9.049  0.3913 -1.1694 -0.5191
 9117TIP3   OH251545   5.399   1.464   7.926 -0.3524 -0.6110 -0.2618
 9117TIP3    H151546   5.491   1.469   7.900  0.3949  0.6872  2.2992
 9117TIP3    H251547   5.382   1.370   7.936  1.5082 -0.7972  1.7033
 9118TIP3   OH251548   3.641   4.513   6.990 -0.0830  0.0445 -0.2533
 9118TIP3    H151549   3.698   4.443   7.021 -0.7492 -1.6857 -2.6556
 9118TIP3    H251550   3.566   4.468   6.953 -0.5072  2.0197 -1.9790
 9119TIP3   OH251551   6.330   0.702   8.127  0.1674 -0.0842 -0.2915
 9119TIP3    H151552   6.398   0.761   8.160  0.7891  0.0518 -1.7428
 9119TIP3    H251553   6.248   0.744   8.153  0.6212  0.4557  0.3062
 9120TIP3   OH251554   2.214   3.663   7.830  0.0887  0.2104  0.2274
 9120TIP3    H151555   2.239   3.655   7.922  1.0755 -0.6488 -0.0887
 9120TIP3    H251556   2.250   3.748   7.803 -0.4368  0.5870  0.6909
 9121TIP3   OH251557   3.397   2.078   8.823 -0.0867 -0.4443 -0.4325
 9121TIP3    H151558   3.350   2.150   8.781  0.7778  0.6905  0.4676
 9121TIP3    H251559   3.447   2.037   8.753  0.0879  0.3983 -0.8105
 9122TIP3   OH251560   4.244   5.611   7.418  0.5206  0.9120 -0.2102
 9122TIP3    H151561   4.315   5.588   7.358 -0.0030 -0.5322 -0.3109
 9122TIP3    H251562   4.179   5.655   7.363  0.5411  0.6096 -0.4785
 9123TIP3   OH251563   1.776   4.736   8.056 -0.7500 -0.8807 -0.2502
 9123TIP3    H151564   1.702   4.692   8.014 -1.3747 -1.4882  1.4042
 9123TIP3    H251565   1.829   4.664   8.093  0.4702 -0.4314 -1.0582
 9124TIP3   OH251566   0.206   6.683   6.371 -0.2965 -0.0974  0.0442
 9124TIP3    H151567   0.127   6.630   6.358 -1.0763  0.7792  1.0387
 9124TIP3    H251568   0.254   6.675   6.288 -0.1148 -2.7449  0.3155
 9125TIP3   OH251569   1.588   1.823   6.367 -0.3230 -0.4066 -0.0546
 9125TIP3    H151570   1.589   1.727   6.367 -0.8281 -0.4468 -1.7591
 9125TIP3    H251571   1.544   1.847   6.449 -0.4696 -1.6273  0.2434
 9126TIP3   OH251572   5.444   3.044   8.422  0.0435 -0.1316 -0.0513
 9126TIP3    H151573   5.484   2.970   8.377 -2.2996 -1.0592 -0.7923
 9126TIP3    H251574   5.442   3.114   8.357 -1.2659 -0.7407 -0.7186
 9127TIP3   OH251575   2.110   5.290   7.736 -0.0508 -0.3442  0.6243
 9127TIP3    H151576   2.033   5.234   7.726 -0.1511 -0.0629 -0.3287
 9127TIP3    H251577   2.116   5.307   7.830 -1.0168 -0.5596  0.7361
 9128TIP3   OH251578   4.119   6.583   8.329 -0.3472 -0.2899  0.3417
 9128TIP3    H151579   4.106   6.603   8.422  0.0608 -0.5701  0.4656
 9128TIP3    H251580   4.131   6.668   8.287  0.5706 -0.2111  0.7280
 9129TIP3   OH251581   1.721   5.971   5.340  0.4146 -0.2903  0.2640
 9129TIP3    H151582   1.723   5.902   5.274  1.4303  0.2721 -0.3281
 9129TIP3    H251583   1.811   6.006   5.341 -0.0280  0.8961  0.6675
 9130TIP3   OH251584   3.168   1.445   8.077  0.8172  0.0478 -0.0202
 9130TIP3    H151585   3.096   1.390   8.045  0.9856 -0.3883  0.3366
 9130TIP3    H251586   3.195   1.403   8.159  1.9729 -0.2174 -0.5218
 9131TIP3   OH251587   3.912   6.016   8.402  0.5080 -0.3351  0.1845
 9131TIP3    H151588   3.907   6.053   8.313 -0.3403 -1.1365 -0.1185
 9131TIP3    H251589   3.875   6.084   8.458 -1.1927 -0.7369 -0.3885
 9132TIP3   OH251590   0.762   0.686   7.712 -0.4859  0.8917  0.1348
 9132TIP3    H151591   0.690   0.747   7.693 -0.6209  0.7513  0.1945
 9132TIP3    H251592   0.804   0.671   7.627 -1.8083 -0.6482 -0.2989
 9133TIP3   OH251593   1.294   1.434   7.686 -0.2402  0.5441  0.0725
 9133TIP3    H151594   1.202   1.433   7.661 -0.1164 -0.5938 -0.3765
 9133TIP3    H251595   1.341   1.450   7.605 -0.0384  1.3072  0.3304
 9134TIP3   OH251596   5.762   2.223   7.210 -0.3153  0.9244 -0.4472
 9134TIP3    H151597   5.674   2.253   7.233 -0.7850  1.4588 -2.7358
 9134TIP3    H251598   5.753   2.128   7.202  0.4521  0.3081  3.7121
 9135TIP3   OH251599   3.759   2.700   8.087 -0.1189 -0.5846 -0.4841
 9135TIP3    H151600   3.841   2.671   8.127 -1.0372 -1.8027  0.5893
 9135TIP3    H251601   3.748   2.791   8.116  0.6339 -0.5506 -0.2980
 9136TIP3   OH251602   2.072   2.926   7.356  0.5348  0.0387  0.0536
 9136TIP3    H151603   1.990   2.974   7.369 -0.2594 -0.7074 -1.8372
 9136TIP3    H251604   2.128   2.986   7.307  0.8158  0.2465  0.6242
 9137TIP3   OH251605   3.136   1.507   8.710 -0.3733 -0.0201 -0.4107
 9137TIP3    H151606   3.162   1.586   8.757 -0.6092 -1.0102  1.4991
 9137TIP3    H251607   3.217   1.474   8.672 -0.0882  0.5800 -0.3349
 9138TIP3   OH251608   3.194   5.705   6.167 -0.3458  0.1052  0.4108
 9138TIP3    H151609   3.151   5.787   6.143 -0.9886  0.6473  3.1015
 9138TIP3    H251610   3.288   5.727   6.167 -0.4102  0.3980 -0.3742
 9139TIP3   OH251611   2.945   4.098   7.036 -0.2191  0.3580 -0.6001
 9139TIP3    H151612   3.040   4.093   7.039 -0.2830 -1.0754 -0.2755
 9139TIP3    H251613   2.919   4.034   6.970 -1.0357 -0.8860  0.8604
 9140TIP3   OH251614   3.781   6.607   8.586 -0.0354  0.4403 -0.7693
 9140TIP3    H151615   3.750   6.593   8.675 -0.0916 -2.3635 -1.1299
 9140TIP3    H251616   3.861   6.555   8.580 -0.4791 -0.0952 -2.5806
 9141TIP3   OH251617   6.573   5.110   8.505 -0.4077 -0.3699  0.4135
 9141TIP3    H151618   6.545   5.095   8.596  0.6434  0.4483  0.8884
 9141TIP3    H251619   6.643   5.046   8.490 -0.8052 -0.7293  0.0566
 9142TIP3   OH251620   5.956   4.749   8.578  0.0137 -0.6453  0.2291
 9142TIP3    H151621   5.911   4.675   8.537 -1.1356  0.7283 -1.1245
 9142TIP3    H251622   6.046   4.744   8.543 -0.4301 -0.6214 -0.9593
 9143TIP3   OH251623   5.266   4.889   5.827 -0.4475  0.1538  0.5994
 9143TIP3    H151624   5.180   4.909   5.864 -1.0409 -2.1491  0.6437
 9143TIP3    H251625   5.296   4.812   5.875  0.4606 -0.6517 -1.1426
 9144TIP3   OH251626   5.098   6.751   8.945  0.8686 -0.0564 -0.0073
 9144TIP3    H151627   5.031   6.739   9.012  1.2622  0.6638  0.5366
 9144TIP3    H251628   5.178   6.717   8.985  0.4076 -3.3626 -1.6044
 9145TIP3   OH251629   5.253   4.952   6.655  0.1864 -0.9574 -0.0687
 9145TIP3    H151630   5.294   5.032   6.622  0.3791 -1.1302 -0.2510
 9145TIP3    H251631   5.242   4.968   6.749  0.1742 -0.6953 -0.1142
 9146TIP3   OH251632   6.732   4.484   5.543 -0.7587 -0.0623 -0.3115
 9146TIP3    H151633   6.742   4.488   5.638  0.2417  0.3870 -0.4198
 9146TIP3    H251634   6.638   4.475   5.529 -1.0325  0.9311  0.7021
 9147TIP3   OH251635   5.562   6.222   7.436  0.5813  0.2253  0.4498
 9147TIP3    H151636   5.502   6.193   7.505  0.4484  0.8646  0.6052
 9147TIP3    H251637   5.598   6.304   7.469  2.1582 -0.5414  0.7207
 9148TIP3   OH251638   4.640   4.902   8.245 -0.3798  0.2242  0.5682
 9148TIP3    H151639   4.587   4.948   8.180 -0.2890  0.9926  1.0200
 9148TIP3    H251640   4.630   4.810   8.223 -0.6249  0.4509 -0.3229
 9149TIP3   OH251641   5.234   2.169   7.019 -0.1841  0.2391 -0.3513
 9149TIP3    H151642   5.188   2.085   7.018  0.8629 -0.3662 -2.0479
 9149TIP3    H251643   5.304   2.157   7.083 -0.3921  0.0237 -0.1618
 9150TIP3   OH251644   0.217   0.549   7.198 -0.1391  0.6400  0.2010
 9150TIP3    H151645   0.282   0.523   7.132 -0.9633 -1.7696  0.2297
 9150TIP3    H251646   0.268   0.588   7.268  1.2798 -0.8755  0.0788
 9151TIP3   OH251647   0.437   2.614   6.983 -0.0256 -0.1890  0.3884
 9151TIP3    H151648   0.485   2.533   6.966 -0.5740 -0.3326 -0.5817
 9151TIP3    H251649   0.346   2.587   6.993  0.2346 -0.1853  4.3773
 9152TIP3   OH251650   5.136   4.708   6.917 -0.3586 -0.0426 -0.3147
 9152TIP3    H151651   5.226   4.740   6.908  0.1344 -1.3896 -0.4295
 9152TIP3    H251652   5.098   4.717   6.829  0.0542 -0.5444 -0.5519
 9153TIP3   OH251653   1.895   2.322   8.405 -0.0025 -0.5034  0.2528
 9153TIP3    H151654   1.881   2.264   8.331  0.8264  0.0852 -0.3914
 9153TIP3    H251655   1.899   2.410   8.367  1.3234 -0.2696  0.8643
 9154TIP3   OH251656   5.400   6.487   7.345 -0.2711 -0.0432 -0.2796
 9154TIP3    H151657   5.342   6.525   7.279 -0.0458 -0.8663 -0.9735
 9154TIP3    H251658   5.488   6.511   7.315 -0.0931 -1.5820 -1.0588
 9155TIP3   OH251659   5.609   1.159   7.357  0.0303  0.3313  0.1634
 9155TIP3    H151660   5.617   1.064   7.363  2.2825  0.4076 -0.6834
 9155TIP3    H251661   5.573   1.175   7.270  2.9678  0.2527 -1.2059
 9156TIP3   OH251662   0.563   1.121   7.482  0.6832  0.3122  0.1875
 9156TIP3    H151663   0.634   1.170   7.442 -0.5769  1.6463 -0.5208
 9156TIP3    H251664   0.490   1.129   7.420 -0.3398 -0.3046  1.2596
 9157TIP3   OH251665   0.902   5.463   8.773  0.2606  0.2756  0.1279
 9157TIP3    H151666   0.852   5.465   8.692 -0.3649  4.1538  0.3893
 9157TIP3    H251667   0.980   5.515   8.754  1.5152 -1.1246  1.2644
 9158TIP3   OH251668   5.666   0.325   8.009  0.3793  0.0726 -0.7369
 9158TIP3    H151669   5.661   0.329   7.914  0.5845  1.0539 -0.7234
 9158TIP3    H251670   5.599   0.387   8.039 -0.7854 -1.3878 -0.2035
 9159TIP3   OH251671   3.347   2.583   8.584  0.5059  0.2505 -0.7684
 9159TIP3    H151672   3.414   2.622   8.640  0.0171 -0.3282  0.2345
 9159TIP3    H251673   3.279   2.650   8.577  1.1275  0.8130 -1.7328
 9160TIP3   OH251674   4.546   5.449   7.433  0.4548  0.2817  0.5741
 9160TIP3    H151675   4.483   5.460   7.361  0.3806 -0.2400  0.5510
 9160TIP3    H251676   4.544   5.355   7.451 -0.1334  0.5108  1.8053
 9161TIP3   OH251677   3.434   1.654   5.544  0.2658  0.0143  0.2261
 9161TIP3    H151678   3.495   1.726   5.528 -0.7231  0.5225 -1.4982
 9161TIP3    H251679   3.438   1.639   5.638  3.7754 -0.6467  0.0901
 9162TIP3   OH251680   2.359   5.969   6.381  0.1630  0.2876  0.6439
 9162TIP3    H151681   2.411   6.021   6.442 -0.8335 -0.2408  1.9921
 9162TIP3    H251682   2.268   5.994   6.399 -0.1384  0.3780 -0.8852
 9163TIP3   OH251683   1.778   3.515   6.487  0.0807 -0.2463  0.2537
 9163TIP3    H151684   1.735   3.435   6.455 -0.7758  0.3687 -0.1754
 9163TIP3    H251685   1.830   3.485   6.562  1.8433 -1.6492 -1.4466
 9164TIP3   OH251686   3.923   3.940   6.996  0.3147  0.1499  0.8201
 9164TIP3    H151687   3.947   4.010   6.935 -1.1678  1.7291  1.9150
 9164TIP3    H251688   3.939   3.859   6.948  1.6912  1.2375 -0.6718
 9165TIP3   OH251689   6.100   0.016   7.064  0.4661 -0.0071  0.4765
 9165TIP3    H151690   6.004   0.011   7.064  0.5312 -1.7682 -0.0542
 9165TIP3    H251691   6.129  -0.074   7.048  2.1659  0.9947 -3.0734
 9166TIP3   OH251692   3.361   1.514   7.616  0.3610 -0.1979  0.0269
 9166TIP3    H151693   3.420   1.566   7.561  1.7989 -0.0383  1.6355
 9166TIP3    H251694   3.279   1.562   7.616  0.4191 -0.0168 -1.6538
 9167TIP3   OH251695   0.542   4.763   6.780 -0.3593 -0.0890 -0.5158
 9167TIP3    H151696   0.469   4.716   6.822 -1.3584  0.3005 -1.7465
 9167TIP3    H251697   0.527   4.855   6.804 -0.1299 -0.0407 -0.5631
 9168TIP3   OH251698   1.221   2.322   7.685  0.0520 -0.0513  0.2056
 9168TIP3    H151699   1.237   2.232   7.657 -1.4873  0.0891 -1.3042
 9168TIP3    H251700   1.198   2.314   7.777  1.5038 -0.9874  0.5322
 9169TIP3   OH251701   4.925   2.229   5.398 -0.4032  0.2876 -0.1589
 9169TIP3    H151702   4.833   2.255   5.394  0.0124  2.0247  0.6379
 9169TIP3    H251703   4.964   2.265   5.318 -0.5135 -0.9745 -0.8043
 9170TIP3   OH251704   5.314   3.930   7.048  0.2460 -0.4082  0.1704
 9170TIP3    H151705   5.405   3.954   7.034  0.4327 -1.3251 -0.2326
 9170TIP3    H251706   5.265   3.982   6.984  0.3304  1.0834  1.2683
 9171TIP3   OH251707   1.087   4.852   6.569 -0.1634  0.4340  0.0077
 9171TIP3    H151708   0.998   4.848   6.604  0.2735 -0.1365  1.1048
 9171TIP3    H251709   1.104   4.945   6.557 -1.0032  0.5390 -0.4805
 9172TIP3   OH251710   5.400   1.984   5.426  0.1774 -0.4483  0.2051
 9172TIP3    H151711   5.328   1.922   5.443 -1.9424  1.4084 -1.4323
 9172TIP3    H251712   5.463   1.933   5.374 -1.3434 -1.3775 -0.8266
 9173TIP3   OH251713   2.566   4.616   5.610  0.4716  0.5549  0.6819
 9173TIP3    H151714   2.622   4.606   5.533 -0.6365 -0.6793  0.0094
 9173TIP3    H251715   2.489   4.663   5.579 -0.7344 -1.3662  0.5987
 9174TIP3   OH251716   0.683   5.928   8.406 -0.3967 -0.0110  1.0206
 9174TIP3    H151717   0.640   5.907   8.489 -1.8902  1.4144  0.6685
 9174TIP3    H251718   0.735   6.007   8.425 -0.2645 -0.0314  0.7467
 9175TIP3   OH251719   2.003   3.416   6.633 -0.2235 -0.7071 -0.4842
 9175TIP3    H151720   2.022   3.322   6.636 -0.4116 -0.8465 -2.3584
 9175TIP3    H251721   2.071   3.456   6.688  0.4037 -1.8639 -0.3856
 9176TIP3   OH251722   0.009   1.192   7.114  0.2584 -0.3492 -0.4562
 9176TIP3    H151723  -0.015   1.246   7.039 -0.9463 -0.2098 -0.0069
 9176TIP3    H251724  -0.038   1.110   7.101 -0.2496 -0.1945  0.2967
 9177TIP3   OH251725   5.540   6.154   6.368  0.6377  0.2129 -0.5981
 9177TIP3    H151726   5.451   6.133   6.341  0.0911 -0.0556  1.2364
 9177TIP3    H251727   5.575   6.208   6.298  0.4568 -2.8938 -3.3240
 9178TIP3   OH251728   0.923   6.565   8.279 -0.6560 -0.0149 -0.0164
 9178TIP3    H151729   1.011   6.578   8.242 -0.2970 -1.2087  0.3767
 9178TIP3    H251730   0.867   6.621   8.226  0.0258 -0.7802 -1.6173
 9179TIP3   OH251731   4.357   3.678   7.491 -0.4791 -0.5865 -0.4658
 9179TIP3    H151732   4.386   3.602   7.541 -2.2753 -0.7293  0.4463
 9179TIP3    H251733   4.272   3.652   7.456 -1.4066  1.1598  0.3477
 9180TIP3   OH251734   6.196   4.394   5.778 -0.0511 -0.1791 -0.2035
 9180TIP3    H151735   6.277   4.426   5.819 -0.5541  1.6083 -0.4896
 9180TIP3    H251736   6.126   4.434   5.829 -0.6989  0.5837 -1.6044
 9181TIP3   OH251737   2.366   0.875   6.031  0.1155  0.0330 -0.0189
 9181TIP3    H151738   2.313   0.805   5.993 -0.2624 -0.4766  1.3874
 9181TIP3    H251739   2.453   0.837   6.041  0.1906  0.1349 -0.2827
 9182TIP3   OH251740   3.829   4.506   7.492  0.2370  0.5958  0.0472
 9182TIP3    H151741   3.748   4.552   7.513 -1.0575 -1.4197 -0.2471
 9182TIP3    H251742   3.886   4.522   7.567 -1.8966 -1.1193  2.1984
 9183TIP3   OH251743   1.062   6.119   7.695 -0.0248 -0.0102 -0.3990
 9183TIP3    H151744   1.085   6.093   7.785 -0.7497  0.2246 -0.1442
 9183TIP3    H251745   0.974   6.154   7.702 -0.1876 -0.2330 -1.2551
 9184TIP3   OH251746   0.738   5.088   8.622 -0.1979 -0.0762 -0.2529
 9184TIP3    H151747   0.766   5.149   8.554  0.1674  0.6489  0.5308
 9184TIP3    H251748   0.671   5.035   8.580 -0.9381  1.2334 -0.8007
 9185TIP3   OH251749   3.184   2.134   5.860 -0.8013 -0.0207  0.3766
 9185TIP3    H151750   3.163   2.101   5.773  1.4445  0.4968 -0.4425
 9185TIP3    H251751   3.188   2.229   5.849  0.9365 -0.0226  0.6238
 9186TIP3   OH251752   2.300   4.886   8.731  0.1497 -0.2662 -0.2646
 9186TIP3    H151753   2.261   4.922   8.651 -0.5068  0.9881  0.5887
 9186TIP3    H251754   2.226   4.849   8.779  0.6689 -1.9015 -0.6317
 9187TIP3   OH251755   2.801   4.191   7.714  0.4317  0.3113  0.2461
 9187TIP3    H151756   2.885   4.148   7.725  0.5974  1.1027  2.5313
 9187TIP3    H251757   2.764   4.196   7.802 -1.8620  0.3207 -0.6351
 9188TIP3   OH251758   0.109   5.420   7.767  0.8667  0.2769 -0.4271
 9188TIP3    H151759   0.078   5.388   7.852  0.9218  2.1280  0.3481
 9188TIP3    H251760   0.042   5.482   7.739 -0.4291 -2.0577 -3.0039
 9189TIP3   OH251761   4.307   1.838   6.576  0.0334 -0.2001  0.0980
 9189TIP3    H151762   4.314   1.893   6.654 -0.1917  0.0242 -0.0396
 9189TIP3    H251763   4.214   1.839   6.553  0.2169  0.4443 -0.6797
 9190TIP3   OH251764   0.846   6.426   6.595 -0.6287 -0.0415  0.2529
 9190TIP3    H151765   0.848   6.518   6.621 -0.1620 -0.2816  1.1162
 9190TIP3    H251766   0.775   6.387   6.647  0.1278 -0.4661  1.0062
 9191TIP3   OH251767   3.029   5.528   6.018 -0.8196  0.0564  0.1817
 9191TIP3    H151768   3.084   5.497   5.947 -1.6050  0.5651 -0.6709
 9191TIP3    H251769   3.089   5.577   6.075  0.3679 -2.6341  1.3886
 9192TIP3   OH251770   2.761   1.054   9.017 -0.7664 -0.3476  0.4226
 9192TIP3    H151771   2.734   1.037   8.927  0.2506 -2.5075  0.4606
 9192TIP3    H251772   2.829   1.121   9.011  0.1187 -1.3161 -0.5505
 9193TIP3   OH251773   3.249   4.282   7.011  0.5919  0.1582  0.2839
 9193TIP3    H151774   3.246   4.204   7.065  0.7090  0.5940  0.9305
 9193TIP3    H251775   3.327   4.270   6.956 -0.1520 -0.7992 -0.6061
 9194TIP3   OH251776   0.184   1.205   8.520  0.0811  0.0256 -0.4205
 9194TIP3    H151777   0.219   1.279   8.569 -0.5090 -1.6184  2.7808
 9194TIP3    H251778   0.093   1.229   8.501 -0.3524 -0.1469  1.3160
 9195TIP3   OH251779   5.070   2.398   8.601  0.8254  0.1600 -0.1877
 9195TIP3    H151780   5.010   2.331   8.570 -0.7645  0.9275  1.1047
 9195TIP3    H251781   5.097   2.369   8.688  0.4800  0.9234  0.1937
 9196TIP3   OH251782   3.567   2.737   6.123  0.1629  0.1980  0.1294
 9196TIP3    H151783   3.544   2.746   6.030  2.0177  2.4032 -0.2005
 9196TIP3    H251784   3.639   2.798   6.136  1.7696 -1.9703  2.4316
 9197TIP3   OH251785   1.246   2.061   6.911  0.8767 -0.0899  0.2807
 9197TIP3    H151786   1.296   2.024   6.984 -0.6337 -0.7746  1.0129
 9197TIP3    H251787   1.295   2.139   6.885  1.9424 -0.3579  1.4145
 9198TIP3   OH251788   5.134   1.078   6.963  0.1614 -0.3771  0.2093
 9198TIP3    H151789   5.132   1.133   7.041  1.8935 -1.3972  1.0300
 9198TIP3    H251790   5.151   0.990   6.995 -0.9393 -1.1489 -1.2027
 9199TIP3   OH251791   6.004   1.489   6.702  0.0747 -0.5932  0.3493
 9199TIP3    H151792   6.002   1.457   6.612 -1.3463 -1.3733  0.6344
 9199TIP3    H251793   5.993   1.583   6.694 -0.4191 -0.6985 -0.2810
 9200TIP3   OH251794   2.548   3.935   5.633  0.2875 -0.2112  0.7009
 9200TIP3    H151795   2.484   3.984   5.684 -0.5206  0.1375 -0.5798
 9200TIP3    H251796   2.511   3.847   5.626 -1.6905  0.7077 -2.5357
 9201TIP3   OH251797   5.679   2.622   8.209 -0.3817 -0.3079  0.1234
 9201TIP3    H151798   5.705   2.690   8.146 -1.0046 -1.1061 -1.0402
 9201TIP3    H251799   5.762   2.584   8.239 -0.0886 -0.3440 -0.7085
 9202TIP3   OH251800   1.660   5.883   8.976 -0.0058 -0.4417 -0.2621
 9202TIP3    H151801   1.604   5.863   9.050 -0.8850  0.4452 -0.6672
 9202TIP3    H251802   1.681   5.976   8.985  0.8126 -0.5852 -0.5217
 9203TIP3   OH251803   5.785   6.182   6.089  0.3759 -0.0653 -0.2252
 9203TIP3    H151804   5.817   6.237   6.161 -1.6135 -1.2292  1.6630
 9203TIP3    H251805   5.690   6.192   6.091  0.1207 -1.8002 -1.2902
 9204TIP3   OH251806   3.643   0.230   7.116 -0.0228  0.2027 -0.5804
 9204TIP3    H151807   3.584   0.296   7.153  0.5567  1.8743 -2.4780
 9204TIP3    H251808   3.587   0.154   7.101 -1.6609  1.5740 -1.8727
 9205TIP3   OH251809   0.047   5.998   6.488 -0.1946  0.4007  0.5865
 9205TIP3    H151810   0.037   5.916   6.537 -1.8765  1.3746  1.9742
 9205TIP3    H251811   0.098   6.054   6.547  0.8042  0.4534 -0.2916
 9206TIP3   OH251812   4.209   0.503   8.001 -0.2656  0.2356 -0.1136
 9206TIP3    H151813   4.267   0.541   8.068 -0.5022  2.7036 -1.2236
 9206TIP3    H251814   4.199   0.572   7.936 -1.6120 -1.4189 -1.7506
 9207TIP3   OH251815   2.194   5.856   5.889 -0.0286 -0.4632  0.4328
 9207TIP3    H151816   2.099   5.851   5.889 -0.0871  0.4426  0.6647
 9207TIP3    H251817   2.214   5.924   5.953  0.9854 -3.6786  3.9160
 9208TIP3   OH251818   6.085   6.478   8.073  0.0787  0.1472  0.2708
 9208TIP3    H151819   6.029   6.555   8.065  0.6701  0.6369  0.7495
 9208TIP3    H251820   6.063   6.442   8.160 -0.9748 -0.8640 -0.3835
 9209TIP3   OH251821   0.715   4.844   6.029  0.1076 -1.0025  0.0807
 9209TIP3    H151822   0.685   4.767   6.077 -0.4576 -0.3993  0.7111
 9209TIP3    H251823   0.782   4.883   6.085 -0.9184 -0.0056  0.6550
 9210TIP3   OH251824   4.677   4.428   8.658  0.2764 -0.0450  0.1785
 9210TIP3    H151825   4.688   4.361   8.591 -0.2240  1.0875 -1.0792
 9210TIP3    H251826   4.706   4.509   8.616 -3.8301  1.4771 -0.1810
 9211TIP3   OH251827   6.683   2.600   6.569  0.7079 -0.0337  0.3263
 9211TIP3    H151828   6.741   2.586   6.644  0.7090  1.2493  0.5853
 9211TIP3    H251829   6.676   2.695   6.561  0.5474 -0.1426 -1.1858
 9212TIP3   OH251830   0.030   4.283   7.821  0.8048  0.1938 -0.1515
 9212TIP3    H151831  -0.019   4.360   7.795 -0.4665 -0.3508  0.5656
 9212TIP3    H251832   0.035   4.229   7.742 -0.0137  0.1202 -0.1567
 9213TIP3   OH251833   1.817   2.214   5.750 -0.4328  0.0727 -0.9123
 9213TIP3    H151834   1.876   2.153   5.794 -0.3570  0.3444 -0.6352
 9213TIP3    H251835   1.870   2.293   5.737 -1.0683  0.7459  0.3945
 9214TIP3   OH251836   5.479   5.732   7.984 -0.4487  0.0243 -0.1556
 9214TIP3    H151837   5.479   5.759   7.893  0.5652  0.1324 -0.1409
 9214TIP3    H251838   5.557   5.774   8.021 -1.2109  0.5251  0.9234
 9215TIP3   OH251839   4.282   0.936   5.681 -0.0177  0.0537 -0.1767
 9215TIP3    H151840   4.264   0.975   5.767  1.8282  0.0334  0.2531
 9215TIP3    H251841   4.197   0.901   5.653 -0.8912  0.9975  1.1455
 9216TIP3   OH251842   0.435   0.564   6.748 -0.3200  0.1601  0.3099
 9216TIP3    H151843   0.342   0.586   6.751 -0.2920  0.2009  2.1957
 9216TIP3    H251844   0.440   0.485   6.695 -1.4105  0.2530  0.0471
 9217TIP3   OH251845   1.337   3.702   7.549 -0.2540  0.1852 -0.1324
 9217TIP3    H151846   1.354   3.625   7.494 -0.8476 -0.9763  1.2561
 9217TIP3    H251847   1.257   3.739   7.514  0.5495  0.7728 -1.4219
 9218TIP3   OH251848   1.295   0.668   6.284  0.7382  0.2534 -0.7254
 9218TIP3    H151849   1.360   0.624   6.338  1.1538  1.2071 -0.4260
 9218TIP3    H251850   1.321   0.761   6.286  0.9155  0.2946 -2.7376
 9219TIP3   OH251851   3.197   1.042   6.503  0.5046 -0.0282 -0.3751
 9219TIP3    H151852   3.192   0.964   6.559  0.9170  0.8309  0.9223
 9219TIP3    H251853   3.264   1.020   6.438  1.9888 -0.1363  1.0913
 9220TIP3   OH251854   2.325   5.717   6.785 -0.3096  0.4426  0.2026
 9220TIP3    H151855   2.289   5.795   6.826 -1.7360 -0.2866  0.4052
 9220TIP3    H251856   2.257   5.689   6.723  0.9908  0.4481 -1.2781
 9221TIP3   OH251857   1.027   5.481   7.479 -0.1139  0.0813 -0.5922
 9221TIP3    H151858   1.012   5.389   7.456  1.1230 -0.6407  1.2439
 9221TIP3    H251859   0.952   5.527   7.443 -0.3995 -1.5263 -2.2059
 9222TIP3   OH251860   2.815   5.374   7.489  0.3317  0.0117 -0.3677
 9222TIP3    H151861   2.731   5.388   7.446  0.4096 -0.1585 -0.5780
 9222TIP3    H251862   2.792   5.358   7.581  0.0763 -0.6981 -0.5453
 9223TIP3   OH251863   6.526   5.362   6.978  0.1185  0.0810  0.0764
 9223TIP3    H151864   6.604   5.415   6.962  0.6477 -0.2927  1.2659
 9223TIP3    H251865   6.559   5.286   7.026 -0.5898 -1.4463 -1.7603
 9224TIP3   OH251866   1.502   4.410   7.464 -0.5253 -0.3579 -0.0818
 9224TIP3    H151867   1.412   4.382   7.453 -0.9376  0.4927  0.9749
 9224TIP3    H251868   1.551   4.329   7.481 -1.5171 -0.5949  1.8911
 9225TIP3   OH251869   1.263   1.724   6.189 -0.0233  0.0807  0.1214
 9225TIP3    H151870   1.268   1.794   6.254 -3.5109  0.3685  0.3110
 9225TIP3    H251871   1.304   1.761   6.111 -0.5493  1.8481  0.6276
 9226TIP3   OH251872   3.114   3.159   6.343 -0.0080  0.1054  0.4207
 9226TIP3    H151873   3.195   3.179   6.390  0.0738 -2.1839  1.3866
 9226TIP3    H251874   3.045   3.193   6.400  0.2015  0.3886  0.5116
 9227TIP3   OH251875   1.297   0.274   8.361  0.1754 -0.5302 -0.0717
 9227TIP3    H151876   1.359   0.227   8.305  0.0574 -0.8354  0.0555
 9227TIP3    H251877   1.330   0.262   8.450 -0.6438 -1.5811  0.1027
 9228TIP3   OH251878   0.439   0.482   7.032 -0.4143 -0.1048  0.4437
 9228TIP3    H151879   0.498   0.548   7.069  0.4281 -1.6249  1.9159
 9228TIP3    H251880   0.444   0.498   6.937  1.4572  0.5807  0.5968
 9229TIP3   OH251881   2.273   1.668   8.438 -0.1025  0.5384 -0.0177
 9229TIP3    H151882   2.185   1.705   8.448 -0.2542  0.2446 -0.2635
 9229TIP3    H251883   2.314   1.682   8.523 -0.4293  0.5640  0.1378
 9230TIP3   OH251884   6.424   3.197   7.720  0.1246 -0.3475 -0.2283
 9230TIP3    H151885   6.334   3.218   7.695  0.6983  1.3886 -0.9611
 9230TIP3    H251886   6.417   3.110   7.760 -1.5964 -1.1329 -2.0100
 9231TIP3   OH251887   6.224   6.519   7.036 -0.1252 -0.0471 -0.4183
 9231TIP3    H151888   6.259   6.509   7.124  0.4503  0.4208 -0.5832
 9231TIP3    H251889   6.226   6.431   6.998  1.6014  0.0842 -0.6823
 9232TIP3   OH251890   2.833   6.707   6.330 -0.1361 -0.0615  0.0700
 9232TIP3    H151891   2.772   6.778   6.313 -0.4218 -0.1768  0.5906
 9232TIP3    H251892   2.903   6.719   6.265  0.1239  1.0487  0.5268
 9233TIP3   OH251893   2.589   5.631   8.564  0.3616  0.2287  0.0119
 9233TIP3    H151894   2.664   5.677   8.527 -1.2235  1.9734 -1.2091
 9233TIP3    H251895   2.565   5.681   8.642  0.8814 -0.7505  0.8184
 9234TIP3   OH251896   1.399   5.403   8.489 -0.4094  0.1978 -0.7112
 9234TIP3    H151897   1.396   5.409   8.394  0.2325 -1.6537 -0.8815
 9234TIP3    H251898   1.315   5.364   8.514 -1.3525  2.3468 -0.3144
 9235TIP3   OH251899   2.928   6.137   8.587 -0.1436  0.6683  0.3036
 9235TIP3    H151900   2.928   6.097   8.673 -1.9346 -1.3087 -0.5205
 9235TIP3    H251901   2.888   6.223   8.600 -3.5294 -0.8448  1.0749
 9236TIP3   OH251902   3.273   4.865   8.330 -0.0689  0.1430  0.0360
 9236TIP3    H151903   3.300   4.956   8.343 -1.4289  0.3827  1.6223
 9236TIP3    H251904   3.351   4.814   8.353  0.5531  0.8892 -0.3576
 9237TIP3   OH251905   5.927   5.532   7.761 -0.3410  0.1917  0.2097
 9237TIP3    H151906   5.934   5.468   7.832 -0.7663  0.5069  0.5456
 9237TIP3    H251907   5.846   5.508   7.715  0.7555 -1.0030 -1.1844
 9238TIP3   OH251908   2.778   6.438   7.162 -0.1030  0.3061 -0.6639
 9238TIP3    H151909   2.691   6.460   7.128  0.6932  1.7221 -1.8841
 9238TIP3    H251910   2.836   6.444   7.086  0.9577 -1.4231 -0.0421
 9239TIP3   OH251911   2.778   2.228   8.063 -0.3599  0.1990 -0.0049
 9239TIP3    H151912   2.841   2.298   8.051  0.9583 -1.2546 -2.2512
 9239TIP3    H251913   2.713   2.241   7.993 -0.9675  0.0536  0.5174
 9240TIP3   OH251914   1.083   5.409   8.030 -0.0255 -0.1643  0.0618
 9240TIP3    H151915   0.989   5.403   8.015  0.1028 -3.5534 -0.2087
 9240TIP3    H251916   1.120   5.433   7.946 -0.5797 -0.0821 -0.1602
 9241TIP3   OH251917   3.770   3.130   5.721  0.1207 -0.3108 -0.0944
 9241TIP3    H151918   3.787   3.079   5.642  0.2823  1.0595 -0.9802
 9241TIP3    H251919   3.733   3.068   5.782  0.7507 -1.5860 -0.9677
 9242TIP3   OH251920   5.916   0.175   5.999  0.1382 -0.1749  0.2641
 9242TIP3    H151921   5.963   0.242   5.950  0.6757 -0.2990  0.5949
 9242TIP3    H251922   5.985   0.127   6.046 -0.5068  2.0811  3.8749
 9243TIP3   OH251923   0.218   0.164   7.578 -0.3375  0.0998  0.2362
 9243TIP3    H151924   0.169   0.096   7.624 -0.4191  0.8801  1.3306
 9243TIP3    H251925   0.164   0.185   7.502  0.4104 -2.1134 -1.0140
 9244TIP3   OH251926   0.551   0.972   6.293 -0.3133  0.0868  0.4759
 9244TIP3    H151927   0.540   0.898   6.353  0.1197 -1.3647 -1.1587
 9244TIP3    H251928   0.528   0.936   6.207 -0.2436  1.9191 -0.3353
 9245TIP3   OH251929   2.873   3.236   8.177 -0.3232  0.1211  0.1086
 9245TIP3    H151930   2.836   3.237   8.089 -2.6891  0.9374  1.0292
 9245TIP3    H251931   2.909   3.148   8.187  0.1916  0.0795 -1.7119
 9246TIP3   OH251932   3.857   6.432   7.417 -0.0051 -0.6645 -0.0890
 9246TIP3    H151933   3.785   6.425   7.480  0.6033 -3.2147  0.4555
 9246TIP3    H251934   3.899   6.346   7.419  3.7346  0.9745  0.4084
 9247TIP3   OH251935   1.649   4.631   7.593  0.1447  0.2403  0.5641
 9247TIP3    H151936   1.611   4.717   7.576  1.9971  0.8991 -0.5911
 9247TIP3    H251937   1.608   4.573   7.530 -0.4832  0.4643  0.7643
 9248TIP3   OH251938   4.710   5.079   6.150 -0.0963  0.1163  0.0418
 9248TIP3    H151939   4.750   5.116   6.229  0.1711  0.8787 -0.4464
 9248TIP3    H251940   4.783   5.066   6.090 -0.4545  0.6899 -0.5302
 9249TIP3   OH251941   1.736   4.317   7.075  0.4187  0.1962 -0.0384
 9249TIP3    H151942   1.780   4.276   7.001 -0.0952  0.0791 -0.2843
 9249TIP3    H251943   1.670   4.253   7.102 -1.9502  1.7302 -1.8675
 9250TIP3   OH251944   5.063   0.632   8.529 -0.1500 -0.0095  0.4189
 9250TIP3    H151945   5.009   0.705   8.499  0.4922  0.2034 -0.2644
 9250TIP3    H251946   5.022   0.603   8.611 -0.9099  0.5558  0.2502
 9251TIP3   OH251947   1.952   0.551   7.417 -0.4713 -0.1766 -0.7201
 9251TIP3    H151948   1.919   0.465   7.390  0.7853 -0.3047 -1.9355
 9251TIP3    H251949   2.027   0.567   7.360  0.2071  1.0875  0.4698
 9252TIP3   OH251950   2.465   0.250   8.756 -0.0689  0.3851 -0.2831
 9252TIP3    H151951   2.479   0.209   8.842 -1.4334 -2.8480 -1.4629
 9252TIP3    H251952   2.373   0.276   8.756 -0.1734  0.0264 -0.8907
 9253TIP3   OH251953   4.101   0.368   5.951  0.3591 -0.1874 -0.1799
 9253TIP3    H151954   4.115   0.462   5.948  1.0376 -0.3059 -2.6960
 9253TIP3    H251955   4.014   0.355   5.913  0.9547 -0.6617 -1.4206
 9254TIP3   OH251956   1.651   5.938   8.459  0.2036  0.0811 -0.2776
 9254TIP3    H151957   1.657   5.875   8.387  1.0172 -1.2066  0.8768
 9254TIP3    H251958   1.675   6.021   8.419 -0.7133 -0.3280 -1.8031
 9255TIP3   OH251959   1.100   5.418   8.515  0.8344  0.4230  0.2858
 9255TIP3    H151960   1.084   5.342   8.572  0.8566 -0.1657 -0.4802
 9255TIP3    H251961   1.095   5.493   8.574 -2.7644  0.1924  0.4929
 9256TIP3   OH251962   0.390   3.079   5.678  0.4413 -0.2215 -0.1348
 9256TIP3    H151963   0.352   2.991   5.668 -2.4188  1.0681 -1.6578
 9256TIP3    H251964   0.408   3.108   5.589  1.2853  0.8101  0.3452
 9257TIP3   OH251965   0.511   1.966   6.326  0.4997 -0.1316 -0.0726
 9257TIP3    H151966   0.520   1.972   6.231 -1.0655  0.4944 -0.2135
 9257TIP3    H251967   0.589   1.917   6.355  1.7601  0.9511 -1.4970
 9258TIP3   OH251968   6.466   5.628   6.544 -0.2170  0.3006  0.0545
 9258TIP3    H151969   6.390   5.577   6.572  0.3645 -0.2089  0.7826
 9258TIP3    H251970   6.450   5.716   6.579 -0.5479  0.2376  0.0665
 9259TIP3   OH251971   1.183   5.782   8.154  0.8691  0.7997 -0.0394
 9259TIP3    H151972   1.152   5.705   8.202  1.9237  0.5278  0.2196
 9259TIP3    H251973   1.267   5.756   8.117  1.5197  1.9895  0.5283
 9260TIP3   OH251974   4.097   6.311   5.833  0.0789 -0.2381 -0.1433
 9260TIP3    H151975   4.142   6.385   5.875  2.2509 -0.4520 -1.9439
 9260TIP3    H251976   4.081   6.341   5.744 -3.4412 -0.2145  0.3620
 9261TIP3   OH251977   5.512   2.036   8.834 -0.2982 -0.4734 -0.2311
 9261TIP3    H151978   5.479   2.125   8.825  1.2187  0.0985 -0.3168
 9261TIP3    H251979   5.469   1.988   8.762 -0.5535  0.3492 -0.6430
 9262TIP3   OH251980   1.114   6.114   6.407 -0.3973 -0.1729  0.0472
 9262TIP3    H151981   1.077   6.112   6.495 -1.3233 -0.4613 -0.3405
 9262TIP3    H251982   1.072   6.188   6.364 -0.7672 -0.6820 -0.4909
 9263TIP3   OH251983   4.061   3.429   8.985 -0.1100 -0.1655  0.1427
 9263TIP3    H151984   4.009   3.405   9.062  0.1878  0.5849  0.5963
 9263TIP3    H251985   4.142   3.465   9.021 -0.5788  1.6198 -0.4550
 9264TIP3   OH251986   3.533   3.991   5.660  0.0770  0.1533  0.5783
 9264TIP3    H151987   3.528   4.079   5.697 -0.7617  0.4681 -0.2449
 9264TIP3    H251988   3.458   3.945   5.697  0.0493  0.0399  0.3815
 9265TIP3   OH251989   0.589   0.266   6.641 -0.2553  0.2726  0.1076
 9265TIP3    H151990   0.565   0.256   6.549  2.1485  0.0867 -0.5710
 9265TIP3    H251991   0.537   0.200   6.687 -0.4314 -0.6469 -1.3375
 9266TIP3   OH251992   2.991   0.567   6.751 -0.9051 -0.4243 -0.0262
 9266TIP3    H151993   2.948   0.511   6.816  0.9179 -0.9330  0.8051
 9266TIP3    H251994   2.931   0.567   6.677 -2.9576  0.0056  1.5422
 9267TIP3   OH251995   3.368   2.602   6.777  0.4363  0.1065 -0.2878
 9267TIP3    H151996   3.443   2.661   6.766  1.4646 -1.0061  0.5323
 9267TIP3    H251997   3.406   2.518   6.799 -1.0680 -0.4842  0.2047
 9268TIP3   OH251998   0.552   0.697   7.160  0.0807 -0.2526 -0.4674
 9268TIP3    H151999   0.597   0.709   7.244  0.0072 -1.7731 -0.1804
 9268TIP3    H252000   0.497   0.775   7.151  1.1546  0.6094  0.2028
 9269TIP3   OH252001   6.157   5.110   6.569 -0.5260  0.4973  0.3928
 9269TIP3    H152002   6.142   5.092   6.476  1.1791  0.1131  0.1717
 9269TIP3    H252003   6.141   5.027   6.613  0.8011  0.1016  0.1637
 9270TIP3   OH252004   5.999   3.684   7.955  0.2736  0.0747 -0.1044
 9270TIP3    H152005   6.006   3.683   7.860 -0.0263 -1.4235 -0.1271
 9270TIP3    H252006   5.906   3.695   7.973  0.4460  1.6104  0.0643
 9271TIP3   OH252007   2.805   1.183   7.769 -0.4077 -0.0867  0.2952
 9271TIP3    H152008   2.738   1.132   7.815 -0.1673 -1.2703 -0.6025
 9271TIP3    H252009   2.769   1.196   7.681 -0.2035  0.8019  0.3367
 9272TIP3   OH252010   3.233   3.513   8.947 -0.2661  0.6173 -0.3201
 9272TIP3    H152011   3.271   3.558   9.023 -0.6791  1.9329 -0.8642
 9272TIP3    H252012   3.241   3.420   8.968 -1.2991  0.9410  1.7905
 9273TIP3   OH252013   4.408   2.496   7.167 -0.0841  0.1933 -0.5182
 9273TIP3    H152014   4.454   2.419   7.132  0.6512  1.1698 -1.8180
 9273TIP3    H252015   4.406   2.482   7.261  2.5595 -0.1142 -0.4324
 9274TIP3   OH252016   6.237   0.699   5.962  0.7596 -0.2765  0.0664
 9274TIP3    H152017   6.307   0.764   5.977  2.0991 -1.9210  1.3145
 9274TIP3    H252018   6.216   0.666   6.049  0.1986 -1.6183 -0.5574
 9275TIP3   OH252019   5.724   3.348   7.131  0.8028 -1.0953 -0.1192
 9275TIP3    H152020   5.790   3.280   7.119 -0.5530 -2.3764 -0.6935
 9275TIP3    H252021   5.641   3.300   7.131 -0.0836  0.3497  1.5772
 9276TIP3   OH252022   2.854   1.464   6.829  0.1577  0.1618 -0.0051
 9276TIP3    H152023   2.758   1.469   6.833  0.1200  0.5294 -0.9448
 9276TIP3    H252024   2.884   1.513   6.906 -0.4081  0.5924 -0.0500
 9277TIP3   OH252025   3.658   4.330   8.046  0.2827  0.2475 -0.2768
 9277TIP3    H152026   3.676   4.381   7.967  0.2343 -1.5831 -1.5153
 9277TIP3    H252027   3.563   4.325   8.050  0.2994 -1.3019 -1.2355
 9278TIP3   OH252028   4.960   3.644   5.630 -0.2446 -0.2860  0.4754
 9278TIP3    H152029   5.002   3.730   5.617  0.7424 -0.5544  1.6957
 9278TIP3    H252030   5.033   3.585   5.648 -1.0600 -1.0363  1.3985
 9279TIP3   OH252031   4.656   1.520   5.767  0.2624  0.4990  0.1510
 9279TIP3    H152032   4.591   1.545   5.702  1.2128  0.9995 -0.6449
 9279TIP3    H252033   4.617   1.447   5.814  0.2000 -0.9905 -2.0916
 9280TIP3   OH252034   4.218   4.676   9.945  0.8552  0.3872  0.1838
 9280TIP3    H152035   4.201   4.764   9.913 -1.8959 -0.7207 -1.7555
 9280TIP3    H252036   4.271   4.635   9.877 -2.2101 -0.9342 -1.6120
 9281TIP3   OH252037   3.047   2.361   7.062 -0.8260  0.3359  0.4227
 9281TIP3    H152038   3.112   2.299   7.093 -1.4353 -1.9733 -2.4721
 9281TIP3    H252039   2.968   2.342   7.113 -0.6083 -0.3319  0.5067
 9282TIP3   OH252040   4.129   2.537   9.014  0.4543  0.3485 -0.0643
 9282TIP3    H152041   4.085   2.460   8.978 -0.8513  0.0882  1.9052
 9282TIP3    H252042   4.058   2.597   9.038  1.1312  0.2728  2.4775
 9283TIP3   OH252043   5.714   6.242   7.776  0.4733  0.0292  0.0084
 9283TIP3    H152044   5.661   6.319   7.756 -0.3066 -0.9292 -1.8959
 9283TIP3    H252045   5.785   6.244   7.712 -0.3894 -1.5679 -1.0841
 9284TIP3   OH252046   0.830   4.529   6.480 -0.2691 -0.4153  0.1314
 9284TIP3    H152047   0.850   4.565   6.394 -0.5672 -2.2758 -0.7644
 9284TIP3    H252048   0.741   4.561   6.499  0.2716  1.0509  0.3868
 9285TIP3   OH252049   0.887   1.970   5.745 -0.1006  0.1243  0.4993
 9285TIP3    H152050   0.845   1.892   5.780  0.6229 -1.0283 -1.0909
 9285TIP3    H252051   0.972   1.974   5.788  0.0150 -0.1923  0.3022
 9286TIP3   OH252052   5.266   3.306   7.562 -0.3927 -0.3556  0.5034
 9286TIP3    H152053   5.335   3.293   7.497 -0.8031 -0.3256  0.0547
 9286TIP3    H252054   5.302   3.270   7.643  0.9588  1.4878  0.7918
 9287TIP3   OH252055   5.986   6.232   7.642  0.1526 -0.0981  0.2826
 9287TIP3    H152056   5.996   6.168   7.712 -0.8113 -0.9849 -0.3705
 9287TIP3    H252057   5.985   6.181   7.561 -0.2695  0.7724 -0.2864
 9288TIP3   OH252058   4.374   4.402   6.021 -0.0769 -0.1199 -0.1973
 9288TIP3    H152059   4.447   4.346   6.049 -0.7340 -0.8765  0.0468
 9288TIP3    H252060   4.355   4.374   5.931 -0.1745 -0.0491 -0.1991
 9289TIP3   OH252061   6.512   2.970   6.918 -0.1611 -0.3374  0.6951
 9289TIP3    H152062   6.437   2.919   6.948 -1.5713  1.6798  0.8652
 9289TIP3    H252063   6.570   2.974   6.994 -0.1571 -1.3991  0.7646
 9290TIP3   OH252064   5.118   6.017   9.208  0.1853 -0.1230 -0.2085
 9290TIP3    H152065   5.206   5.988   9.231  0.7472  2.4389  1.3366
 9290TIP3    H252066   5.061   5.944   9.234  1.6541 -0.8620  1.1280
 9291TIP3   OH252067   4.801   1.199   5.933  0.2690  0.1990 -0.6568
 9291TIP3    H152068   4.887   1.163   5.909 -0.3492 -2.2430  0.4916
 9291TIP3    H252069   4.821   1.279   5.982  1.8133  0.4175 -1.5638
 9292TIP3   OH252070   1.552   4.157   6.460 -0.5380 -0.5273 -0.8473
 9292TIP3    H152071   1.524   4.104   6.535  0.1007 -0.6234 -0.6660
 9292TIP3    H252072   1.480   4.152   6.398 -0.8673 -0.8578 -0.4442
 9293TIP3   OH252073   3.645   3.461   8.682 -0.5856 -0.3222  0.1803
 9293TIP3    H152074   3.724   3.410   8.697  0.6180  0.9798 -1.3418
 9293TIP3    H252075   3.599   3.460   8.766  1.4884 -0.3929  1.3708
 9294TIP3   OH252076   5.538   6.303   6.608 -0.6656  0.1560  0.4230
 9294TIP3    H152077   5.482   6.274   6.680 -2.1255  2.0082  0.1071
 9294TIP3    H252078   5.516   6.244   6.536 -0.0504 -0.9541  1.0975
 9295TIP3   OH252079   6.218   4.983   5.979 -0.4231 -0.3741  0.2311
 9295TIP3    H152080   6.201   4.893   5.951 -1.0461 -1.0045  2.4557
 9295TIP3    H252081   6.140   5.032   5.951  0.5236 -0.1233 -2.2682
 9296TIP3   OH252082   3.541   2.926   8.467 -0.3094  0.2659 -0.3822
 9296TIP3    H152083   3.590   2.844   8.474 -0.0926  0.5223  2.3848
 9296TIP3    H252084   3.584   2.985   8.530 -2.5142  1.3687  0.1977
 9297TIP3   OH252085   5.603   3.157   6.671 -0.2370  0.0916 -0.7300
 9297TIP3    H152086   5.641   3.095   6.733 -0.0330  1.1747  0.2634
 9297TIP3    H252087   5.509   3.155   6.690 -0.6639 -2.0482 -2.6952
 9298TIP3   OH252088   2.862   5.704   8.458 -0.1822  0.2973  0.2806
 9298TIP3    H152089   2.932   5.768   8.457 -0.2396  0.4030  1.5917
 9298TIP3    H252090   2.889   5.639   8.522 -0.4027 -0.6832 -0.5947
 9299TIP3   OH252091   1.496   3.855   6.338  0.1774  0.1025 -0.1743
 9299TIP3    H152092   1.402   3.871   6.339  0.2354  0.4491 -0.0831
 9299TIP3    H252093   1.505   3.760   6.325 -0.1847  0.0233  0.1486
 9300TIP3   OH252094   0.433   5.029   7.741 -0.4802 -0.0339  0.4672
 9300TIP3    H152095   0.488   5.081   7.800 -1.6059  1.2548  0.4242
 9300TIP3    H252096   0.359   5.086   7.721 -1.0130 -1.1208 -0.7823
 9301TIP3   OH252097   1.212   4.337   7.567  0.0958  0.0884  0.3182
 9301TIP3    H152098   1.123   4.367   7.585  0.1134  0.2249  0.1790
 9301TIP3    H252099   1.217   4.250   7.608 -0.3927 -0.3063 -0.4442
 9302TIP3   OH252100   6.359   3.941   6.918  0.0736  0.2825 -0.1096
 9302TIP3    H152101   6.350   3.901   7.004  1.5261  0.1340  0.0107
 9302TIP3    H252102   6.270   3.963   6.891 -0.7617 -2.6169  0.0145
 9303TIP3   OH252103   5.754   2.871   5.763  0.1144  0.4552 -0.2692
 9303TIP3    H152104   5.783   2.944   5.819  2.7084 -0.5313 -0.1679
 9303TIP3    H252105   5.827   2.809   5.765 -1.6660 -1.8109 -1.0009
 9304TIP3   OH252106   0.948   3.060   6.639  0.8746  0.4059  0.1393
 9304TIP3    H152107   0.963   3.107   6.721  0.3605 -0.0897  0.5257
 9304TIP3    H252108   0.853   3.062   6.628  0.9723  0.8781 -0.6966
 9305TIP3   OH252109   3.126   3.341   7.903 -0.3851 -0.1426 -0.2561
 9305TIP3    H152110   3.152   3.252   7.929  1.7850  0.1500 -1.2468
 9305TIP3    H252111   3.094   3.381   7.984 -1.2936 -1.7708  0.2286
 9306TIP3   OH252112   6.198   6.200   6.033 -0.4480  0.0370 -0.3772
 9306TIP3    H152113   6.284   6.231   6.061 -0.4711  0.3621 -0.6562
 9306TIP3    H252114   6.207   6.105   6.029  0.1543  0.1189 -1.2132
 9307TIP3   OH252115   0.486   4.636   9.283 -0.2844  0.1954 -0.7255
 9307TIP3    H152116   0.396   4.615   9.259 -0.7384  0.7912  0.3725
 9307TIP3    H252117   0.492   4.615   9.376  0.6643  0.3339 -0.7400
 9308TIP3   OH252118   1.435   5.963   6.120  0.3960 -0.2783  0.4581
 9308TIP3    H152119   1.517   6.000   6.088  0.9729 -0.3647  1.7639
 9308TIP3    H252120   1.462   5.899   6.187 -0.7262 -0.1462  1.0589
 9309TIP3   OH252121   0.581   4.836   7.894 -0.1696  0.1834  0.4234
 9309TIP3    H152122   0.572   4.805   7.984 -1.2128  2.5246  1.2147
 9309TIP3    H252123   0.491   4.846   7.863  0.1257  1.5035 -0.0670
 9310TIP3   OH252124   2.698   3.050   9.233 -0.1064  0.0735  0.1973
 9310TIP3    H152125   2.761   3.026   9.302 -1.1285 -2.6442  0.3028
 9310TIP3    H252126   2.615   3.012   9.263 -0.8814  0.0253 -1.8960
 9311TIP3   OH252127   4.568   5.370   8.080 -0.0440  0.0336 -0.0069
 9311TIP3    H152128   4.571   5.337   8.170  0.8674 -0.0787 -0.0738
 9311TIP3    H252129   4.488   5.333   8.044 -0.4824  0.1720  0.7935
 9312TIP3   OH252130   4.134   0.475   7.323 -0.0430  0.2199 -0.5447
 9312TIP3    H152131   4.053   0.425   7.334  0.7621 -0.9565  0.3835
 9312TIP3    H252132   4.178   0.467   7.408  1.9089 -0.8114 -1.5887
 9313TIP3   OH252133   5.415   2.299   7.600  0.1515 -0.0247 -0.2622
 9313TIP3    H152134   5.361   2.358   7.653  0.0265 -0.2710 -0.1130
 9313TIP3    H252135   5.472   2.256   7.664 -1.2402 -1.6790 -0.0566
 9314TIP3   OH252136   1.168   2.099   6.641  0.2423  0.0124  0.0528
 9314TIP3    H152137   1.238   2.148   6.598  2.1619 -2.1795  0.5201
 9314TIP3    H252138   1.200   2.083   6.730  0.0255 -2.6194 -0.2774
 9315TIP3   OH252139   3.007   4.172   6.687 -0.0591  0.3879 -0.2478
 9315TIP3    H152140   2.970   4.087   6.712 -2.3048  1.4495  0.3206
 9315TIP3    H252141   2.933   4.233   6.691  0.7031  1.8184 -3.7420
 9316TIP3   OH252142   2.104   6.565   8.178  0.7296  0.2928 -0.2639
 9316TIP3    H152143   2.079   6.472   8.175  1.1053  0.0815  1.9066
 9316TIP3    H252144   2.056   6.600   8.253  1.6418  1.5319 -0.2412
 9317TIP3   OH252145   0.697   5.798   9.174  0.5864  0.2710 -0.1812
 9317TIP3    H152146   0.625   5.764   9.122  0.7979  0.6610 -0.7386
 9317TIP3    H252147   0.665   5.796   9.265 -0.6967  1.8047 -0.5450
 9318TIP3   OH252148   1.616   1.745   8.469 -0.1715 -0.2081  0.1290
 9318TIP3    H152149   1.529   1.728   8.432  0.2784  0.2909 -1.2104
 9318TIP3    H252150   1.632   1.671   8.528 -1.3551 -0.4866  0.1180
 9319TIP3   OH252151   5.112   5.657   6.643 -0.4567 -0.1845  0.3967
 9319TIP3    H152152   5.189   5.692   6.599  0.2043 -2.4819 -0.4368
 9319TIP3    H252153   5.127   5.676   6.736  0.3238  0.8261  0.0779
 9320TIP3   OH252154   5.220   5.028   8.615 -0.1484 -0.2757  0.5000
 9320TIP3    H152155   5.134   4.986   8.623  0.1432 -1.1833 -0.8313
 9320TIP3    H252156   5.281   4.955   8.605  0.5783  0.4161 -0.1645
 9321TIP3   OH252157   2.617   6.097   6.258 -0.7020  0.1516  0.5300
 9321TIP3    H152158   2.568   6.023   6.223  0.7749 -0.9185  0.6587
 9321TIP3    H252159   2.666   6.131   6.183  0.7240 -0.7384  1.0204
 9322TIP3   OH252160   1.380   1.968   5.682  0.2314  0.1720 -0.2335
 9322TIP3    H152161   1.314   2.037   5.686 -0.3977 -0.3706  4.1350
 9322TIP3    H252162   1.463   2.014   5.679 -0.2387  1.0000 -0.9059
 9323TIP3   OH252163   1.008   6.719   6.353  0.0150  0.1360 -0.0739
 9323TIP3    H152164   1.022   6.671   6.271  1.6327  2.0716 -1.0047
 9323TIP3    H252165   0.953   6.793   6.329 -0.9423 -0.2182  0.9683
 9324TIP3   OH252166   2.940   5.301   6.662 -0.1624  0.2596  0.4019
 9324TIP3    H152167   2.966   5.378   6.611  0.8385 -0.0284  0.4709
 9324TIP3    H252168   3.006   5.293   6.730  0.8725 -1.7926 -0.7592
 9325TIP3   OH252169   3.233   6.268   8.210  0.1776 -0.1786  0.2653
 9325TIP3    H152170   3.168   6.271   8.139  0.0715  0.4581  0.3809
 9325TIP3    H252171   3.190   6.311   8.284 -0.5083 -2.6695  1.4305
 9326TIP3   OH252172   5.118   1.006   6.140 -0.2924  0.3321  0.2619
 9326TIP3    H152173   5.191   1.066   6.155  0.7114 -0.4942 -1.1270
 9326TIP3    H252174   5.044   1.064   6.121  0.9072  1.2065 -2.1662
 9327TIP3   OH252175   5.066   0.798   5.962  0.2307 -0.3063 -0.1966
 9327TIP3    H152176   5.032   0.721   6.009  1.1427 -0.4427  0.2804
 9327TIP3    H252177   5.065   0.868   6.027  1.5014 -0.4943  0.0573
 9328TIP3   OH252178   2.552   5.906   7.151  0.2396  0.0135 -0.3760
 9328TIP3    H152179   2.627   5.941   7.199  0.5817  0.2963 -1.1012
 9328TIP3    H252180   2.494   5.981   7.139  0.0566 -0.1031 -0.2236
 9329TIP3   OH252181   6.443   4.727   6.931 -0.3507 -0.2972  0.0943
 9329TIP3    H152182   6.475   4.767   6.850  1.4173 -0.2594  0.7795
 9329TIP3    H252183   6.465   4.634   6.922 -0.0390 -0.2732  0.5786
 9330TIP3   OH252184   3.428   3.690   7.495  0.5151  0.0434  0.3784
 9330TIP3    H152185   3.474   3.771   7.474  0.3106 -0.1445 -0.8741
 9330TIP3    H252186   3.346   3.695   7.445  1.9820 -2.4471 -2.6266
 9331TIP3   OH252187   3.002   1.248   6.513 -0.1357  0.2884  0.4829
 9331TIP3    H152188   2.955   1.165   6.515 -0.4543  0.4269 -0.6649
 9331TIP3    H252189   3.038   1.257   6.601 -1.7512 -0.1069  1.2267
 9332TIP3   OH252190   2.544   2.056   5.707  0.4509  0.3025  0.0588
 9332TIP3    H152191   2.633   2.066   5.739  0.2312 -1.5567  1.3390
 9332TIP3    H252192   2.541   1.968   5.670 -0.2066  1.2278 -2.2707
 9333TIP3   OH252193   0.072   4.473   8.293  0.7228 -0.2746  0.4358
 9333TIP3    H152194  -0.022   4.480   8.276  0.4857 -0.8800  1.4224
 9333TIP3    H252195   0.092   4.380   8.280  0.9960 -0.3196  1.1573
 9334TIP3   OH252196   4.517   1.258   6.255  0.1449 -0.2850  0.4009
 9334TIP3    H152197   4.533   1.293   6.342  1.9977  0.8671 -0.3249
 9334TIP3    H252198   4.600   1.215   6.231 -0.6824 -1.4959 -0.3940
 9335TIP3   OH252199   1.258   2.207   5.713  0.3228  0.6027 -0.2384
 9335TIP3    H152200   1.205   2.265   5.768 -0.6162 -0.5155  0.0753
 9335TIP3    H252201   1.283   2.261   5.638  1.2646  2.0354  1.0464
 9336TIP3   OH252202   0.882   6.116   8.054 -0.4225 -0.2569  0.0439
 9336TIP3    H152203   0.949   6.181   8.075  0.9396 -0.8602 -2.1758
 9336TIP3    H252204   0.808   6.167   8.022  0.7925  0.2556 -2.1093
 9337TIP3   OH252205   2.361   5.444   6.173  0.4956 -0.5208 -0.3092
 9337TIP3    H152206   2.325   5.530   6.150  1.9279 -0.1620 -1.2694
 9337TIP3    H252207   2.453   5.460   6.191  0.0868 -1.2308  3.2009
 9338TIP3   OH252208   0.021   1.509   6.302  0.4535  0.2208 -0.5788
 9338TIP3    H152209   0.112   1.526   6.327  0.6279 -1.7873  0.3207
 9338TIP3    H252210  -0.030   1.557   6.368  0.9068 -0.9829  0.7029
 9339TIP3   OH252211   3.602   3.472   7.568 -0.6034  0.1533  0.4797
 9339TIP3    H152212   3.543   3.545   7.549 -1.3358 -0.1120  1.6695
 9339TIP3    H252213   3.570   3.436   7.650  0.2068 -1.0512  0.2838
 9340TIP3   OH252214   5.681   1.812   8.818  0.3356 -0.3445 -0.5159
 9340TIP3    H152215   5.684   1.842   8.727  1.9579  1.3553  0.0273
 9340TIP3    H252216   5.626   1.876   8.863 -0.3243 -1.0788 -0.2477
 9341TIP3   OH252217   4.959   5.896   6.696  0.2281  0.5601 -0.5459
 9341TIP3    H152218   4.995   5.811   6.672  0.2502  0.8390 -1.5258
 9341TIP3    H252219   4.878   5.876   6.743  0.6188 -0.0149 -0.1102
 9342TIP3   OH252220   6.660   6.016   8.269 -0.4870  0.0735  0.0143
 9342TIP3    H152221   6.687   6.085   8.330  1.5302 -0.7121  0.0915
 9342TIP3    H252222   6.720   5.944   8.287 -0.4334 -0.5283 -2.2950
 9343TIP3   OH252223   0.752   2.014   7.687  0.4179 -0.1638 -0.6717
 9343TIP3    H152224   0.823   2.069   7.654  0.5920 -0.6674 -1.1390
 9343TIP3    H252225   0.731   2.052   7.773  2.0911 -0.7505  0.0408
 9344TIP3   OH252226   0.223   4.989   7.021  0.1776 -0.5178  1.0673
 9344TIP3    H152227   0.256   5.074   6.993  1.0674 -0.8900  0.9497
 9344TIP3    H252228   0.151   5.010   7.080 -1.3165  0.2887 -0.9340
 9345TIP3   OH252229   1.694   3.940   6.176 -0.5799  0.2802 -0.2007
 9345TIP3    H152230   1.742   3.865   6.210 -0.9020 -0.5569 -1.5161
 9345TIP3    H252231   1.619   3.950   6.234 -0.0094  0.2225  0.5636
 9346TIP3   OH252232   4.446   5.126   8.779  0.3765  0.2357 -0.0578
 9346TIP3    H152233   4.515   5.129   8.846  0.3875 -0.2843 -0.0393
 9346TIP3    H252234   4.366   5.107   8.828  0.2875  0.4364 -0.1259
 9347TIP3   OH252235   5.252   2.852   7.988  0.1211 -0.3476  0.1417
 9347TIP3    H152236   5.169   2.829   7.947  0.1900 -0.1576 -0.1109
 9347TIP3    H252237   5.258   2.795   8.065  0.8510 -2.0657 -1.1188
 9348TIP3   OH252238   0.127   4.012   7.752 -0.1500 -0.7100  0.3079
 9348TIP3    H152239   0.218   4.007   7.720 -0.2125  0.8667 -0.1844
 9348TIP3    H252240   0.134   3.999   7.846  1.0107  2.4740  0.7682
 9349TIP3   OH252241   0.262   5.703   6.580 -0.1279  0.1406  0.0183
 9349TIP3    H152242   0.264   5.612   6.553  0.6387 -0.4232  1.8250
 9349TIP3    H252243   0.317   5.749   6.516  0.7897 -0.9484 -0.0029
 9350TIP3   OH252244   6.163   5.782   8.150  0.3731 -0.4530  0.4163
 9350TIP3    H152245   6.238   5.759   8.095  1.6043  0.5578  1.5672
 9350TIP3    H252246   6.114   5.847   8.099  0.9087 -0.3046  0.0796
 9351TIP3   OH252247   4.230   6.202   6.039 -0.1054  0.4446  0.0233
 9351TIP3    H152248   4.186   6.230   5.959  0.7793  1.9459  0.0165
 9351TIP3    H252249   4.302   6.146   6.009 -0.6880 -0.2581 -0.1001
 9352TIP3   OH252250   6.407   2.838   6.694  0.3502 -0.0899 -0.1655
 9352TIP3    H152251   6.398   2.878   6.608  1.5289  0.8498  0.1215
 9352TIP3    H252252   6.449   2.905   6.748 -1.2355 -0.3124  1.4270
 9353TIP3   OH252253   1.209   6.496   5.828  0.5480 -0.8754  0.1857
 9353TIP3    H152254   1.255   6.522   5.748 -1.3631 -0.2583 -0.7767
 9353TIP3    H252255   1.273   6.509   5.898  1.2444  1.9126 -0.8268
 9354TIP3   OH252256   1.905   4.313   5.843 -0.5234 -0.3245  0.0292
 9354TIP3    H152257   1.906   4.255   5.920 -0.2238 -0.9129 -0.4129
 9354TIP3    H252258   1.980   4.285   5.791 -0.7543  0.0372 -0.5082
 9355TIP3   OH252259   1.981   6.321   8.092  0.3855 -0.4527  0.0370
 9355TIP3    H152260   1.968   6.354   8.003  0.9186 -0.7550 -0.1598
 9355TIP3    H252261   1.893   6.306   8.126  0.1326 -3.7444 -1.7304
 9356TIP3   OH252262   2.185   6.652   7.900  0.5176  0.2322 -0.1383
 9356TIP3    H152263   2.187   6.601   7.981  1.3926 -1.9648 -1.4621
 9356TIP3    H252264   2.231   6.733   7.921  1.7636 -0.7962  1.2664
 9357TIP3   OH252265   4.631   4.850   7.049  0.6787 -0.3037  0.6010
 9357TIP3    H152266   4.578   4.775   7.077 -0.0796  0.3802  1.0533
 9357TIP3    H252267   4.584   4.884   6.972 -0.6079  1.3952  2.0672
 9358TIP3   OH252268   1.020   3.265   7.649  0.3940  0.6458  0.3474
 9358TIP3    H152269   0.945   3.217   7.683  0.6858 -0.2044 -0.1831
 9358TIP3    H252270   1.001   3.357   7.670 -1.8269  0.7371 -1.6965
 9359TIP3   OH252271   1.183   3.202   7.880 -0.0853  0.0785  0.6612
 9359TIP3    H152272   1.240   3.134   7.843  1.7916  0.4210  2.7361
 9359TIP3    H252273   1.114   3.213   7.814 -0.0930 -3.3006 -0.1100
 9360TIP3   OH252274   3.300   3.248   9.024  0.2092 -0.8620  0.1901
 9360TIP3    H152275   3.241   3.195   8.970 -0.4912  0.0497  0.0363
 9360TIP3    H252276   3.282   3.220   9.114 -2.0416  0.8382  0.3597
 9361TIP3   OH252277   1.181   6.227   8.929  0.4072 -0.6076  0.0467
 9361TIP3    H152278   1.205   6.286   9.000 -3.5357  0.5013  0.6756
 9361TIP3    H252279   1.166   6.143   8.972 -2.3394  0.1488  0.7934
 9362TIP3   OH252280   0.196   1.313   7.266  0.2773 -0.1042 -0.1293
 9362TIP3    H152281   0.153   1.291   7.183  0.3140 -0.5683 -0.0302
 9362TIP3    H252282   0.289   1.293   7.251  0.8392  2.8068 -1.0178
 9363TIP3   OH252283   0.705   2.918   7.925 -0.2087  0.1118 -0.1418
 9363TIP3    H152284   0.796   2.894   7.944  0.3169  1.7933 -0.3603
 9363TIP3    H252285   0.662   2.835   7.905  1.3341 -0.6992 -0.2464
 9364TIP3   OH252286   2.011   5.142   6.860  0.2659  0.1123  0.2306
 9364TIP3    H152287   1.940   5.190   6.903  0.1068 -0.3189  0.4565
 9364TIP3    H252288   2.005   5.168   6.768 -0.1198  0.1579  0.2659
 9365TIP3   OH252289   6.057   6.475   7.515 -0.3971  0.1850 -0.3424
 9365TIP3    H152290   5.999   6.539   7.555 -2.7318 -0.7740 -1.9636
 9365TIP3    H252291   6.029   6.391   7.551  0.2983 -0.2685 -0.8316
 9366TIP3   OH252292   4.354   6.307   8.600  0.4172 -0.3468  0.5933
 9366TIP3    H152293   4.351   6.261   8.515 -1.0969 -0.6190  0.7744
 9366TIP3    H252294   4.396   6.391   8.580  0.2675 -0.4921 -0.3834
 9367TIP3   OH252295   4.421   5.279   5.817  0.3201 -0.8679  0.0653
 9367TIP3    H152296   4.326   5.281   5.814  0.2117 -2.4545  1.3282
 9367TIP3    H252297   4.442   5.258   5.908  1.9059  0.2844  0.0080
 9368TIP3   OH252298   2.578   3.136   7.086 -0.4896  0.2257  0.1476
 9368TIP3    H152299   2.523   3.197   7.136 -2.2340  0.8234 -2.3188
 9368TIP3    H252300   2.586   3.059   7.143 -1.9394  1.0537  1.5530
 9369TIP3   OH252301   5.508   1.336   5.628 -0.5732  0.0700 -0.1020
 9369TIP3    H152302   5.431   1.379   5.592  0.1984  0.4596 -1.3811
 9369TIP3    H252303   5.541   1.396   5.694 -0.4771  0.6545 -0.6734
 9370TIP3   OH252304   2.722   5.024   7.430  0.2151 -0.3028 -0.1969
 9370TIP3    H152305   2.766   5.064   7.505  0.3312 -1.0220  0.1371
 9370TIP3    H252306   2.635   5.062   7.429  0.4227  0.1765 -0.0764
 9371TIP3   OH252307   0.339   6.575   6.656 -0.1911  0.2246 -0.4280
 9371TIP3    H152308   0.315   6.516   6.585 -0.3557 -1.8736  1.2735
 9371TIP3    H252309   0.403   6.636   6.616 -0.3736 -0.7742 -2.3642
 9372TIP3   OH252310   1.024   1.413   7.495  0.3701  0.4172 -0.2549
 9372TIP3    H152311   0.985   1.478   7.437 -1.3655 -0.4376 -0.1044
 9372TIP3    H252312   1.012   1.450   7.583  1.2684  0.8240 -0.2895
 9373TIP3   OH252313   2.144   5.302   6.592 -0.0003 -0.5321 -0.2905
 9373TIP3    H152314   2.199   5.354   6.533  0.4417  0.1880  0.7416
 9373TIP3    H252315   2.088   5.366   6.635  0.0647 -0.9895  0.4820
 9374TIP3   OH252316   0.002   3.947   6.493 -0.6721  0.4585  0.3572
 9374TIP3    H152317  -0.078   3.927   6.542 -0.6989 -1.7955 -0.4974
 9374TIP3    H252318  -0.018   3.922   6.403  0.3459  1.7903 -0.2644
 9375TIP3   OH252319   2.243   2.343   7.670  0.0790 -0.0905 -0.0550
 9375TIP3    H152320   2.258   2.436   7.685  1.7758 -0.0292 -1.6830
 9375TIP3    H252321   2.148   2.331   7.681 -0.1631  1.8163  0.1943
 9376TIP3   OH252322   1.446   3.098   7.087 -0.3565 -0.0112 -0.6454
 9376TIP3    H152323   1.462   3.021   7.142 -2.6213  0.4194  0.7225
 9376TIP3    H252324   1.392   3.065   7.016  1.1589 -0.2159 -1.7630
 9377TIP3   OH252325   2.348   1.576   6.049 -0.1846  0.0329  0.3738
 9377TIP3    H152326   2.421   1.531   6.092  0.6869 -0.1783 -1.2433
 9377TIP3    H252327   2.296   1.505   6.009  0.2843  0.3335 -0.8059
 9378TIP3   OH252328   2.736   6.022   8.226 -0.4287 -0.2750  0.1161
 9378TIP3    H152329   2.780   6.024   8.141 -0.2220  0.8846  0.2296
 9378TIP3    H252330   2.654   5.975   8.210 -0.7365  0.5610 -0.9129
 9379TIP3   OH252331   4.210   3.725   5.864 -0.0869 -0.0315 -0.0776
 9379TIP3    H152332   4.192   3.642   5.819 -0.0550 -0.9484  1.5411
 9379TIP3    H252333   4.279   3.705   5.927 -1.6846  0.5942  1.9985
 9380TIP3   OH252334   1.518   1.271   6.548 -0.5102  0.4083 -0.5101
 9380TIP3    H152335   1.600   1.242   6.508  0.0127 -0.5875  1.2037
 9380TIP3    H252336   1.468   1.191   6.562 -1.8712  1.0072 -1.6095
 9381TIP3   OH252337   5.208   1.421   6.674 -0.0259 -0.0883  0.1812
 9381TIP3    H152338   5.221   1.339   6.722  0.1898  0.2194  0.6462
 9381TIP3    H252339   5.229   1.490   6.737 -0.1477  0.3259 -0.2274
 9382TIP3   OH252340   1.256   2.622   7.308 -0.0276  0.0462 -0.3376
 9382TIP3    H152341   1.213   2.549   7.262 -1.0343  0.0687  0.5227
 9382TIP3    H252342   1.246   2.697   7.249 -0.5467 -0.1216 -0.4657
 9383TIP3   OH252343   3.802   6.110   6.816 -1.0005  0.1081  0.1833
 9383TIP3    H152344   3.863   6.037   6.809 -1.3186 -0.0235 -2.0033
 9383TIP3    H252345   3.795   6.127   6.910  2.1134 -0.0826  0.5467
 9384TIP3   OH252346   5.368   2.233   5.698  0.0263  0.3051 -0.1610
 9384TIP3    H152347   5.437   2.168   5.708  0.9279  0.7740 -2.7182
 9384TIP3    H252348   5.289   2.182   5.678  0.0170 -0.1196  0.8826
 9385TIP3   OH252349   2.325   3.458   5.952  0.2474  0.1290  0.2869
 9385TIP3    H152350   2.369   3.517   6.014 -0.8310 -0.9314  2.1719
 9385TIP3    H252351   2.358   3.371   5.974 -0.1096 -0.2735 -0.6947
 9386TIP3   OH252352   2.615   4.946   7.142  0.0556 -0.2972 -0.0946
 9386TIP3    H152353   2.661   5.026   7.168 -0.8913  0.8157 -1.6398
 9386TIP3    H252354   2.669   4.909   7.072  0.0588 -0.5458  0.0389
 9387TIP3   OH252355   6.404   5.194   5.751 -0.6647  0.5774 -0.2921
 9387TIP3    H152356   6.420   5.104   5.722 -1.3964  0.0219  0.8969
 9387TIP3    H252357   6.353   5.233   5.680  1.6220  0.8543 -1.8990
 9388TIP3   OH252358   6.337   3.832   7.712  0.5165  0.2752 -0.2110
 9388TIP3    H152359   6.386   3.893   7.766 -1.1952 -0.3412  2.2100
 9388TIP3    H252360   6.372   3.746   7.734 -0.0415  0.0316 -0.2414
 9389TIP3   OH252361   2.100   4.831   9.544 -0.2134 -0.0681  0.0808
 9389TIP3    H152362   2.089   4.923   9.522 -0.5143  0.1599  1.1249
 9389TIP3    H252363   2.178   4.804   9.496 -1.6821 -0.0400 -2.4934
 9390TIP3   OH252364   0.263   1.946   8.672  0.3540  0.0629 -0.3859
 9390TIP3    H152365   0.307   2.029   8.651 -0.3104  0.5534  0.1377
 9390TIP3    H252366   0.217   1.922   8.592  1.7440 -0.5829 -1.0267
 9391TIP3   OH252367   4.358   2.777   6.713 -0.0476  0.7654  0.1742
 9391TIP3    H152368   4.377   2.829   6.635 -0.1173 -0.4781 -0.7064
 9391TIP3    H252369   4.420   2.705   6.709 -0.2150  0.5581  1.1425
 9392TIP3   OH252370   1.325   1.270   6.230 -0.0847  0.8318 -0.2769
 9392TIP3    H152371   1.267   1.333   6.187 -2.0055 -0.4656  0.3104
 9392TIP3    H252372   1.272   1.232   6.300  0.8614 -1.7385 -0.8532
 9393TIP3   OH252373   0.226   4.157   7.171  0.3265  0.2566  0.2175
 9393TIP3    H152374   0.137   4.190   7.186  0.3380  0.7971 -0.7875
 9393TIP3    H252375   0.253   4.200   7.090  0.3245 -2.2357 -1.1983
 9394TIP3   OH252376   4.117   4.964   5.892 -0.2681 -0.0154  0.2357
 9394TIP3    H152377   4.131   4.875   5.860  0.6075  0.1901  0.0058
 9394TIP3    H252378   4.201   4.988   5.931 -0.3959  0.8280  0.0071
 9395TIP3   OH252379   0.513   4.632   8.354  0.2504  0.0540  0.1067
 9395TIP3    H152380   0.419   4.612   8.359 -0.0298  1.2321  0.0017
 9395TIP3    H252381   0.552   4.581   8.425 -0.5250 -0.1802  0.3776
 9396TIP3   OH252382   4.544   1.867   5.711 -0.2809  0.2479 -0.3658
 9396TIP3    H152383   4.496   1.790   5.681 -1.5767  0.7868  0.2523
 9396TIP3    H252384   4.517   1.878   5.802  1.8679 -0.0508  0.3835
 9397TIP3   OH252385   5.258   5.145   7.617  0.0298  0.4112  0.4086
 9397TIP3    H152386   5.244   5.078   7.550 -0.9127  1.2261 -0.2363
 9397TIP3    H252387   5.246   5.098   7.700 -1.4657 -0.0792 -0.0412
 9398TIP3   OH252388   2.238   3.968   6.974 -0.2762 -0.0932  0.0199
 9398TIP3    H152389   2.302   3.920   6.922 -0.4222 -1.9098  1.4407
 9398TIP3    H252390   2.154   3.945   6.935 -0.3536 -1.0962  0.7639
 9399TIP3   OH252391   6.465   0.472   8.050  0.0867  0.4824  0.2474
 9399TIP3    H152392   6.408   0.424   7.990  0.5030  0.6273 -0.2731
 9399TIP3    H252393   6.414   0.550   8.074 -0.4124  0.0099  0.7441
 9400TIP3   OH252394   6.503   2.177   6.795  0.5260 -0.1206 -0.1649
 9400TIP3    H152395   6.541   2.110   6.739  0.8137  0.6855 -0.9566
 9400TIP3    H252396   6.527   2.260   6.753  1.0720  0.5195  1.3381
 9401TIP3   OH252397   5.140   1.965   6.238  0.2170 -0.8885  0.3159
 9401TIP3    H152398   5.181   2.023   6.302 -1.4860 -1.3109  1.8986
 9401TIP3    H252399   5.103   1.894   6.291 -1.7051 -1.0102 -1.0773
 9402TIP3   OH252400   5.021   0.307   6.609 -0.4404 -0.0447 -0.0553
 9402TIP3    H152401   5.051   0.248   6.678  0.0821  0.6944  0.3748
 9402TIP3    H252402   5.022   0.254   6.529 -0.3258 -0.7031  0.3744
 9403TIP3   OH252403   1.537   5.733   5.705 -0.1633  0.6958  0.3604
 9403TIP3    H152404   1.458   5.687   5.676 -0.6165  1.7846 -0.2011
 9403TIP3    H252405   1.609   5.677   5.677 -0.6871  0.4807 -0.6155
 9404TIP3   OH252406   1.367   4.229   6.890 -0.5799 -0.2873  0.7542
 9404TIP3    H152407   1.405   4.152   6.847  1.0014  0.3126  1.0316
 9404TIP3    H252408   1.372   4.298   6.823  1.7059  0.5990  1.7506
 9405TIP3   OH252409   1.297   6.421   6.992 -0.1446  1.2286  0.7921
 9405TIP3    H152410   1.213   6.375   6.986 -0.5767  2.0580  0.1761
 9405TIP3    H252411   1.308   6.461   6.905  0.6135  1.5905  1.0485
 9406TIP3   OH252412   2.304   5.522   8.178 -0.3249 -0.3124  0.1244
 9406TIP3    H152413   2.382   5.489   8.134  0.9485 -0.1069  2.0517
 9406TIP3    H252414   2.331   5.529   8.270 -2.1543  1.2110  0.5984
 9407TIP3   OH252415   2.355   4.615   8.970  0.7010  0.2004  0.0362
 9407TIP3    H152416   2.332   4.684   8.907 -1.6323 -1.5018 -1.1007
 9407TIP3    H252417   2.285   4.618   9.035  0.4337 -1.2426 -0.1680
 9408TIP3   OH252418   2.914   4.849   8.709  0.2385 -0.1596  0.0364
 9408TIP3    H152419   2.953   4.802   8.636 -2.5581 -2.0095 -0.4179
 9408TIP3    H252420   2.820   4.845   8.693 -0.3317  1.7981  2.3341
 9409TIP3   OH252421   6.384   2.061   7.510  0.1266 -0.0298 -0.2423
 9409TIP3    H152422   6.338   2.028   7.587  0.7797 -0.7157 -0.1365
 9409TIP3    H252423   6.315   2.096   7.453 -0.5489 -1.3002 -0.2200
 9410TIP3   OH252424   6.570   1.713   8.533 -0.1709 -0.1957 -0.1450
 9410TIP3    H152425   6.621   1.694   8.454 -0.1332  0.5677 -0.3142
 9410TIP3    H252426   6.616   1.787   8.573 -0.9472  0.2727 -0.1090
 9411TIP3   OH252427   4.772   6.149   6.242  0.2414  0.3478 -0.0906
 9411TIP3    H152428   4.731   6.208   6.179  1.1394  1.6978  0.5246
 9411TIP3    H252429   4.700   6.117   6.296 -0.3401  0.3758 -0.8479
 9412TIP3   OH252430   1.060   6.526   6.152  0.0089 -0.1102 -0.1852
 9412TIP3    H152431   1.033   6.537   6.060 -4.0798 -2.5851  0.4546
 9412TIP3    H252432   1.117   6.450   6.151 -0.4493 -0.4526 -0.6308
 9413TIP3   OH252433   6.698   6.563   7.150  0.2760  0.1117 -0.3197
 9413TIP3    H152434   6.766   6.628   7.129 -1.5728  2.2569 -0.1069
 9413TIP3    H252435   6.670   6.586   7.239 -0.5223 -0.8979 -0.2933
 9414TIP3   OH252436   1.294   4.219   8.043  0.4266 -0.5467  0.4987
 9414TIP3    H152437   1.323   4.303   8.078 -1.0590  0.1916  0.0753
 9414TIP3    H252438   1.320   4.221   7.951  2.4074 -1.5619  0.9851
 9415TIP3   OH252439   4.114   2.896   7.151  0.1336  0.1629 -0.5735
 9415TIP3    H152440   4.070   2.975   7.119 -2.4067 -0.4936  0.9914
 9415TIP3    H252441   4.118   2.838   7.075 -3.0411 -0.2410 -0.5701
 9416TIP3   OH252442   4.743   1.950   6.773 -0.3763  0.0738 -0.3792
 9416TIP3    H152443   4.674   1.887   6.750 -1.2095  0.7780  0.1521
 9416TIP3    H252444   4.738   2.018   6.706  0.6885 -0.5122 -1.0969
 9417TIP3   OH252445   0.332   3.672   7.266 -0.3285  0.2585  0.5375
 9417TIP3    H152446   0.290   3.679   7.351 -2.5932  1.4005 -0.5918
 9417TIP3    H252447   0.344   3.762   7.237  0.2349 -0.1138 -0.4544
 9418TIP3   OH252448   0.245   1.954   7.620 -1.6608  0.2742  0.4104
 9418TIP3    H152449   0.329   1.925   7.583 -1.0218  1.2727  1.0508
 9418TIP3    H252450   0.197   1.873   7.633 -0.3727 -0.4227  1.0456
 9419TIP3   OH252451   0.137   6.117   7.526  0.4991 -1.1666  0.4982
 9419TIP3    H152452   0.182   6.079   7.451 -0.6556 -0.1690 -0.7483
 9419TIP3    H252453   0.059   6.159   7.489 -0.1581 -0.7270  2.2661
 9420TIP3   OH252454   3.897   5.606   7.486  0.0158 -0.1534 -0.4394
 9420TIP3    H152455   3.937   5.656   7.557  0.7163  1.1422 -1.7071
 9420TIP3    H252456   3.967   5.548   7.455  0.1533  0.3170 -1.0143
 9421TIP3   OH252457   1.769   6.230   6.415 -0.5133  0.0217 -0.0172
 9421TIP3    H152458   1.735   6.179   6.341 -0.4776  0.3989 -0.2945
 9421TIP3    H252459   1.846   6.274   6.380  0.4208 -1.0062  0.6664
 9422TIP3   OH252460   4.006   4.424   8.017 -0.2248 -0.4318 -0.4500
 9422TIP3    H152461   3.994   4.519   8.024  2.2430 -0.1685  1.7162
 9422TIP3    H252462   3.984   4.390   8.103  1.6441 -1.4318 -0.3139
 9423TIP3   OH252463   1.630   5.324   6.419  0.1979  0.2092  0.1291
 9423TIP3    H152464   1.601   5.234   6.405 -0.1537  0.5015 -1.0715
 9423TIP3    H252465   1.622   5.366   6.334 -0.0150  1.4920  0.7559
 9424TIP3   OH252466   4.564   2.825   8.499  0.2172 -0.1056 -0.2782
 9424TIP3    H152467   4.596   2.735   8.502  0.2273 -0.2590 -3.0848
 9424TIP3    H252468   4.619   2.868   8.434  0.8761  2.2727  1.6986
 9425TIP3   OH252469   2.085   0.547   8.067 -0.5340 -0.3298  0.2864
 9425TIP3    H152470   2.139   0.530   7.990 -0.4098 -0.5615  0.4237
 9425TIP3    H252471   2.072   0.642   8.066  0.3764 -0.1857  0.5778
 9426TIP3   OH252472   6.343   3.338   7.353 -0.2566  0.3026 -0.0528
 9426TIP3    H152473   6.250   3.336   7.330 -0.1250  0.9097 -0.6596
 9426TIP3    H252474   6.348   3.398   7.427 -0.7878 -2.2244  2.1697
 9427TIP3   OH252475   4.329   3.878   8.921  0.1769  0.0992  0.4518
 9427TIP3    H152476   4.298   3.867   9.010 -1.9746  2.8116  0.1959
 9427TIP3    H252477   4.301   3.799   8.875 -0.4445 -0.4539  1.7386
 9428TIP3   OH252478   0.241   1.771   6.091 -0.0282 -0.0743  0.0071
 9428TIP3    H152479   0.264   1.864   6.098 -1.5886  0.2471  1.7766
 9428TIP3    H252480   0.325   1.725   6.090  0.7568  1.3124 -0.1409
 9429TIP3   OH252481   6.542   3.916   8.502  0.6345 -0.1613  0.3949
 9429TIP3    H152482   6.629   3.945   8.532  0.6700  1.3381 -1.0012
 9429TIP3    H252483   6.561   3.858   8.429  0.4823 -0.2008  0.3883
 9430TIP3   OH252484   5.451   3.074   9.382 -0.2023  0.4656 -0.2073
 9430TIP3    H152485   5.439   2.998   9.323 -1.6454  1.4162 -1.2131
 9430TIP3    H252486   5.476   3.145   9.323  2.3188  0.5564  0.8744
 9431TIP3   OH252487   5.451   6.639   6.845 -0.1940 -0.4684  0.2011
 9431TIP3    H152488   5.472   6.603   6.759 -0.4078 -0.2996  0.0741
 9431TIP3    H252489   5.522   6.610   6.902 -0.7751 -1.7716  0.2968
 9432TIP3   OH252490   3.372   2.930   8.772 -0.2792  0.1720  0.1731
 9432TIP3    H152491   3.291   2.891   8.739 -0.4733 -0.2561  1.1253
 9432TIP3    H252492   3.438   2.862   8.759 -0.6419 -0.5690  1.9441
 9433TIP3   OH252493   3.003   3.677   7.953 -0.2424  0.3798  0.2620
 9433TIP3    H152494   2.941   3.614   7.990 -1.4347  0.3121 -1.7292
 9433TIP3    H252495   2.982   3.759   7.998 -1.6140  0.2991 -0.1881
 9434TIP3   OH252496   0.464   6.527   8.417 -0.4054 -0.4754  0.6541
 9434TIP3    H152497   0.393   6.519   8.481 -0.8393  2.1191  0.5994
 9434TIP3    H252498   0.423   6.568   8.342  0.7937 -0.6014 -0.0850
 9435TIP3   OH252499   0.295   1.976   6.509 -0.3562  0.3998  0.1235
 9435TIP3    H152500   0.346   1.973   6.428  1.1059  0.0628  1.0176
 9435TIP3    H252501   0.214   2.021   6.485  0.3279  0.9001 -1.3591
 9436TIP3   OH252502   1.454   1.550   6.407 -0.0876 -0.1532 -0.0399
 9436TIP3    H152503   1.363   1.560   6.379 -0.0220 -0.3442 -0.3293
 9436TIP3    H252504   1.455   1.467   6.455 -0.3143  0.4447  1.0259
 9437TIP3   OH252505   5.191   1.808   5.477 -0.4518  0.4037  0.6091
 9437TIP3    H152506   5.204   1.722   5.436  0.0805  0.6088  0.3368
 9437TIP3    H252507   5.100   1.807   5.507 -0.3088 -0.4439  1.0516
 9438TIP3   OH252508   5.363   1.620   6.829 -0.3272 -0.1811  0.2387
 9438TIP3    H152509   5.407   1.601   6.912 -0.4484  0.9740  0.5897
 9438TIP3    H252510   5.323   1.706   6.843 -0.5599 -0.0876 -0.9366
 9439TIP3   OH252511   3.575   1.581   6.336 -0.2532  0.0100 -0.3267
 9439TIP3    H152512   3.668   1.600   6.348 -0.2977  0.1261 -0.1580
 9439TIP3    H252513   3.539   1.662   6.299 -0.6689  0.7035  1.4943
 9440TIP3   OH252514   1.385   0.874   5.874  0.4693  0.0823 -0.1189
 9440TIP3    H152515   1.468   0.858   5.828 -0.5084 -0.8187 -1.6379
 9440TIP3    H252516   1.380   0.804   5.939  0.0888 -0.9475 -1.2270
 9441TIP3   OH252517   0.458   1.860   8.264  0.6635  0.7389  0.4579
 9441TIP3    H152518   0.367   1.839   8.285  0.0465  0.5623 -2.1121
 9441TIP3    H252519   0.454   1.947   8.224  1.1265 -0.4273 -2.3596
 9442TIP3   OH252520   3.565   4.128   6.714 -0.1177  0.1525  0.3845
 9442TIP3    H152521   3.613   4.050   6.684  0.4518  0.0126  1.5648
 9442TIP3    H252522   3.493   4.137   6.652 -0.1911 -1.3204  0.2047
 9443TIP3   OH252523   2.168   1.110   5.500 -0.4133 -0.1160  0.0238
 9443TIP3    H152524   2.156   1.018   5.478 -1.4450 -0.1380  0.6197
 9443TIP3    H252525   2.262   1.126   5.489 -0.6499 -0.3394 -3.5676
 9444TIP3   OH252526   3.205   5.222   8.068 -1.0781  0.3214 -0.1160
 9444TIP3    H152527   3.272   5.262   8.123 -0.9123 -0.1584  0.0370
 9444TIP3    H252528   3.131   5.283   8.072 -0.7300  0.7448 -0.1142
 9445TIP3   OH252529   3.675   2.672   8.542 -0.4676 -0.2294  0.4990
 9445TIP3    H152530   3.761   2.630   8.547 -0.2001  0.3389  0.8362
 9445TIP3    H252531   3.641   2.648   8.456 -0.2214 -0.9323  0.5917
 9446TIP3   OH252532   4.217   3.154   6.784 -0.1610  0.6583  0.0796
 9446TIP3    H152533   4.203   3.209   6.861  0.1628  0.5422  0.2225
 9446TIP3    H252534   4.145   3.091   6.786  2.0963 -2.1189  2.7057
 9447TIP3   OH252535   0.933   0.568   6.284  0.2673 -0.3640  0.6455
 9447TIP3    H152536   0.871   0.597   6.351  0.1537 -1.3305  0.9735
 9447TIP3    H252537   1.017   0.605   6.312 -0.0420  0.4679  0.5102
 9448TIP3   OH252538   4.599   4.307   6.631 -0.2450  0.3768  0.1252
 9448TIP3    H152539   4.643   4.224   6.612 -1.5291  0.0482 -1.7986
 9448TIP3    H252540   4.668   4.373   6.627  0.5334 -0.4307  0.0276
 9449TIP3   OH252541   3.990   4.441   9.259  0.7776  0.2229 -0.1947
 9449TIP3    H152542   3.925   4.499   9.300  1.7653  1.7098 -0.6374
 9449TIP3    H252543   4.025   4.390   9.331  0.1538  0.4370  0.2773
 9450TIP3   OH252544   3.634   3.099   8.691 -0.0877 -0.1566  0.4268
 9450TIP3    H152545   3.544   3.129   8.705 -0.4775 -0.4958 -1.1599
 9450TIP3    H252546   3.681   3.124   8.771 -1.5033  0.3429  1.1256
 9451TIP3   OH252547   5.729   3.744   7.948 -0.9736  0.4542 -0.4595
 9451TIP3    H152548   5.740   3.786   7.862 -1.1448 -1.1620 -1.3043
 9451TIP3    H252549   5.678   3.665   7.930  1.3403 -1.4214  0.6464
 9452TIP3   OH252550   5.254   4.403   8.996 -0.0725  0.3266  0.1661
 9452TIP3    H152551   5.175   4.439   9.035 -0.4708  1.2151 -1.3786
 9452TIP3    H252552   5.223   4.340   8.931  0.4898  0.4229 -0.2112
 9453TIP3   OH252553   4.192   3.501   6.183  0.1931 -0.4033  0.0540
 9453TIP3    H152554   4.251   3.569   6.217 -0.9701  0.7117 -0.0877
 9453TIP3    H252555   4.203   3.505   6.088 -1.1995  0.8954 -0.0951
 9454TIP3   OH252556   5.667   0.902   7.382 -0.3001 -0.6602  0.0513
 9454TIP3    H152557   5.603   0.832   7.396 -0.2228 -1.0912 -1.5795
 9454TIP3    H252558   5.742   0.858   7.340  0.2104  0.2064  0.0412
 9455TIP3   OH252559   2.358   5.267   7.912 -0.1913 -0.3501 -0.1962
 9455TIP3    H152560   2.413   5.237   7.839  0.1842 -2.6030  0.9150
 9455TIP3    H252561   2.412   5.332   7.958  0.5768 -0.7513 -0.5107
 9456TIP3   OH252562   3.281   1.659   7.968  0.3073 -0.1004 -0.1492
 9456TIP3    H152563   3.234   1.637   7.888 -1.8326  1.8390  0.4788
 9456TIP3    H252564   3.253   1.593   8.031  0.9682 -0.8327 -0.5888
 9457TIP3   OH252565   3.339   6.055   8.529 -0.0791 -0.1202 -0.1347
 9457TIP3    H152566   3.402   6.115   8.489  0.1873 -0.4652 -0.2386
 9457TIP3    H252567   3.340   5.979   8.471 -1.4629  0.3373 -0.8050
 9458TIP3   OH252568   4.029   1.496   7.870  0.3317 -0.7766 -0.3607
 9458TIP3    H152569   4.051   1.509   7.778  0.8528 -0.1521 -0.1528
 9458TIP3    H252570   3.941   1.533   7.879  0.5067 -0.3277 -0.4854
 9459TIP3   OH252571   0.053   2.121   6.463 -0.0314  0.0010  0.4447
 9459TIP3    H152572   0.034   2.144   6.372 -1.3134 -0.1508  0.6499
 9459TIP3    H252573   0.074   2.205   6.505  2.1167 -0.1127 -0.3047
 9460TIP3   OH252574   6.231   6.286   6.814 -0.9030 -0.4282 -0.1800
 9460TIP3    H152575   6.270   6.357   6.763 -0.3802 -0.0189  0.7556
 9460TIP3    H252576   6.155   6.258   6.763 -0.6174  0.2245 -0.9815
 9461TIP3   OH252577   0.042   2.748   7.577 -0.5857  0.1907 -0.2116
 9461TIP3    H152578   0.018   2.657   7.597 -0.8325  0.4927  0.9407
 9461TIP3    H252579   0.012   2.761   7.487  1.5751 -1.5902 -1.2767
 9462TIP3   OH252580   1.631   1.773   7.808 -0.0289  0.3494 -0.1140
 9462TIP3    H152581   1.593   1.685   7.809  0.4782  0.1311  0.1193
 9462TIP3    H252582   1.622   1.801   7.717 -1.4434  0.6175  0.0870
 9463TIP3   OH252583   2.510   2.370   7.931 -0.2262  0.1724  0.2544
 9463TIP3    H152584   2.476   2.415   7.854  1.9950 -0.1094 -0.9468
 9463TIP3    H252585   2.519   2.279   7.904 -0.1648 -0.0815  1.1051
 9464TIP3   OH252586   4.287   3.160   8.322  0.3275 -0.1090  0.3861
 9464TIP3    H152587   4.302   3.095   8.253 -0.5612 -0.7695  0.7939
 9464TIP3    H252588   4.268   3.108   8.400 -1.9706  0.5988  0.3659
 9465TIP3   OH252589   0.859   4.476   5.935  0.2914  0.0062  0.7125
 9465TIP3    H152590   0.904   4.519   6.007 -0.3583  1.9957 -0.0041
 9465TIP3    H252591   0.766   4.497   5.948  0.0487 -0.4836 -0.1270
 9466TIP3   OH252592   6.187   4.869   7.062  0.6277  0.0915  0.2527
 9466TIP3    H152593   6.202   4.960   7.035  0.5886 -0.2909 -1.1438
 9466TIP3    H252594   6.271   4.825   7.046  0.0109 -0.6007 -1.2873
 9467TIP3   OH252595   0.187   5.730   6.229  0.0230  0.3122  0.3057
 9467TIP3    H152596   0.258   5.732   6.165  0.1967  2.4160  0.4881
 9467TIP3    H252597   0.127   5.663   6.196  1.2491 -0.3124 -0.7645
 9468TIP3   OH252598   2.479   5.094   7.723 -0.0104  0.2001  0.0961
 9468TIP3    H152599   2.401   5.040   7.706  0.5301 -0.2159 -1.2465
 9468TIP3    H252600   2.479   5.158   7.651  1.1061 -0.0811 -0.1724
 9469TIP3   OH252601   3.906   3.291   6.734  0.0107 -0.7123 -0.3511
 9469TIP3    H152602   3.967   3.359   6.762 -1.2518  0.9313 -1.4343
 9469TIP3    H252603   3.881   3.315   6.645  0.2709 -3.1802 -1.1822
 9470TIP3   OH252604   4.232   1.321   6.794  0.3127  0.5244 -0.1761
 9470TIP3    H152605   4.230   1.368   6.877 -1.5521 -2.5457  1.7458
 9470TIP3    H252606   4.155   1.264   6.798  0.5642 -0.2506 -3.7551
 9471TIP3   OH252607   5.785   4.471   7.372  0.0187  0.0651 -0.4582
 9471TIP3    H152608   5.802   4.418   7.450  1.1032 -0.1239 -0.7959
 9471TIP3    H252609   5.814   4.559   7.397 -0.7591  0.2702 -0.2590
 9472TIP3   OH252610   4.800   0.951   6.585  0.1224  0.0014 -0.1453
 9472TIP3    H152611   4.777   1.043   6.568  3.0081  0.4334 -2.4493
 9472TIP3    H252612   4.860   0.955   6.659  0.8082  0.0638 -0.7021
 9473TIP3   OH252613   5.277   6.410   7.584  0.1849 -0.6014  0.3947
 9473TIP3    H152614   5.270   6.314   7.581  0.1644 -0.5880 -0.5197
 9473TIP3    H252615   5.312   6.433   7.498 -0.5252  0.2699  0.3277
 9474TIP3   OH252616   2.200   3.170   6.109 -0.1580 -0.0582  0.5967
 9474TIP3    H152617   2.204   3.079   6.138 -0.9405  0.2731  1.8277
 9474TIP3    H252618   2.226   3.167   6.016 -2.0505 -1.7884  0.0590
 9475TIP3   OH252619   5.080   3.203   8.756  0.3485  0.0522 -0.0574
 9475TIP3    H152620   5.120   3.118   8.771  1.0953  0.6577  1.7303
 9475TIP3    H252621   4.987   3.190   8.774  0.5636 -0.2535  0.8644
 9476TIP3   OH252622   6.073   3.097   6.518 -0.1353  0.4119 -0.2067
 9476TIP3    H152623   6.029   3.171   6.475  0.1733  0.0409 -1.1941
 9476TIP3    H252624   6.004   3.033   6.534 -0.1162  0.1773 -0.9978
 9477TIP3   OH252625   2.938   1.733   7.347  0.2504  0.0895 -0.3714
 9477TIP3    H152626   3.006   1.726   7.280  1.2866  1.0620  0.5243
 9477TIP3    H252627   2.907   1.823   7.340 -0.4148 -0.1268 -0.2694
 9478TIP3   OH252628   3.110   2.939   7.354  0.5187  0.7173 -1.0259
 9478TIP3    H152629   3.171   2.886   7.303  1.7747  1.1248  0.0179
 9478TIP3    H252630   3.165   2.992   7.412 -0.8336  0.7624  0.2897
 9479TIP3   OH252631   4.705   5.978   8.123 -0.1451 -0.1527  0.6031
 9479TIP3    H152632   4.630   6.015   8.076 -0.1712 -0.2579  0.5611
 9479TIP3    H252633   4.701   6.019   8.209  0.0999  0.2934  0.4053
 9480TIP3   OH252634   2.428   2.579   8.999  0.0807 -0.0871 -0.0234
 9480TIP3    H152635   2.388   2.573   8.912  1.0323  2.4325 -0.7441
 9480TIP3    H252636   2.438   2.489   9.027  0.4113 -1.0518 -2.8742
 9481TIP3   OH252637   4.031   2.208   8.087  0.3286 -0.2117  0.1776
 9481TIP3    H152638   4.048   2.209   8.182  1.1517 -0.9849  0.0571
 9481TIP3    H252639   4.032   2.301   8.062  2.3886 -0.0783  0.5660
 9482TIP3   OH252640   5.998   5.098   7.252  0.2295 -0.5629  0.4057
 9482TIP3    H152641   6.079   5.149   7.242 -0.1640 -0.2736 -1.7231
 9482TIP3    H252642   6.005   5.029   7.187 -1.9023  0.4307 -0.9982
 9483TIP3   OH252643   1.503   0.488   8.586 -0.0962  0.4403 -0.1703
 9483TIP3    H152644   1.582   0.443   8.617  1.4411  2.2848 -1.1228
 9483TIP3    H252645   1.484   0.553   8.654 -1.5433 -0.7298  0.6016
 9484TIP3   OH252646   0.299   3.339   6.838 -0.9931 -0.6236  0.7837
 9484TIP3    H152647   0.263   3.403   6.899 -0.6628 -1.2732  1.6716
 9484TIP3    H252648   0.394   3.352   6.844 -0.9456  1.7854 -2.2756
 9485TIP3   OH252649   0.899   4.607   8.047 -0.3481  0.4629 -0.4861
 9485TIP3    H152650   0.824   4.603   7.988 -1.5615  1.8083  0.8627
 9485TIP3    H252651   0.880   4.543   8.115  0.7117 -0.5986 -1.1579
 9486TIP3   OH252652   1.062   3.556   7.447 -0.3264  0.2515  0.3626
 9486TIP3    H152653   1.048   3.550   7.541 -0.7708 -0.1529  0.2732
 9486TIP3    H252654   0.985   3.604   7.415 -1.7061 -2.1509 -0.1595
 9487TIP3   OH252655   4.756   1.920   7.060 -0.2984 -0.1941 -0.1117
 9487TIP3    H152656   4.780   2.001   7.105  0.2889  0.0273 -0.8070
 9487TIP3    H252657   4.772   1.938   6.968  0.2342 -1.2331 -0.2401
 9488TIP3   OH252658   5.439   2.867   6.710 -0.8402 -0.3883 -0.9447
 9488TIP3    H152659   5.471   2.779   6.689  0.6304 -0.2361  0.4209
 9488TIP3    H252660   5.489   2.892   6.788 -2.7317  0.8320 -0.0486
 9489TIP3   OH252661   6.061   1.410   6.435 -0.1018  1.0303 -0.1131
 9489TIP3    H152662   6.133   1.367   6.481 -0.3085  0.5465 -0.2347
 9489TIP3    H252663   5.999   1.340   6.417 -1.2312  1.6616  1.1576
 9490TIP3   OH252664   5.527   3.637   6.428  0.1369  0.3127 -0.7325
 9490TIP3    H152665   5.440   3.606   6.454 -0.7085  0.8254 -2.7636
 9490TIP3    H252666   5.546   3.708   6.490 -0.0252 -0.9914  0.8994
 9491TIP3   OH252667   4.418   4.478   9.169 -0.3636 -0.1333 -0.5077
 9491TIP3    H152668   4.465   4.559   9.190 -1.6498  0.6797 -0.5990
 9491TIP3    H252669   4.476   4.430   9.111 -0.1219  1.3801 -1.5612
 9492TIP3   OH252670   6.329   2.066   7.795 -0.0008  0.0745  0.0075
 9492TIP3    H152671   6.254   2.069   7.855  0.9252  1.1466  1.1610
 9492TIP3    H252672   6.377   1.988   7.820 -0.8457 -0.7904 -0.9382
 9493TIP3   OH252673   5.714   4.852   5.868  0.6677 -0.1157  0.1709
 9493TIP3    H152674   5.697   4.805   5.787 -0.5761 -0.6722  0.7385
 9493TIP3    H252675   5.697   4.788   5.937 -1.2814  1.1768  0.9673
 9494TIP3   OH252676   6.277   0.605   6.221 -0.7145  0.0482  0.0910
 9494TIP3    H152677   6.333   0.541   6.179 -0.6574  0.5687 -0.6442
 9494TIP3    H252678   6.318   0.620   6.307 -0.0776 -0.0284 -0.1952
 9495TIP3   OH252679   4.637   4.616   8.272 -0.6689  0.4288 -0.5254
 9495TIP3    H152680   4.542   4.630   8.271 -0.5840  1.4363  1.1302
 9495TIP3    H252681   4.650   4.545   8.335 -0.3166  0.1840 -0.8671
 9496TIP3   OH252682   5.686   5.336   7.872 -0.2205 -0.1633 -0.3109
 9496TIP3    H152683   5.720   5.270   7.812 -0.1518 -0.3434 -0.0757
 9496TIP3    H252684   5.622   5.385   7.820 -0.9753 -1.0277 -0.2209
 9497TIP3   OH252685   3.976   0.812   8.199  0.0292  0.1039 -0.3105
 9497TIP3    H152686   3.936   0.832   8.283 -2.1900  0.5528 -1.3793
 9497TIP3    H252687   3.955   0.720   8.183 -1.8301  0.6540 -1.4259
 9498TIP3   OH252688   0.707   1.459   6.695  0.1816  0.1202  0.4857
 9498TIP3    H152689   0.722   1.536   6.641 -1.1889 -0.2365 -0.4880
 9498TIP3    H252690   0.737   1.386   6.640  1.2314 -0.0796  1.2952
 9499TIP3   OH252691   3.154   1.704   8.939 -0.3041 -0.5466  0.5983
 9499TIP3    H152692   3.108   1.704   9.023 -0.5160 -1.4435  0.4851
 9499TIP3    H252693   3.230   1.762   8.953 -0.5304 -0.4144  1.2919
 9500TIP3   OH252694   0.297   0.686   8.619 -0.7539 -0.2789  0.1133
 9500TIP3    H152695   0.270   0.638   8.541 -0.7149  2.2018 -1.5388
 9500TIP3    H252696   0.389   0.662   8.631 -0.4499  0.0897 -1.2730
 9501TIP3   OH252697   2.662   3.332   8.341  0.1259  0.3536 -0.2009
 9501TIP3    H152698   2.621   3.249   8.367  1.8012  0.9671  5.6975
 9501TIP3    H252699   2.746   3.307   8.303  0.9909 -0.7893  2.2969
 9502TIP3   OH252700   2.085   4.586   7.805  0.1209  0.3766  0.2626
 9502TIP3    H152701   2.054   4.669   7.769  1.4832  1.0887  0.6818
 9502TIP3    H252702   2.022   4.565   7.874  0.7070  1.9904  1.3491
 9503TIP3   OH252703   6.033   4.872   6.696 -0.2439  0.1649  0.0834
 9503TIP3    H152704   6.016   4.868   6.790 -0.7855  0.4050 -0.0064
 9503TIP3    H252705   5.984   4.798   6.660 -1.2841  0.9716 -0.1975
 9504TIP3   OH252706   6.705   4.473   6.742 -0.4693 -0.3732 -0.2510
 9504TIP3    H152707   6.692   4.462   6.647 -0.0994 -0.4792 -0.2922
 9504TIP3    H252708   6.618   4.459   6.780 -0.1109 -3.4269 -0.2999
 9505TIP3   OH252709   1.654   4.643   7.003  0.1553  0.1106 -0.4222
 9505TIP3    H152710   1.669   4.642   7.098 -1.3778 -1.3893 -0.1533
 9505TIP3    H252711   1.595   4.717   6.989 -0.5885 -0.4004 -0.0263
 9506TIP3   OH252712   1.822   3.757   6.332  0.2232 -0.0016  0.0980
 9506TIP3    H152713   1.888   3.717   6.275  0.0116  1.4308 -1.2294
 9506TIP3    H252714   1.809   3.694   6.403  0.1298 -2.1274 -1.7060
 9507TIP3   OH252715   2.185   6.463   8.488  0.0318  0.3734  0.1621
 9507TIP3    H152716   2.162   6.539   8.435  0.0990  0.5648  0.4080
 9507TIP3    H252717   2.194   6.497   8.577  0.7654  0.2171  0.1555
 9508TIP3   OH252718   4.796   4.826   6.684  0.0982 -0.0306 -0.2663
 9508TIP3    H152719   4.720   4.780   6.717 -0.3751  1.4068  0.7261
 9508TIP3    H252720   4.761   4.888   6.620  0.6241 -0.3883 -0.9226
 9509TIP3   OH252721   0.767   1.753   7.722  0.5429  0.7333  0.0709
 9509TIP3    H152722   0.675   1.743   7.700  0.9261  0.3282 -1.4286
 9509TIP3    H252723   0.786   1.846   7.709  1.0549  0.3162 -2.6794
 9510TIP3   OH252724   4.673   3.014   6.030  0.5726 -0.2809 -0.2473
 9510TIP3    H152725   4.689   2.921   6.015  1.5420 -0.1578 -0.0065
 9510TIP3    H252726   4.629   3.017   6.115 -0.6009 -0.6026 -0.8232
 9511TIP3   OH252727   0.121   4.857   7.976 -0.1875  0.2903  0.2464
 9511TIP3    H152728   0.075   4.816   8.050 -0.5296  1.4295  0.6853
 9511TIP3    H252729   0.057   4.855   7.905 -0.2222  0.1316  0.2799
 9512TIP3   OH252730   3.087   0.257   8.163  0.0705 -0.3050  0.0817
 9512TIP3    H152731   3.128   0.228   8.081  0.5212  1.9296 -0.5379
 9512TIP3    H252732   2.994   0.238   8.150 -0.3216  2.4465 -2.1810
 9513TIP3   OH252733   4.353   1.173   8.036  0.4957 -0.1383  0.3294
 9513TIP3    H152734   4.308   1.234   7.978  0.4436  0.5045  1.0192
 9513TIP3    H252735   4.425   1.138   7.984  1.7827  2.0545  0.5210
 9514TIP3   OH252736   1.488   0.374   6.076 -0.0886 -0.4667 -0.4740
 9514TIP3    H152737   1.528   0.302   6.027 -0.2946 -0.2122 -1.0167
 9514TIP3    H252738   1.562   0.415   6.121  0.0755 -0.8200 -0.4128
 9515TIP3   OH252739   2.728   2.506   6.252  0.2031 -0.4011 -0.5662
 9515TIP3    H152740   2.798   2.497   6.316  0.0928 -0.6421 -0.4787
 9515TIP3    H252741   2.647   2.504   6.304  0.1607  1.3885 -0.4988
 9516TIP3   OH252742   1.329   6.327   8.721  0.3852  0.3674 -0.2798
 9516TIP3    H152743   1.323   6.420   8.738 -0.6316  0.8090 -2.6364
 9516TIP3    H252744   1.266   6.286   8.780  0.4660  1.2154  0.3966
 9517TIP3   OH252745   3.234   2.096   8.331  0.4989 -1.0120  0.0127
 9517TIP3    H152746   3.326   2.118   8.318  0.2761 -0.5738 -0.9575
 9517TIP3    H252747   3.191   2.125   8.250 -0.3073 -2.2844 -0.0378
 9518TIP3   OH252748   2.726   6.475   5.913  0.0062 -0.0565  0.2984
 9518TIP3    H152749   2.695   6.537   5.980  1.2885  1.2169 -0.2440
 9518TIP3    H252750   2.688   6.508   5.831 -1.0214 -1.2366  0.2610
 9519TIP3   OH252751   2.127   2.757   6.465  0.3616  0.1989  0.7523
 9519TIP3    H152752   2.171   2.793   6.389  0.3397 -0.8879  0.2029
 9519TIP3    H252753   2.197   2.721   6.519  0.4474  1.5614  1.6153
 9520TIP3   OH252754   6.020   3.575   5.734 -0.3818 -0.1295 -0.1049
 9520TIP3    H152755   5.952   3.633   5.768  0.6678  0.8913  0.2859
 9520TIP3    H252756   5.990   3.554   5.645 -1.4197 -0.0504  0.2145
 9521TIP3   OH252757   0.890   3.768   6.034  0.0928  0.0268 -0.2083
 9521TIP3    H152758   0.835   3.838   5.998 -0.2093 -0.4514 -0.7018
 9521TIP3    H252759   0.836   3.690   6.027  0.5896 -0.3312 -0.0660
 9522TIP3   OH252760   4.284   1.793   8.130  0.4455  0.1364  0.6678
 9522TIP3    H152761   4.354   1.812   8.193  0.8921  0.0565  0.2040
 9522TIP3    H252762   4.233   1.723   8.171  1.5224 -0.8581  0.3773
 9523TIP3   OH252763   6.010   3.975   6.281 -0.3059  0.0937  0.0055
 9523TIP3    H152764   5.955   3.959   6.358 -0.6527  1.5677  0.0936
 9523TIP3    H252765   5.948   3.985   6.209 -0.0388 -0.1821 -0.2674
 9524TIP3   OH252766   3.990   3.633   6.337 -0.0707  0.0587  0.1662
 9524TIP3    H152767   3.959   3.676   6.257 -0.3373  0.5201  0.5129
 9524TIP3    H252768   4.053   3.568   6.306  1.1863  1.4499 -0.2947
 9525TIP3   OH252769   5.045   6.704   6.093 -0.2581  0.1264  0.5543
 9525TIP3    H152770   4.991   6.694   6.171  1.2345  0.8912  1.7372
 9525TIP3    H252771   5.025   6.793   6.062 -2.0123 -0.7142 -0.9085
 9526TIP3   OH252772   2.373   3.327   6.431 -0.8487 -0.0412  0.1344
 9526TIP3    H152773   2.307   3.381   6.387 -0.5499  1.4264  1.4353
 9526TIP3    H252774   2.331   3.241   6.439 -2.9629  1.0380  1.6158
 9527TIP3   OH252775   1.019   1.336   6.755  0.0508  0.2561 -0.2285
 9527TIP3    H152776   1.095   1.308   6.805  0.8164  0.9101 -0.9937
 9527TIP3    H252777   1.003   1.265   6.693 -0.1619 -0.0192  0.1379
 9528TIP3   OH252778   1.716   1.102   6.824 -0.2365 -0.3493 -0.1669
 9528TIP3    H152779   1.703   1.022   6.875  1.0487 -0.5296 -0.1040
 9528TIP3    H252780   1.683   1.172   6.880  0.9096 -0.5773  0.8334
 9529TIP3   OH252781   0.993   1.503   7.733  0.1510  0.1656 -0.3854
 9529TIP3    H152782   1.029   1.494   7.822  0.7957  1.3928 -0.4983
 9529TIP3    H252783   0.898   1.509   7.746  0.3739  3.3392  0.5585
 9530TIP3   OH252784   2.495   1.834   7.326  0.2737  0.4498 -0.2677
 9530TIP3    H152785   2.499   1.865   7.417  0.0460  0.5711 -0.2972
 9530TIP3    H252786   2.439   1.898   7.282  3.9162  3.0581 -1.5910
 9531TIP3   OH252787   5.752   1.532   6.100  0.3766  0.3784 -0.8930
 9531TIP3    H152788   5.785   1.554   6.187 -0.8986 -0.4288 -0.1812
 9531TIP3    H252789   5.767   1.438   6.091  1.5459  0.6438 -2.0320
 9532TIP3   OH252790   4.498   1.303   5.847 -0.4619 -0.3592 -0.3685
 9532TIP3    H152791   4.425   1.331   5.902  0.4098 -1.5551  1.5234
 9532TIP3    H252792   4.569   1.285   5.909  0.6975 -1.4412 -1.9262
 9533TIP3   OH252793   5.999   0.603   7.497  0.2766  0.0647  0.1094
 9533TIP3    H152794   6.020   0.516   7.463  0.1468 -0.4017  1.1660
 9533TIP3    H252795   6.004   0.661   7.421  2.9036 -0.4057 -0.1727
 9534TIP3   OH252796   0.482   4.512   8.086 -0.0785  0.7522  0.0312
 9534TIP3    H152797   0.412   4.577   8.085 -0.7453  0.0473  0.3939
 9534TIP3    H252798   0.441   4.432   8.119  1.0872  0.5594  1.0831
 9535TIP3   OH252799   5.722   5.035   6.357 -0.4082  0.3770  1.1632
 9535TIP3    H152800   5.782   4.993   6.296 -2.1976 -0.3973 -0.1661
 9535TIP3    H252801   5.771   5.041   6.439  0.2771 -3.7521  1.2792
 9536TIP3   OH252802   0.881   3.084   7.124  0.1117  0.5719 -0.2603
 9536TIP3    H152803   0.802   3.137   7.111  1.1687  2.0461 -1.0493
 9536TIP3    H252804   0.906   3.101   7.215 -1.9346 -2.0857  0.9176
 9537TIP3   OH252805   5.367   5.713   8.385 -0.4907 -0.0895 -0.8654
 9537TIP3    H152806   5.451   5.715   8.338  1.2541  2.6596  1.9146
 9537TIP3    H252807   5.312   5.776   8.338  0.5991  1.2981 -0.3670
 9538TIP3   OH252808   1.465   1.501   6.701 -0.0362 -0.1606  0.5728
 9538TIP3    H152809   1.446   1.413   6.669  0.8532 -0.9073  1.9609
 9538TIP3    H252810   1.555   1.518   6.674 -0.0811  0.1694  0.6272
 9539TIP3   OH252811   1.301   1.240   6.888  0.4813 -0.1264 -0.3801
 9539TIP3    H152812   1.312   1.189   6.809 -0.2602  0.7194 -1.0573
 9539TIP3    H252813   1.390   1.261   6.917  0.7974 -1.7662 -0.0755
 9540TIP3   OH252814   4.065   1.560   7.609 -0.1004  0.2176  0.4971
 9540TIP3    H152815   4.150   1.601   7.595  0.8622 -1.8802 -0.3316
 9540TIP3    H252816   4.002   1.619   7.568  0.8234  2.1800  1.7777
 9541TIP3   OH252817   5.691   5.995   7.372 -0.1373 -0.2454 -0.0562
 9541TIP3    H152818   5.622   5.930   7.387 -0.1584 -0.1427  0.2997
 9541TIP3    H252819   5.651   6.078   7.398  0.2929 -0.2564  0.6568
 9542TIP3   OH252820   4.728   6.621   8.375 -0.0574 -0.8430  0.6876
 9542TIP3    H152821   4.804   6.587   8.423 -0.1370  1.5665  2.7489
 9542TIP3    H252822   4.766   6.666   8.299  0.3602 -1.7269  0.3630
 9543TIP3   OH252823   1.183   0.893   6.736  0.7036 -0.2952 -0.5605
 9543TIP3    H152824   1.202   0.803   6.709  1.3312 -0.1599 -0.6025
 9543TIP3    H252825   1.121   0.885   6.808  0.1290 -0.7239 -1.0934
 9544TIP3   OH252826   1.155   5.140   6.929  0.0356  0.1290 -0.6332
 9544TIP3    H152827   1.065   5.112   6.912  0.4153 -1.0475 -0.7962
 9544TIP3    H252828   1.151   5.182   7.015 -0.6213 -0.1911 -0.5035
 9545TIP3   OH252829   5.206   2.908   7.327  0.1534  0.1693  0.0730
 9545TIP3    H152830   5.238   2.992   7.295  1.4362  0.1092  1.0927
 9545TIP3    H252831   5.237   2.903   7.417  0.1716 -1.4146  0.0174
 9546TIP3   OH252832   3.313   3.766   6.977 -0.2982 -0.2792 -0.1342
 9546TIP3    H152833   3.403   3.771   6.946  0.2859  1.0214  1.5961
 9546TIP3    H252834   3.260   3.782   6.899  0.9562 -0.8574 -1.1432
 9547TIP3   OH252835   5.036   4.736   8.406 -0.9068  0.7071 -0.1551
 9547TIP3    H152836   5.122   4.701   8.431  0.6611  3.3885 -1.4564
 9547TIP3    H252837   5.027   4.714   8.313 -0.7927  1.9555 -0.4758
 9548TIP3   OH252838   3.380   2.731   8.017 -0.1500 -0.1497  0.2841
 9548TIP3    H152839   3.296   2.702   8.052 -0.2068  0.7115  0.9127
 9548TIP3    H252840   3.415   2.789   8.085  0.3216  0.5918 -0.5694
 9549TIP3   OH252841   5.369   2.832   6.138  0.1275 -0.7421 -0.0348
 9549TIP3    H152842   5.391   2.920   6.105 -0.1101 -0.2276  1.1172
 9549TIP3    H252843   5.381   2.839   6.232  0.2150 -1.9983  0.0509
 9550TIP3   OH252844   6.542   5.770   6.103 -0.1070 -0.0195  0.0590
 9550TIP3    H152845   6.543   5.860   6.070  0.5208  0.4043  1.1751
 9550TIP3    H252846   6.562   5.779   6.196  0.6599 -1.3650  0.0430
 9551TIP3   OH252847   3.254   4.231   5.736 -0.2006  0.3499 -0.2228
 9551TIP3    H152848   3.257   4.226   5.832  1.6256  0.1553 -0.2545
 9551TIP3    H252849   3.284   4.145   5.706 -1.0428  0.3086 -0.9794
 9552TIP3   OH252850   2.522   4.012   7.873 -0.3335  0.1344  0.1267
 9552TIP3    H152851   2.570   4.047   7.948 -1.0705  0.3144  0.5172
 9552TIP3    H252852   2.512   4.086   7.813 -0.0921  0.0866  0.0262
 9553TIP3   OH252853   3.357   4.951   7.184  0.8759  0.5442  0.5325
 9553TIP3    H152854   3.372   4.921   7.094  2.9096  0.2977  0.9025
 9553TIP3    H252855   3.429   5.012   7.202  2.2082 -1.4929  2.8478
 9554TIP3   OH252856   3.794   1.510   6.884  0.2830  0.1797  0.1353
 9554TIP3    H152857   3.828   1.534   6.970  1.2591  0.7327 -0.3857
 9554TIP3    H252858   3.852   1.554   6.822 -0.2381 -0.4292 -0.8145
 9555TIP3   OH252859   2.796   1.672   6.609  0.0320  0.2719 -0.2017
 9555TIP3    H152860   2.809   1.594   6.555 -2.6020  0.5602 -1.4010
 9555TIP3    H252861   2.806   1.640   6.699 -0.6397 -1.3931 -0.6770
 9556TIP3   OH252862   1.684   4.503   8.356 -0.3704 -0.1607  0.0805
 9556TIP3    H152863   1.621   4.499   8.428  0.1814  0.8630  0.6332
 9556TIP3    H252864   1.720   4.415   8.350  1.4990  0.3201  2.8195
 9557TIP3   OH252865   5.347   0.196   6.953  0.4988  0.4781  0.2128
 9557TIP3    H152866   5.280   0.172   7.017 -1.6048  1.9530 -1.2954
 9557TIP3    H252867   5.311   0.167   6.869  0.3485  3.7621 -0.9929
 9558TIP3   OH252868   2.708   0.488   6.896 -0.9899 -0.3627 -0.4712
 9558TIP3    H152869   2.687   0.430   6.969 -1.3226 -0.4390 -0.6297
 9558TIP3    H252870   2.699   0.433   6.818  1.3488 -0.8789 -0.4754
 9559TIP3   OH252871   2.061   6.494   5.990  0.9388 -0.2529 -0.5282
 9559TIP3    H152872   1.998   6.474   6.059 -0.3018 -0.0889 -1.5708
 9559TIP3    H252873   2.137   6.531   6.035  0.0218  0.1643  0.7019
 9560TIP3   OH252874   3.509   0.225   7.994  0.1157 -0.4076  0.3155
 9560TIP3    H152875   3.557   0.153   8.036  0.8709  0.8563  1.7105
 9560TIP3    H252876   3.566   0.252   7.922  1.3585  0.7274  1.6370
 9561TIP3   OH252877   1.181   4.891   8.016 -0.0095 -0.0636  0.4740
 9561TIP3    H152878   1.112   4.891   8.082 -0.7010  0.3063 -0.2339
 9561TIP3    H252879   1.262   4.895   8.067 -0.5372  0.7734  1.2954
 9562TIP3   OH252880   3.650   0.340   7.713 -0.2873 -0.3437 -0.7506
 9562TIP3    H152881   3.565   0.332   7.670 -0.2876  0.9280 -1.0284
 9562TIP3    H252882   3.709   0.372   7.645  0.3713 -1.0100 -0.5041
 9563TIP3   OH252883   3.295   6.266   6.461 -0.3045  0.2421  0.2076
 9563TIP3    H152884   3.384   6.262   6.495  0.3139  0.9946 -1.2515
 9563TIP3    H252885   3.256   6.343   6.503  0.3931  1.0612 -0.6042
 9564TIP3   OH252886   1.566   0.156   6.293 -0.3792  0.2855  0.4045
 9564TIP3    H152887   1.598   0.130   6.379 -0.4226 -0.8166  0.1017
 9564TIP3    H252888   1.475   0.182   6.308  0.1476  1.8734  0.9874
 9565TIP3   OH252889   4.250   4.357   6.473 -0.1889  0.8979  0.1469
 9565TIP3    H152890   4.256   4.312   6.388 -1.2013 -1.4451  1.2219
 9565TIP3    H252891   4.158   4.379   6.482 -0.1226  0.9305  0.7384
 9566TIP3   OH252892   1.553   6.000   7.957 -0.3603  0.8005 -0.2388
 9566TIP3    H152893   1.460   6.016   7.973 -0.0494  1.3719  1.1252
 9566TIP3    H252894   1.595   6.015   8.041  1.1796  2.1396 -1.1948
 9567TIP3   OH252895   3.096   0.361   5.957  0.5818 -0.1733  0.1382
 9567TIP3    H152896   3.082   0.376   6.051 -0.4290  1.1264 -0.1956
 9567TIP3    H252897   3.164   0.423   5.933 -0.3879  0.7526 -0.3163
 9568TIP3   OH252898   1.818   2.444   7.002 -0.1470  0.3902  0.1124
 9568TIP3    H152899   1.786   2.353   7.002  0.7929  0.0514  0.4652
 9568TIP3    H252900   1.890   2.444   6.940 -1.0886  1.2628 -1.0202
 9569TIP3   OH252901   3.944   2.494   6.070  0.0799 -0.1783  0.1600
 9569TIP3    H152902   3.868   2.469   6.017 -1.1705  0.0771  1.7446
 9569TIP3    H252903   3.906   2.534   6.149  1.8695 -0.0580  1.0131
 9570TIP3   OH252904   4.609   3.433   6.849 -0.9151 -0.0507 -0.4547
 9570TIP3    H152905   4.616   3.461   6.757 -1.4588  0.4612 -0.3419
 9570TIP3    H252906   4.566   3.506   6.893 -1.4094 -0.6404  0.0526
 9571TIP3   OH252907   2.802   5.979   7.225  0.1445  0.4826 -0.0151
 9571TIP3    H152908   2.837   6.060   7.261 -0.3982  1.1588 -0.9416
 9571TIP3    H252909   2.872   5.915   7.236  0.4094  0.9470  1.1584
 9572TIP3   OH252910   3.649   3.388   6.797  0.1119  0.3500 -0.3353
 9572TIP3    H152911   3.603   3.306   6.815  0.6624  0.4062  1.5620
 9572TIP3    H252912   3.737   3.361   6.772  0.2006  0.3322 -0.0167
 9573TIP3   OH252913   0.156   5.368   8.507 -0.3066 -0.3327  0.2428
 9573TIP3    H152914   0.194   5.456   8.498 -0.7957 -0.2006 -0.6025
 9573TIP3    H252915   0.063   5.380   8.490 -0.3566 -1.0407 -0.0177
 9574TIP3   OH252916   4.483   1.668   8.530  0.2011 -0.9618  0.5270
 9574TIP3    H152917   4.494   1.600   8.597  0.4454 -2.0366 -0.5510
 9574TIP3    H252918   4.449   1.744   8.577  0.7623 -1.5425  1.9280
 9575TIP3   OH252919   2.290   5.537   7.723  0.0885 -0.1792  0.5588
 9575TIP3    H152920   2.296   5.495   7.809  0.3176  0.4335  0.8466
 9575TIP3    H252921   2.214   5.495   7.682 -1.5230  1.1494  1.9875
 9576TIP3   OH252922   5.917   5.745   8.718 -0.6889 -1.0559  0.1346
 9576TIP3    H152923   5.956   5.716   8.801  0.4421  0.6169  0.2507
 9576TIP3    H252924   5.950   5.683   8.653  2.3514  0.2822  0.2217
 9577TIP3   OH252925   2.284   0.484   7.528  0.0226  0.2305 -0.2716
 9577TIP3    H152926   2.254   0.439   7.448  0.2829  0.9129 -0.7563
 9577TIP3    H252927   2.359   0.433   7.557 -0.6363 -0.5746  0.0747
 9578TIP3   OH252928   2.190   5.146   7.072 -0.4466  0.8004 -0.3003
 9578TIP3    H152929   2.151   5.171   7.156 -2.0237 -1.3935 -0.3003
 9578TIP3    H252930   2.134   5.186   7.006 -0.3090  0.9586 -0.3242
 9579TIP3   OH252931   4.198   3.578   8.052  0.5097 -0.1234  0.2411
 9579TIP3    H152932   4.148   3.539   8.125  0.5324 -0.2791  0.1744
 9579TIP3    H252933   4.281   3.531   8.053  0.9211  0.5974  0.7735
 9580TIP3   OH252934   4.518   2.310   7.611  0.3024 -0.2325  0.0595
 9580TIP3    H152935   4.570   2.253   7.667 -0.2674 -1.0303 -0.1995
 9580TIP3    H252936   4.433   2.317   7.655 -0.1097 -0.7637 -0.6183
 9581TIP3   OH252937   4.666   2.286   5.365  0.2016 -0.4692 -0.0900
 9581TIP3    H152938   4.588   2.341   5.368 -0.3299 -1.2079  0.0190
 9581TIP3    H252939   4.659   2.229   5.442  1.5581  0.3671  0.6996
 9582TIP3   OH252940   1.986   5.135   8.109  0.0497  0.2254 -0.4510
 9582TIP3    H152941   2.077   5.109   8.125 -0.3246 -0.8987 -0.1151
 9582TIP3    H252942   1.992   5.229   8.090  1.2308  0.2576 -0.0166
 9583TIP3   OH252943   3.604   3.530   7.089  0.1667 -0.4072 -0.0822
 9583TIP3    H152944   3.556   3.486   7.159  0.5528 -0.9762 -0.1631
 9583TIP3    H252945   3.648   3.458   7.042  1.0751  0.0984 -0.0191
 9584TIP3   OH252946   2.811   2.045   8.264 -0.2317  0.3514  0.7433
 9584TIP3    H152947   2.805   2.115   8.199  0.2884  0.6801  1.0436
 9584TIP3    H252948   2.754   2.074   8.335  0.7065  0.9289  1.2773
 9585TIP3   OH252949   4.574   6.704   5.934  0.2374 -0.5662 -0.2637
 9585TIP3    H152950   4.563   6.610   5.920 -2.6311 -0.3490 -0.0544
 9585TIP3    H252951   4.603   6.738   5.849  0.5215 -1.5184 -0.5623
 9586TIP3   OH252952   6.374   5.226   6.414  0.8554 -0.5500  0.3357
 9586TIP3    H152953   6.319   5.197   6.488 -0.4579 -0.4884 -0.5804
 9586TIP3    H252954   6.410   5.144   6.378 -0.3155 -0.7993 -0.3140
 9587TIP3   OH252955   4.281   1.448   7.026 -0.0978  0.5649 -0.3847
 9587TIP3    H152956   4.245   1.455   7.115 -0.2616 -2.7716 -0.0614
 9587TIP3    H252957   4.360   1.502   7.029 -0.2169  0.7333  1.7467
 9588TIP3   OH252958   1.598   6.424   6.336 -0.1145  0.8517  0.5071
 9588TIP3    H152959   1.617   6.338   6.372  0.0780  0.3426 -0.7821
 9588TIP3    H252960   1.506   6.419   6.309  0.8549 -0.2917 -3.0748
 9589TIP3   OH252961   1.389   5.460   7.695  0.8108  0.3846 -0.2812
 9589TIP3    H152962   1.427   5.546   7.712 -0.3933  0.7338  0.8564
 9589TIP3    H252963   1.463   5.405   7.670  1.7890  1.4321  0.2336
 9590TIP3   OH252964   0.355   0.349   7.891 -0.1840 -0.2441  0.1878
 9590TIP3    H152965   0.289   0.407   7.928 -1.3641 -0.9779 -0.7089
 9590TIP3    H252966   0.373   0.286   7.960 -0.0981  0.2009  0.5813
 9591TIP3   OH252967   6.250   6.563   9.028 -0.0902  0.2828 -0.0569
 9591TIP3    H152968   6.164   6.567   8.986 -0.1951  1.2624  0.2105
 9591TIP3    H252969   6.233   6.526   9.114 -0.3358  0.9669  0.1950
 9592TIP3   OH252970   5.055   4.804   8.729 -0.0771  0.5375  0.1226
 9592TIP3    H152971   5.148   4.786   8.735  0.7320  3.6272 -0.9213
 9592TIP3    H252972   5.021   4.739   8.667  1.8585  0.6768 -1.1538
 9593TIP3   OH252973   6.349   2.990   8.474 -0.1931  0.1542 -0.5984
 9593TIP3    H152974   6.391   2.950   8.398 -0.7823  0.1187 -0.9143
 9593TIP3    H252975   6.294   2.921   8.510  0.2039  0.1236 -0.0413
 9594TIP3   OH252976   3.785   3.462   5.586 -0.3762  0.4195  0.0836
 9594TIP3    H152977   3.794   3.373   5.552 -4.5083 -0.0821 -0.1634
 9594TIP3    H252978   3.871   3.502   5.571  0.5316 -2.2925 -3.4036
 9595TIP3   OH252979   3.116   5.685   6.439  0.0578 -0.3303 -0.0994
 9595TIP3    H152980   3.123   5.730   6.355  1.7475 -0.5400 -0.1159
 9595TIP3    H252981   3.104   5.593   6.416  0.3058 -0.3584 -0.1269
 9596TIP3   OH252982   5.205   0.643   6.692  0.0530 -0.0048  0.2238
 9596TIP3    H152983   5.221   0.600   6.608 -1.6317 -2.4873  1.0455
 9596TIP3    H252984   5.289   0.683   6.715  1.7685 -2.6891 -0.8003
 9597TIP3   OH252985   3.660   6.465   7.628  0.2069  0.3982  0.2640
 9597TIP3    H152986   3.568   6.439   7.634  0.1937  0.1513 -0.7905
 9597TIP3    H252987   3.702   6.421   7.702 -0.1869 -1.0372 -0.3284
 9598TIP3   OH252988   3.813   5.039   8.423  0.1475 -0.2930  0.1753
 9598TIP3    H152989   3.877   5.106   8.450 -0.2936 -0.2539  1.1675
 9598TIP3    H252990   3.825   4.968   8.487 -0.8664 -0.2383  0.4354
 9599TIP3   OH252991   0.292   3.130   7.378 -0.0901  0.6115 -0.1928
 9599TIP3    H152992   0.387   3.135   7.392  0.1685 -0.9413 -1.1697
 9599TIP3    H252993   0.266   3.050   7.424 -0.8890  0.8627 -0.2018
 9600TIP3   OH252994   3.556   0.337   6.319  0.0114 -0.1868  0.3079
 9600TIP3    H152995   3.589   0.419   6.283 -0.4242 -0.7047 -1.3323
 9600TIP3    H252996   3.541   0.356   6.412  1.2289  1.1651  0.2500
 9601TIP3   OH252997   4.410   6.439   7.016  0.0400  0.4327 -0.2584
 9601TIP3    H152998   4.497   6.413   7.047 -0.1247 -2.5297 -1.8901
 9601TIP3    H252999   4.350   6.383   7.065 -0.8315  1.4099 -0.2002
 9602TIP3   OH253000   0.607   4.886   8.488 -0.3315  0.2361  0.5439
 9602TIP3    H153001   0.641   4.804   8.453  0.1920  0.6563  0.0479
 9602TIP3    H253002   0.521   4.863   8.525 -0.5779 -0.3542 -0.3641
 9603TIP3   OH253003   1.937   1.067   6.659 -0.3710  0.1315 -0.4429
 9603TIP3    H153004   1.856   1.057   6.710 -0.1524 -0.0496 -0.1208
 9603TIP3    H253005   1.921   1.019   6.578 -0.4021 -0.3436 -0.1588
 9604TIP3   OH253006   6.175   5.397   8.209 -0.4331  0.5996 -0.5649
 9604TIP3    H153007   6.268   5.377   8.197 -0.4807  0.4444 -0.6842
 9604TIP3    H253008   6.147   5.341   8.282 -0.0724  1.7573  0.4940
 9605TIP3   OH253009   0.338   6.577   7.646  0.2061  0.3376 -0.4297
 9605TIP3    H153010   0.356   6.484   7.657 -0.7227 -0.1983 -2.8046
 9605TIP3    H253011   0.258   6.580   7.593  0.7488  2.4843 -1.2435
 9606TIP3   OH253012   3.907   0.147   5.705 -0.0111  0.2894 -0.1454
 9606TIP3    H153013   3.921   0.216   5.640  1.0489 -1.3474 -1.7429
 9606TIP3    H253014   3.990   0.099   5.707 -0.5922 -0.7248  1.2102
 9607TIP3   OH253015   2.789   3.826   8.066  0.0728 -0.6347 -0.0076
 9607TIP3    H153016   2.805   3.919   8.056  0.4192 -0.7620 -0.7200
 9607TIP3    H253017   2.813   3.807   8.157  1.4006 -0.2959 -0.2608
 9608TIP3   OH253018   4.867   1.708   8.780 -0.4001 -0.0474 -0.6251
 9608TIP3    H153019   4.950   1.673   8.748 -0.2902  2.0012 -2.8134
 9608TIP3    H253020   4.891   1.755   8.860 -0.1023 -2.3053  0.7137
 9609TIP3   OH253021   3.658   0.727   8.043 -0.2735  0.2589  0.1276
 9609TIP3    H153022   3.660   0.808   8.093  0.6548 -0.8814  2.0264
 9609TIP3    H253023   3.749   0.700   8.036 -0.7089 -1.7424  1.4785
 9610TIP3   OH253024   6.444   4.880   8.351 -0.0918 -0.3637 -0.1259
 9610TIP3    H153025   6.408   4.896   8.264 -0.1927 -0.7310 -0.1562
 9610TIP3    H253026   6.431   4.962   8.398 -1.3199 -0.6100 -0.0168
 9611TIP3   OH253027   3.365   5.107   8.427  0.1369 -0.3924 -0.2269
 9611TIP3    H153028   3.443   5.147   8.466  0.1536 -0.7955  0.1544
 9611TIP3    H253029   3.352   5.155   8.345  0.9260 -0.4901 -0.4092
 9612TIP3   OH253030   2.544   1.874   6.818 -0.3181 -0.0089 -0.5235
 9612TIP3    H153031   2.588   1.902   6.738 -0.0264  0.0433 -0.3474
 9612TIP3    H253032   2.486   1.803   6.791  0.5716 -0.7182 -0.6072
 9613TIP3   OH253033   6.270   3.191   8.030 -0.5729 -0.0445 -0.0654
 9613TIP3    H153034   6.226   3.240   7.961  0.6827  1.4060  0.1032
 9613TIP3    H253035   6.269   3.100   8.001 -0.4579  0.4803 -1.7823
 9614TIP3   OH253036   1.634   4.416   9.045 -0.1425  0.1896 -0.4687
 9614TIP3    H153037   1.561   4.433   9.104  0.0129 -0.3671 -0.1106
 9614TIP3    H253038   1.707   4.393   9.102  0.3763  0.9192 -0.8126
 9615TIP3   OH253039   4.695   0.617   5.532 -0.4841  0.2090  0.7753
 9615TIP3    H153040   4.714   0.704   5.567 -0.4721  0.4655  0.1476
 9615TIP3    H253041   4.778   0.570   5.537  0.0216  0.8756 -0.6743
 9616TIP3   OH253042   2.248   2.395   6.655 -0.1332 -0.0080 -0.6017
 9616TIP3    H153043   2.242   2.417   6.562  0.9080  1.5275 -0.3588
 9616TIP3    H253044   2.284   2.307   6.657 -1.6713 -0.7127 -1.6449
 9617TIP3   OH253045   4.954   1.786   6.665 -0.1850 -0.2440  0.2978
 9617TIP3    H153046   4.893   1.825   6.727 -1.3008  1.1469 -1.5556
 9617TIP3    H253047   4.937   1.832   6.583  2.1074 -1.1119 -0.7462
 9618TIP3   OH253048   6.004   4.976   8.392  0.3331  0.4982  0.4158
 9618TIP3    H153049   5.975   4.898   8.441 -0.9833  0.3475 -0.5300
 9618TIP3    H253050   6.048   4.940   8.315  1.2976  0.7213  0.8538
 9619TIP3   OH253051   1.061   1.451   7.996 -0.4598  0.0931 -0.2379
 9619TIP3    H153052   1.152   1.468   8.020 -0.6442  1.3296 -0.3496
 9619TIP3    H253053   1.034   1.378   8.052  0.8159 -0.8006 -0.7404
 9620TIP3   OH253054   3.047   4.125   6.411  0.1521 -0.3351 -0.6023
 9620TIP3    H153055   3.143   4.122   6.404  0.2242 -1.8140  0.5069
 9620TIP3    H253056   3.029   4.109   6.504 -1.1852 -0.3172 -0.8369
 9621TIP3   OH253057   3.695   5.327   6.009 -0.1958  0.0128  0.5466
 9621TIP3    H153058   3.687   5.406   5.956 -1.1689 -0.5067 -0.0960
 9621TIP3    H253059   3.663   5.257   5.953 -1.9059 -0.4574  2.0138
 9622TIP3   OH253060   1.982   4.403   8.585 -0.3473  0.0375 -0.3198
 9622TIP3    H153061   2.066   4.394   8.631 -1.1229 -0.1977  1.1328
 9622TIP3    H253062   1.990   4.348   8.508  1.9368  2.4032 -1.9469
 9623TIP3   OH253063   3.183   3.718   7.384  0.3502  0.2246  0.0700
 9623TIP3    H153064   3.090   3.701   7.401  0.2552  0.5586 -0.1132
 9623TIP3    H253065   3.202   3.668   7.304 -0.0810  1.4249 -0.8158
 9624TIP3   OH253066   2.594   1.931   7.581  0.9177 -0.2399  0.7555
 9624TIP3    H153067   2.657   1.910   7.650  1.2839  3.2504  1.7094
 9624TIP3    H253068   2.525   1.980   7.626  0.7219  1.4007 -1.1516
 9625TIP3   OH253069   3.970   3.153   8.267 -0.1074  0.2210  0.1637
 9625TIP3    H153070   3.929   3.118   8.346  0.6404  0.4010  0.6435
 9625TIP3    H253071   3.978   3.078   8.208 -0.0287 -0.0629  0.5368
 9626TIP3   OH253072   1.187   5.359   6.613 -0.4009  0.5878 -0.0331
 9626TIP3    H153073   1.195   5.419   6.687 -0.1917 -0.4245  0.7779
 9626TIP3    H253074   1.192   5.416   6.536 -0.0842  1.5974  0.7140
 9627TIP3   OH253075   3.607   0.059   6.445  0.1483  0.0895  0.2468
 9627TIP3    H153076   3.527   0.060   6.392 -1.1993  2.5269  2.1144
 9627TIP3    H253077   3.663   0.126   6.406 -0.1186  0.6775  0.8657
 9628TIP3   OH253078   3.753   1.964   7.468 -0.3715  0.2855  0.6514
 9628TIP3    H153079   3.809   1.996   7.398  0.5838  0.2078  1.3669
 9628TIP3    H253080   3.744   2.038   7.528 -2.1130  0.7262 -0.0730
 9629TIP3   OH253081   4.883   3.446   8.330  0.2863  0.4288  0.2977
 9629TIP3    H153082   4.910   3.458   8.421 -0.5549  2.0012  0.3730
 9629TIP3    H253083   4.804   3.393   8.335 -1.0449  2.3330  0.7207
 9630TIP3   OH253084   2.874   0.591   8.132  0.5206  0.4344  0.3296
 9630TIP3    H153085   2.913   0.648   8.065  1.7328 -0.5412  0.1833
 9630TIP3    H253086   2.820   0.650   8.184 -0.9633  1.1537 -1.8468
 9631TIP3   OH253087   4.793   3.406   6.022  0.3151  0.1520 -0.3862
 9631TIP3    H153088   4.886   3.388   6.010  0.5680  1.2860 -0.2278
 9631TIP3    H253089   4.762   3.434   5.936  0.4064  0.9494 -0.1672
 9632TIP3   OH253090   3.255   4.266   7.784 -0.4852  0.3073 -0.3056
 9632TIP3    H153091   3.269   4.318   7.705  0.8089  2.0191  0.9716
 9632TIP3    H253092   3.327   4.204   7.785  2.1683  3.1128  1.5886
 9633TIP3   OH253093   5.649   4.896   8.516  0.2229  0.5722  0.2731
 9633TIP3    H153094   5.692   4.943   8.588  1.0687 -0.7238  0.6391
 9633TIP3    H253095   5.636   4.808   8.549 -2.2836  0.7627 -0.0497
 9634TIP3   OH253096   2.044   4.903   6.720 -0.1251  0.1593  0.4818
 9634TIP3    H153097   2.049   4.964   6.794  0.2225 -0.7812  1.2481
 9634TIP3    H253098   2.012   4.957   6.647  1.2937  1.5436  0.8244
 9635TIP3   OH253099   1.577   0.786   6.213 -0.1458  0.5657 -0.2896
 9635TIP3    H153100   1.535   0.838   6.282  1.6778  1.4476  0.2218
 9635TIP3    H253101   1.585   0.846   6.139 -0.0197  0.3418 -0.4597
 9636TIP3   OH253102   2.123   5.242   7.332  0.4597 -0.1308  0.5034
 9636TIP3    H153103   2.046   5.278   7.376  0.1930  0.2453 -0.2508
 9636TIP3    H253104   2.186   5.313   7.333  1.0739 -0.6628  1.7410
 9637TIP3   OH253105   2.284   2.449   6.966 -0.1665 -0.0888  0.0755
 9637TIP3    H153106   2.279   2.543   6.984 -2.3690 -0.6748  3.3627
 9637TIP3    H253107   2.200   2.427   6.927  0.3983 -0.7203 -0.8343
 9638TIP3   OH253108   4.332   1.442   6.558 -0.2205  0.5848 -0.4290
 9638TIP3    H153109   4.334   1.432   6.653 -1.0084 -1.4618 -0.5741
 9638TIP3    H253110   4.392   1.515   6.541  1.1038  0.0541  1.5179
 9639TIP3   OH253111   0.585   3.607   8.612  0.1094  0.9083  1.1126
 9639TIP3    H153112   0.585   3.683   8.554  0.4242  0.6196  0.7341
 9639TIP3    H253113   0.521   3.629   8.680 -0.5543  1.0907  0.4494
 9640TIP3   OH253114   6.099   5.109   7.827 -0.0571  0.2496 -0.4345
 9640TIP3    H153115   6.031   5.164   7.866 -0.3016 -0.7000  0.5168
 9640TIP3    H253116   6.120   5.152   7.744 -1.1992  1.0310 -0.3371
 9641TIP3   OH253117   1.017   3.112   6.898 -0.4425 -0.0521 -0.0775
 9641TIP3    H153118   0.967   3.085   6.975  0.2456 -2.7755 -0.4461
 9641TIP3    H253119   1.053   3.197   6.920 -3.2984  0.9641  1.0820
 9642TIP3   OH253120   3.350   6.388   7.761  0.2884  0.2092 -0.6380
 9642TIP3    H153121   3.272   6.335   7.749  0.2312  0.2123 -0.2963
 9642TIP3    H253122   3.318   6.479   7.765  0.4363  0.3161 -1.7103
 9643TIP3   OH253123   3.796   6.745   7.284  0.2332  0.2490 -0.3531
 9643TIP3    H153124   3.800   6.713   7.194 -0.8594 -1.2553  0.0849
 9643TIP3    H253125   3.836   6.675   7.336 -3.7995 -1.4830  0.8412
 9644TIP3   OH253126   2.617   5.245   6.067  0.6829  0.5019  0.3864
 9644TIP3    H153127   2.596   5.242   6.161  1.1341 -0.8901  0.4569
 9644TIP3    H253128   2.634   5.154   6.043 -1.1032  0.5718 -1.4434
 9645TIP3   OH253129   6.048   3.255   7.334 -0.2867  0.5612 -0.3550
 9645TIP3    H153130   6.059   3.195   7.408  0.6477 -0.9098 -1.6126
 9645TIP3    H253131   5.960   3.238   7.302  0.2899 -0.8760 -1.2670
 9646TIP3   OH253132   3.055   5.782   9.255 -0.1782  0.3919 -0.0860
 9646TIP3    H153133   3.147   5.765   9.276  0.4151  1.9261 -1.2458
 9646TIP3    H253134   3.006   5.732   9.320  1.4639 -0.7133  0.3630
 9647TIP3   OH253135   2.549   5.498   7.322 -1.2651  0.3976  0.0881
 9647TIP3    H153136   2.530   5.537   7.237 -2.0066  1.1687  0.5954
 9647TIP3    H253137   2.559   5.572   7.381 -1.5634 -0.1469  0.8422
 9648TIP3   OH253138   0.376   0.200   6.007  0.5971  0.1110  0.1614
 9648TIP3    H153139   0.282   0.189   6.023  0.1365  1.7466 -1.1206
 9648TIP3    H253140   0.388   0.294   6.002  2.5174 -0.0366  1.2724
 9649TIP3   OH253141   5.983   3.938   7.112  0.3000 -0.0265 -0.0995
 9649TIP3    H153142   6.013   3.913   7.200  0.0781 -0.0655 -0.0338
 9649TIP3    H253143   6.040   4.011   7.087  0.8997 -0.5453 -0.2588
 9650TIP3   OH253144   1.379   4.786   6.806 -0.1635 -0.0892  0.0562
 9650TIP3    H153145   1.371   4.855   6.873  0.4980  0.7653 -0.7282
 9650TIP3    H253146   1.291   4.749   6.801  0.0451 -1.0596  2.3072
 9651TIP3   OH253147   5.880   1.915   5.713  0.1685 -0.0550 -0.0413
 9651TIP3    H153148   5.803   1.876   5.670  0.4417 -1.4925  0.7145
 9651TIP3    H253149   5.885   1.871   5.798  1.8944 -0.0673 -0.1129
 9652TIP3   OH253150   4.605   5.750   8.885 -0.0821 -0.0819 -0.1004
 9652TIP3    H153151   4.701   5.753   8.882 -0.0625 -0.9455 -0.6129
 9652TIP3    H253152   4.583   5.785   8.971  0.7129 -0.2485  0.1804
 9653TIP3   OH253153   0.687   4.606   8.754  0.0714  0.4509  0.1849
 9653TIP3    H153154   0.598   4.575   8.736 -1.2140  3.6468  0.4551
 9653TIP3    H253155   0.706   4.577   8.843 -0.0253 -1.5547 -0.4016
 9654TIP3   OH253156   3.401   2.393   6.001 -0.1072  0.0209 -0.3163
 9654TIP3    H153157   3.440   2.364   6.083  0.5679  1.9016  0.0676
 9654TIP3    H253158   3.476   2.400   5.941 -0.1472  1.4824 -0.2200
 9655TIP3   OH253159   4.926   4.036   6.637  0.1792 -0.6617 -0.2386
 9655TIP3    H153160   5.007   4.066   6.680 -0.5512 -0.7307  1.2421
 9655TIP3    H253161   4.953   4.017   6.547  1.5135  0.6702 -0.1749
 9656TIP3   OH253162   0.253   5.180   8.318  0.0020 -0.4256  0.2348
 9656TIP3    H153163   0.271   5.107   8.378 -1.2645 -0.6410  0.3829
 9656TIP3    H253164   0.249   5.257   8.374  0.1504 -0.4317  0.2521
 9657TIP3   OH253165   1.906   1.302   6.475 -0.0754  0.0480  0.1577
 9657TIP3    H153166   1.967   1.231   6.491 -0.8069 -0.6248 -0.0029
 9657TIP3    H253167   1.825   1.259   6.446 -0.3504  0.9643 -0.4791
 9658TIP3   OH253168   4.455   6.246   8.321 -0.2101 -0.1321  0.0546
 9658TIP3    H153169   4.475   6.170   8.267 -0.6322 -0.0231 -0.2552
 9658TIP3    H253170   4.538   6.295   8.324 -0.7956  1.2053 -2.6630
 9659TIP3   OH253171   1.537   3.435   5.646 -1.0603 -0.5899  0.0494
 9659TIP3    H153172   1.483   3.457   5.570 -1.2528  0.4623  0.4684
 9659TIP3    H253173   1.476   3.442   5.720 -0.5517 -0.2572  0.4372
 9660TIP3   OH253174   4.069   6.601   7.677 -0.1543  0.2459 -0.9885
 9660TIP3    H153175   3.982   6.621   7.643 -0.9683 -0.6723  0.4579
 9660TIP3    H253176   4.072   6.506   7.682  0.4083  0.3066  0.2325
 9661TIP3   OH253177   6.068   4.539   6.851  0.4693 -0.7583 -0.5833
 9661TIP3    H153178   6.072   4.560   6.944 -0.1607  0.5321 -0.8254
 9661TIP3    H253179   6.017   4.458   6.847 -0.6434 -0.1301  0.1280
 9662TIP3   OH253180   2.483   6.453   5.706  0.3668 -0.0452 -0.3716
 9662TIP3    H153181   2.488   6.427   5.614  0.8271 -1.0817 -0.0666
 9662TIP3    H253182   2.426   6.530   5.706 -1.4344 -1.3098 -1.2691
 9663TIP3   OH253183   4.794   2.708   9.071  0.1997 -0.4468 -0.5805
 9663TIP3    H153184   4.772   2.799   9.054  1.7770  0.2741  0.9162
 9663TIP3    H253185   4.709   2.665   9.085 -0.5281  1.4854  1.6903
 9664TIP3   OH253186   1.599   5.061   6.363  0.0057 -0.0782 -0.9218
 9664TIP3    H153187   1.595   5.019   6.277  0.5427  2.3953 -2.2538
 9664TIP3    H253188   1.521   5.029   6.409 -1.4491  0.0766 -3.1171
 9665TIP3   OH253189   5.060   2.465   8.320 -0.0575  0.1020 -0.3835
 9665TIP3    H153190   5.027   2.554   8.309 -0.7023 -0.0592  0.2092
 9665TIP3    H253191   5.070   2.454   8.414 -0.1312 -0.5123 -0.4441
 9666TIP3   OH253192   4.799   4.101   8.357  0.6218  0.5308 -0.3760
 9666TIP3    H153193   4.799   4.036   8.428  0.7658  0.4081 -0.4885
 9666TIP3    H253194   4.805   4.050   8.277 -0.4160  0.6267 -0.5272
 9667TIP3   OH253195   2.741   5.505   6.880 -0.9376 -0.0291 -0.5085
 9667TIP3    H153196   2.776   5.464   6.959  1.6499  0.8411 -1.0716
 9667TIP3    H253197   2.647   5.494   6.885 -1.1316  1.8260  3.7761
 9668TIP3   OH253198   5.840   1.275   7.453  0.0717 -0.5194  0.3279
 9668TIP3    H153199   5.765   1.232   7.413  0.3223 -1.8784  1.2522
 9668TIP3    H253200   5.890   1.204   7.494  2.6656  0.0767 -1.4845
 9669TIP3   OH253201   5.645   3.167   9.570 -0.1370  0.2229 -0.4463
 9669TIP3    H153202   5.591   3.107   9.518  1.2135 -1.2106 -0.2772
 9669TIP3    H253203   5.593   3.247   9.576 -0.3716  0.5172 -4.0642
 9670TIP3   OH253204   2.053   0.349   7.724  0.2843 -0.5819  0.0422
 9670TIP3    H153205   2.065   0.439   7.696  0.8696 -0.6755 -0.0195
 9670TIP3    H253206   2.105   0.297   7.663  0.4893 -0.9012  0.4753
 9671TIP3   OH253207   0.791   5.528   7.743 -0.2767 -0.4551 -0.3832
 9671TIP3    H153208   0.820   5.591   7.809 -0.3476 -0.7347 -0.0830
 9671TIP3    H253209   0.739   5.580   7.681 -0.3238 -0.2151 -0.1433
 9672TIP3   OH253210   2.607   1.816   8.432  0.2587 -0.3183 -0.0627
 9672TIP3    H153211   2.536   1.772   8.477  1.0723 -1.5271  0.0713
 9672TIP3    H253212   2.686   1.790   8.479  1.1566 -1.7384 -2.2175
 9673TIP3   OH253213   3.873   2.310   8.308  0.2480  1.3428  0.6074
 9673TIP3    H153214   3.922   2.389   8.286  0.4513  1.7847  2.4438
 9673TIP3    H253215   3.927   2.267   8.375 -0.3809  0.2114  0.4081
 9674TIP3   OH253216   1.264   2.347   8.723 -0.2035  0.2117 -0.2812
 9674TIP3    H153217   1.192   2.293   8.754  0.4365 -0.7024 -0.3186
 9674TIP3    H253218   1.337   2.326   8.782 -0.0148  1.2373 -0.1411
 9675TIP3   OH253219   5.391   6.009   7.023  0.4755  0.5432  0.0458
 9675TIP3    H153220   5.344   5.933   7.059  3.4517 -0.9222  1.2316
 9675TIP3    H253221   5.395   6.070   7.097 -0.9697  1.4245 -0.5766
 9676TIP3   OH253222   4.404   6.147   6.662 -0.7215  0.9099 -0.2288
 9676TIP3    H153223   4.450   6.221   6.623  0.6333  0.8863  1.2257
 9676TIP3    H253224   4.346   6.186   6.728 -0.1766  0.7098  0.3778
 9677TIP3   OH253225   1.185   5.147   8.298 -0.4725  0.4513 -0.4328
 9677TIP3    H153226   1.096   5.143   8.264 -0.6621  0.0208  0.1035
 9677TIP3    H253227   1.180   5.107   8.385  0.4145 -0.4012 -0.7545
 9678TIP3   OH253228   1.629   5.444   8.637  0.3489  0.1140  0.1398
 9678TIP3    H153229   1.610   5.537   8.652  0.4715  0.0878  0.4705
 9678TIP3    H253230   1.547   5.409   8.601 -0.6645 -0.2381  2.5936
 9679TIP3   OH253231   4.571   0.373   7.995  0.2084  0.7256  0.1032
 9679TIP3    H153232   4.603   0.329   8.074 -0.6993  0.7155  0.4793
 9679TIP3    H253233   4.486   0.411   8.021  0.4783  1.8001 -0.5114
 9680TIP3   OH253234   6.192   3.504   6.426 -0.2701  0.0367 -0.4173
 9680TIP3    H153235   6.176   3.563   6.499  0.6830  0.9206 -0.8910
 9680TIP3    H253236   6.116   3.445   6.425 -1.0314  0.9756  0.3304
 9681TIP3   OH253237   5.468   2.421   6.922  0.4285 -0.4011  0.2258
 9681TIP3    H153238   5.386   2.447   6.965  0.1179  0.9802 -1.0913
 9681TIP3    H253239   5.453   2.331   6.893 -1.2732  0.3039 -1.3230
 9682TIP3   OH253240   0.237   1.997   7.040 -0.2012  0.4241  0.7780
 9682TIP3    H153241   0.178   2.030   6.972  0.7472  0.0293 -0.2775
 9682TIP3    H253242   0.304   2.065   7.049  0.1490  0.0925  0.6999
 9683TIP3   OH253243   2.858   3.799   9.612 -0.0183 -0.5616 -0.2744
 9683TIP3    H153244   2.786   3.862   9.623  0.0850 -0.1760 -1.6309
 9683TIP3    H253245   2.937   3.852   9.617  0.0962 -0.7029 -0.5439
 9684TIP3   OH253246   0.603   2.396   6.889  0.1302 -0.2266  0.1728
 9684TIP3    H153247   0.582   2.388   6.796 -0.6874 -1.1025  0.4122
 9684TIP3    H253248   0.684   2.347   6.900 -0.0195 -0.5160 -0.0039
 9685TIP3   OH253249   3.285   1.103   6.077 -0.0455  0.4680  0.0342
 9685TIP3    H153250   3.238   1.160   6.137 -0.1405 -1.1654  1.6173
 9685TIP3    H253251   3.217   1.062   6.024 -0.0659  0.9601 -0.3277
 9686TIP3   OH253252   3.776   4.047   7.925 -0.1703  0.0851 -0.3774
 9686TIP3    H153253   3.761   4.059   8.019  1.5642  1.1799 -0.1919
 9686TIP3    H253254   3.806   3.957   7.916  1.2637  0.4560  0.3881
 9687TIP3   OH253255   2.982   3.376   7.390  0.4772  0.4202  0.0189
 9687TIP3    H153256   2.891   3.383   7.419  0.0356 -0.0982 -1.1415
 9687TIP3    H253257   3.034   3.400   7.466 -0.6298  0.5055  0.7734
 9688TIP3   OH253258   2.659   6.176   7.042  0.4258 -0.1487 -0.5067
 9688TIP3    H153259   2.607   6.255   7.022  1.0616  0.2577 -0.5805
 9688TIP3    H253260   2.612   6.105   6.998 -0.7787 -0.0009  0.4658
 9689TIP3   OH253261   1.340   0.222   7.462  0.1156  0.0157  0.0467
 9689TIP3    H153262   1.362   0.304   7.418  2.0984 -1.1892 -1.4262
 9689TIP3    H253263   1.341   0.243   7.555  1.9710  1.4072 -0.2251
 9690TIP3   OH253264   3.295   0.030   7.648  0.2140 -0.4575 -0.3689
 9690TIP3    H153265   3.350   0.037   7.726 -1.5651  1.2563  0.8273
 9690TIP3    H253266   3.242  -0.048   7.663  0.2270 -0.4190 -0.1187
 9691TIP3   OH253267   4.404   4.444   8.351 -0.4829  0.2422 -0.2412
 9691TIP3    H153268   4.361   4.414   8.270 -1.5635 -1.5012  0.9129
 9691TIP3    H253269   4.350   4.408   8.421  0.4167  1.7402  1.2859
 9692TIP3   OH253270   1.732   1.118   8.878  0.0881  0.0949  0.2170
 9692TIP3    H153271   1.809   1.167   8.908  0.2129 -0.2517  0.4655
 9692TIP3    H253272   1.753   1.094   8.788  0.0440  0.4604  0.1073
 9693TIP3   OH253273   1.704   2.224   6.226 -0.2960  0.0068 -0.1237
 9693TIP3    H153274   1.755   2.142   6.222  2.1298  1.2322  2.1708
 9693TIP3    H253275   1.770   2.291   6.245 -2.5486  2.1005  0.7099
 9694TIP3   OH253276   6.510   4.182   6.981 -0.6811 -0.4682 -0.1164
 9694TIP3    H153277   6.581   4.153   6.923  0.0553  0.0037  0.5383
 9694TIP3    H253278   6.449   4.108   6.983 -0.1549 -0.9225 -0.6012
 9695TIP3   OH253279   0.366   1.123   8.322 -0.2575  0.0699 -0.2355
 9695TIP3    H153280   0.283   1.147   8.364  0.6192  0.6137  1.2790
 9695TIP3    H253281   0.366   1.027   8.320 -0.8888  0.0682 -0.1808
 9696TIP3   OH253282   6.248   1.483   8.530  0.0274  0.1278  0.2091
 9696TIP3    H153283   6.172   1.502   8.474  1.5768 -0.5187 -2.2858
 9696TIP3    H253284   6.246   1.552   8.597 -1.3550  1.6541 -1.2974
 9697TIP3   OH253285   2.322   5.358   5.606 -0.2576  0.2312  0.2196
 9697TIP3    H153286   2.379   5.300   5.656  0.5287  0.1448 -0.7447
 9697TIP3    H253287   2.373   5.380   5.528 -0.8165  1.6607  0.2304
 9698TIP3   OH253288   6.317   0.203   6.231  0.3727 -0.4429 -0.0076
 9698TIP3    H153289   6.249   0.223   6.296  1.0729  2.0072  0.0953
 9698TIP3    H253290   6.399   0.212   6.279  0.8666  0.3934 -0.9662
 9699TIP3   OH253291   3.063   5.461   8.099  0.2414  0.1431 -0.5447
 9699TIP3    H153292   3.120   5.525   8.142 -0.8187  0.0223  1.0777
 9699TIP3    H253293   2.980   5.466   8.146 -1.1488  0.2830 -2.8277
 9700TIP3   OH253294   1.925   5.346   6.342 -0.1282  0.0630 -0.6439
 9700TIP3    H153295   1.843   5.395   6.340 -1.0150 -1.2189  1.1336
 9700TIP3    H253296   1.956   5.356   6.432  0.8379 -0.7535 -0.8758
 9701TIP3   OH253297   5.809   1.955   6.036  0.4064 -0.2996  0.6452
 9701TIP3    H153298   5.896   1.925   6.062  0.3163 -2.2245 -1.0937
 9701TIP3    H253299   5.755   1.877   6.036 -0.8814  0.5504 -0.0612
 9702TIP3   OH253300   5.760   0.105   8.154 -0.5578  0.5893  0.4437
 9702TIP3    H153301   5.728   0.187   8.118 -0.0529  1.1534  1.2485
 9702TIP3    H253302   5.785   0.126   8.244 -0.9963 -0.5803  0.8651
 9703TIP3   OH253303   6.477   2.568   6.820 -0.4515  0.5102 -0.0167
 9703TIP3    H153304   6.406   2.505   6.815  0.9497 -1.0999 -0.7846
 9703TIP3    H253305   6.458   2.633   6.753 -1.9815  1.0275  0.8734
 9704TIP3   OH253306   3.233   5.836   7.915  0.2473 -0.6016  0.4680
 9704TIP3    H153307   3.213   5.876   7.999 -0.2437  0.1669 -0.0037
 9704TIP3    H253308   3.175   5.879   7.853  2.2195  0.5442 -0.6809
 9705TIP3   OH253309   0.497   3.310   7.774  0.3141 -0.0987  0.1237
 9705TIP3    H153310   0.552   3.330   7.698  0.3027 -0.5504 -0.0078
 9705TIP3    H253311   0.411   3.291   7.737  0.3493 -0.4810  0.2318
 9706TIP3   OH253312   2.151   3.079   7.726 -0.5041 -0.0549  0.3845
 9706TIP3    H153313   2.225   3.036   7.769 -0.2640  0.4342  0.4647
 9706TIP3    H253314   2.086   3.009   7.717  0.7067 -1.0120 -1.5457
 9707TIP3   OH253315   4.060   2.640   6.477  0.1322  0.2732  0.4457
 9707TIP3    H153316   4.098   2.553   6.489 -0.4426  0.1068  1.1430
 9707TIP3    H253317   3.970   2.623   6.450 -1.1340  0.5437  3.9981
 9708TIP3   OH253318   2.717   5.189   8.572  0.5193 -0.2440  0.0182
 9708TIP3    H153319   2.726   5.265   8.515 -1.4086  0.5067  0.6264
 9708TIP3    H253320   2.626   5.162   8.562  0.1418 -0.1743  2.5671
 9709TIP3   OH253321   3.727   1.885   9.048  0.0860  0.1692 -0.1314
 9709TIP3    H153322   3.799   1.937   9.012 -0.6828  1.1257 -0.3238
 9709TIP3    H253323   3.702   1.826   8.977  0.1077  0.4357 -0.3629
 9710TIP3   OH253324   5.490   1.953   5.998 -0.0896 -0.2624  0.2578
 9710TIP3    H153325   5.426   1.893   6.036  0.3464 -0.2732  1.0098
 9710TIP3    H253326   5.465   2.039   6.031 -0.0342 -0.1933  0.1196
 9711TIP3   OH253327   1.771   3.772   6.905  0.2383  0.0316 -0.2154
 9711TIP3    H153328   1.722   3.802   6.828  0.8556 -0.0251 -0.6445
 9711TIP3    H253329   1.747   3.680   6.915  1.1702 -0.3418 -1.1761
 9712TIP3   OH253330   1.153   3.722   7.001 -0.3421  0.1931 -0.0561
 9712TIP3    H153331   1.071   3.746   6.957 -0.5574  0.4675  0.4854
 9712TIP3    H253332   1.217   3.714   6.930 -0.2822  2.2173 -0.2700
 9713TIP3   OH253333   4.764   5.100   8.699 -0.0813 -0.1835 -0.1195
 9713TIP3    H153334   4.730   5.019   8.661  2.4909 -1.2659 -0.3883
 9713TIP3    H253335   4.735   5.098   8.790 -1.2026 -0.7059 -0.4803
 9714TIP3   OH253336   4.150   3.912   7.583 -0.1799 -0.2425 -0.1230
 9714TIP3    H153337   4.153   3.821   7.554 -1.3874  0.3381 -2.3476
 9714TIP3    H253338   4.239   3.932   7.610  0.2608 -1.8744 -0.2672
 9715TIP3   OH253339   0.373   5.397   6.024  0.2531 -0.7979 -0.5474
 9715TIP3    H153340   0.464   5.414   6.048  0.0859  0.9305 -0.9484
 9715TIP3    H253341   0.363   5.438   5.938 -1.4523  1.1986  0.4926
 9716TIP3   OH253342   4.822   5.980   8.995  0.5966 -0.2636  0.1026
 9716TIP3    H153343   4.840   6.071   8.970 -1.5459  0.1382 -0.1234
 9716TIP3    H253344   4.750   5.986   9.057 -0.5236 -1.8674 -0.9761
 9717TIP3   OH253345   4.383   0.139   8.041  0.1054  0.4008 -0.3150
 9717TIP3    H153346   4.449   0.195   8.080  0.7118  0.9429 -1.9998
 9717TIP3    H253347   4.433   0.083   7.981 -0.5586 -1.5458  0.8521
 9718TIP3   OH253348   5.757   5.978   5.904  0.3502 -0.3746 -0.9973
 9718TIP3    H153349   5.750   6.006   5.813  0.9565 -1.6263 -1.4533
 9718TIP3    H253350   5.784   6.057   5.952  0.4208  0.1935 -1.9504
 9719TIP3   OH253351   5.705   5.910   6.583 -0.0643  0.5862 -0.0544
 9719TIP3    H153352   5.700   5.818   6.559  0.5381  0.3923  0.5264
 9719TIP3    H253353   5.732   5.954   6.502 -0.2206  0.2342 -0.3003
 9720TIP3   OH253354   1.495   1.538   6.989 -0.1250 -0.0119 -0.4754
 9720TIP3    H153355   1.456   1.546   6.902 -1.3585  0.8192  0.1178
 9720TIP3    H253356   1.420   1.528   7.048  0.4949  1.9029  0.7494
 9721TIP3   OH253357   2.635   2.156   7.015 -0.0383 -1.0599  0.5067
 9721TIP3    H153358   2.701   2.193   6.956 -1.1863 -2.8213 -2.0393
 9721TIP3    H253359   2.667   2.068   7.035 -0.0744 -0.7800  1.9423
 9722TIP3   OH253360   6.243   1.463   7.609 -0.2329 -0.4217 -0.0593
 9722TIP3    H153361   6.158   1.433   7.642 -0.1378 -0.1807  0.4102
 9722TIP3    H253362   6.281   1.386   7.567 -1.1169 -0.2829 -1.1867
 9723TIP3   OH253363   1.645   0.367   7.084  0.1552  0.0456 -0.4107
 9723TIP3    H153364   1.568   0.324   7.047 -0.9228  0.5657  1.1026
 9723TIP3    H253365   1.720   0.328   7.039 -1.0040 -0.3536 -2.0442
 9724TIP3   OH253366   5.578   4.652   8.673  0.2335  0.2350 -0.1706
 9724TIP3    H153367   5.641   4.681   8.739  0.0239  1.2509 -0.3960
 9724TIP3    H253368   5.615   4.571   8.639  0.8144  0.1876  0.5352
 9725TIP3   OH253369   3.658   5.720   6.660  0.3989  0.4710  0.2111
 9725TIP3    H153370   3.695   5.692   6.577 -1.6882 -1.5616 -0.1405
 9725TIP3    H253371   3.619   5.806   6.642 -0.1027  0.0114 -0.9408
 9726TIP3   OH253372   6.500   6.387   8.948  1.0410  0.7004 -0.2218
 9726TIP3    H153373   6.578   6.432   8.980  1.3122 -1.6850  3.0283
 9726TIP3    H253374   6.428   6.447   8.966  1.6270  0.8699  1.7725
 9727TIP3   OH253375   2.910   4.195   7.407  0.1378 -0.9288  0.1867
 9727TIP3    H153376   2.998   4.222   7.381 -0.4150  0.8321  0.0346
 9727TIP3    H253377   2.885   4.258   7.475 -1.7957 -0.0639 -1.2464
 9728TIP3   OH253378   3.942   1.114   6.329 -0.5626 -0.8186 -0.2940
 9728TIP3    H153379   3.920   1.201   6.295 -0.9280 -0.2791  1.2618
 9728TIP3    H253380   4.026   1.126   6.372 -0.5093 -1.2966 -0.2630
 9729TIP3   OH253381   5.908   6.021   8.259  0.0801  0.4899  0.7702
 9729TIP3    H153382   5.963   6.017   8.181  0.0624  0.9859  0.7313
 9729TIP3    H253383   5.875   5.932   8.270  0.7646  0.2201  0.7019
 9730TIP3   OH253384   5.205   3.427   6.670  0.3864 -0.3995  0.0107
 9730TIP3    H153385   5.178   3.468   6.752 -1.6280  1.2951 -1.3657
 9730TIP3    H253386   5.250   3.347   6.696 -1.2216 -0.5423  2.7559
 9731TIP3   OH253387   3.761   5.478   6.282 -0.9078 -0.0885  0.2665
 9731TIP3    H153388   3.749   5.428   6.201 -0.4266 -0.2316  0.2760
 9731TIP3    H253389   3.696   5.547   6.277 -0.0946  0.6368 -0.8300
 9732TIP3   OH253390   3.042   6.252   7.966  0.0714 -0.4582 -0.1598
 9732TIP3    H153391   2.981   6.185   7.998  0.0732 -0.8155 -0.8993
 9732TIP3    H253392   3.073   6.219   7.882  1.3221 -0.2926  0.2181
 9733TIP3   OH253393   5.377   1.645   5.731 -0.5628 -0.1143 -0.2506
 9733TIP3    H153394   5.311   1.707   5.762  2.6432  4.1565 -1.0989
 9733TIP3    H253395   5.406   1.600   5.811 -2.3889  0.0086  0.5413
 9734TIP3   OH253396   3.279   4.195   5.998  0.0677  0.2003 -0.5359
 9734TIP3    H153397   3.312   4.236   6.079  0.4919 -0.9112 -0.1258
 9734TIP3    H253398   3.185   4.210   5.999  0.0349 -0.0300  0.3091
 9735TIP3   OH253399   5.509   5.556   5.820 -0.2978 -0.5313  0.3881
 9735TIP3    H153400   5.536   5.486   5.761  0.3353 -0.1900  0.2635
 9735TIP3    H253401   5.573   5.554   5.891 -0.8455 -0.7065  0.8786
 9736TIP3   OH253402   3.461   4.563   9.777 -0.0568 -0.6747 -0.1637
 9736TIP3    H153403   3.435   4.484   9.729  1.6018 -0.8126 -0.8969
 9736TIP3    H253404   3.477   4.628   9.708 -0.7317  0.1139  0.3955
 9737TIP3   OH253405   1.319   6.348   8.431 -0.0352  0.1502 -0.8722
 9737TIP3    H153406   1.379   6.333   8.504  0.4857  2.7088 -0.7059
 9737TIP3    H253407   1.240   6.384   8.471  0.1676  1.3613 -1.5247
 9738TIP3   OH253408   5.069   2.021   8.215 -0.2710 -0.7106 -0.5875
 9738TIP3    H153409   5.138   1.965   8.181 -1.1112 -1.5720 -0.9477
 9738TIP3    H253410   5.062   1.996   8.308 -0.0446 -0.5544 -0.5275
 9739TIP3   OH253411   5.499   0.392   6.717 -0.1018 -0.2732  0.7056
 9739TIP3    H153412   5.453   0.314   6.748 -2.5824  1.0152  0.5857
 9739TIP3    H253413   5.510   0.378   6.623 -2.3877  0.2941  0.2972
 9740TIP3   OH253414   0.789   1.107   7.088 -0.3347  0.3103  0.5079
 9740TIP3    H153415   0.754   1.100   7.000 -1.8701  2.0954  0.9261
 9740TIP3    H253416   0.800   1.016   7.117  1.1162 -0.3295 -1.8150
 9741TIP3   OH253417   5.235   4.004   7.878  0.0418 -0.2406  0.3663
 9741TIP3    H153418   5.229   3.952   7.958 -0.0900 -0.4896  0.1957
 9741TIP3    H253419   5.319   3.979   7.840  0.8607  1.0655  1.2423
 9742TIP3   OH253420   5.145   4.681   7.381  0.2041 -0.3399  0.1508
 9742TIP3    H153421   5.198   4.618   7.430 -0.4320 -0.0644  1.2178
 9742TIP3    H253422   5.055   4.653   7.396  0.0087 -1.4004 -2.4453
 9743TIP3   OH253423   6.440   1.816   7.922 -0.0309  0.2671  0.2056
 9743TIP3    H153424   6.368   1.754   7.933  1.5433 -1.9301 -1.0330
 9743TIP3    H253425   6.495   1.803   8.000  0.8256 -0.7020 -0.5323
 9744TIP3   OH253426   3.430   0.409   8.740  0.1261  0.0220  0.3959
 9744TIP3    H153427   3.418   0.381   8.831 -0.0878  1.1386  0.7261
 9744TIP3    H253428   3.519   0.443   8.737  0.2096 -0.2196  0.1339
 9745TIP3   OH253429   3.252   4.761   6.359 -0.0940 -0.2354 -0.2957
 9745TIP3    H153430   3.274   4.685   6.413 -3.4855 -0.9019  0.3921
 9745TIP3    H253431   3.229   4.724   6.274  0.2546  0.2708 -0.6178
 9746TIP3   OH253432   2.770   1.957   6.639 -0.0311 -0.0054  0.1000
 9746TIP3    H153433   2.842   1.989   6.694 -0.2573 -1.7761  1.5286
 9746TIP3    H253434   2.793   1.866   6.620 -1.8945 -0.6305  0.6424
 9747TIP3   OH253435   3.061   2.825   6.384  0.1296  0.3657 -0.2573
 9747TIP3    H153436   3.016   2.836   6.468  0.1124  3.1501 -0.5363
 9747TIP3    H253437   3.069   2.914   6.349  2.1584 -0.4681 -2.1651
 9748TIP3   OH253438   6.200   4.309   8.277 -0.7678  0.4626 -0.2641
 9748TIP3    H153439   6.191   4.253   8.200 -0.4486 -1.6548  1.1325
 9748TIP3    H253440   6.264   4.264   8.332 -1.8193  1.2655  1.7282
 9749TIP3   OH253441   1.197   1.901   6.412 -0.6940  0.1833 -0.0199
 9749TIP3    H153442   1.241   1.945   6.484  0.9959  0.3272 -1.0795
 9749TIP3    H253443   1.155   1.971   6.362 -1.3876  0.1413  0.4901
 9750TIP3   OH253444   1.575   5.733   7.053 -0.8405 -0.2388 -0.0669
 9750TIP3    H153445   1.519   5.662   7.084 -0.1200 -1.0267 -0.5498
 9750TIP3    H253446   1.567   5.731   6.958  1.2171 -1.4056 -0.2651
 9751TIP3   OH253447   2.510   5.625   7.092  0.4987  0.2134 -0.1904
 9751TIP3    H153448   2.520   5.721   7.095  0.0161  0.3080 -1.1567
 9751TIP3    H253449   2.424   5.612   7.052  0.2205 -0.6261  0.6490
 9752TIP3   OH253450   0.293   5.704   6.978 -0.3760  0.7294  0.6610
 9752TIP3    H153451   0.256   5.783   6.938  1.4453  0.8033 -1.0162
 9752TIP3    H253452   0.388   5.714   6.968 -0.0678 -1.4285  0.8803
 9753TIP3   OH253453   4.587   3.267   8.057  0.2454  0.1530 -0.1757
 9753TIP3    H153454   4.570   3.298   8.146 -2.7589 -1.4270 -0.0876
 9753TIP3    H253455   4.512   3.296   8.006  0.7734 -0.9455 -1.6557
 9754TIP3   OH253456   1.704   5.617   7.357  0.0099  0.2760  0.1022
 9754TIP3    H153457   1.725   5.683   7.424  0.6409  0.5130 -0.3180
 9754TIP3    H253458   1.625   5.649   7.315  0.9802  1.4369 -0.9354
 9755TIP3   OH253459   5.517   3.587   7.451 -0.5804 -0.3843 -0.0982
 9755TIP3    H153460   5.456   3.594   7.377 -0.3929  1.3712 -0.1217
 9755TIP3    H253461   5.592   3.641   7.426 -0.2364 -0.2775  1.1105
 9756TIP3   OH253462   2.645   6.512   6.315  0.5943 -0.1808  0.3907
 9756TIP3    H153463   2.679   6.453   6.383  2.2645  0.4487  0.1552
 9756TIP3    H253464   2.712   6.580   6.308  0.2199  0.0251 -1.5566
 9757TIP3   OH253465   1.236   1.148   5.856  0.0420 -0.1676  0.6292
 9757TIP3    H153466   1.198   1.081   5.799 -0.9016 -0.9726  2.1373
 9757TIP3    H253467   1.325   1.116   5.874 -0.0420 -0.4721  0.5106
 9758TIP3   OH253468   1.520   4.721   6.578  0.4052 -0.0957  0.2522
 9758TIP3    H153469   1.597   4.668   6.601  1.2618  0.7477 -0.5436
 9758TIP3    H253470   1.473   4.733   6.660  1.3850 -0.2274  0.8478
 9759TIP3   OH253471   6.272   4.755   6.571 -0.2635  0.1565 -0.0546
 9759TIP3    H153472   6.182   4.749   6.539 -0.1037  1.4515 -0.8471
 9759TIP3    H253473   6.263   4.779   6.663 -0.7196 -0.9623  0.2078
 9760TIP3   OH253474   0.963   4.197   5.930 -0.8128 -0.6501  0.2123
 9760TIP3    H153475   0.903   4.260   5.970 -1.0432 -0.9031  0.2665
 9760TIP3    H253476   0.965   4.123   5.992 -3.4551 -2.3765 -1.5550
 9761TIP3   OH253477   4.417   2.593   7.821 -0.4420 -0.6700  0.8913
 9761TIP3    H153478   4.439   2.652   7.749  1.4465 -1.4923  0.7557
 9761TIP3    H253479   4.370   2.521   7.779 -0.9751 -0.2583  0.7690
 9762TIP3   OH253480   0.452   2.527   5.784 -0.5368  0.7269 -0.0399
 9762TIP3    H153481   0.452   2.619   5.810  1.9299  0.4326  1.2002
 9762TIP3    H253482   0.501   2.482   5.853  1.6089 -0.9209 -2.4692
 9763TIP3   OH253483   4.845   5.868   9.881 -0.0906  0.8382 -0.4012
 9763TIP3    H153484   4.939   5.885   9.879 -0.0228  0.4127 -2.0126
 9763TIP3    H253485   4.837   5.776   9.855 -0.9099  0.5630  0.7222
 9764TIP3   OH253486   4.725   0.656   6.462 -0.2498 -0.0013 -0.3557
 9764TIP3    H153487   4.650   0.641   6.518  0.6777 -0.3365  0.8469
 9764TIP3    H253488   4.727   0.751   6.449  0.3856  0.2962  1.5116
 9765TIP3   OH253489   6.637   1.972   7.787 -0.1192 -0.0821 -0.2205
 9765TIP3    H153490   6.603   1.935   7.869  0.7376 -1.0314 -0.2668
 9765TIP3    H253491   6.700   1.907   7.756 -0.1265  0.4639 -1.4266
 9766TIP3   OH253492   3.514   5.489   6.804 -0.6537 -0.8230 -0.4445
 9766TIP3    H153493   3.552   5.554   6.745  0.6168 -0.2437  0.9366
 9766TIP3    H253494   3.421   5.487   6.782 -0.5618  0.8070 -1.1168
 9767TIP3   OH253495   3.258   0.323   8.555  0.0171  0.4981 -0.5534
 9767TIP3    H153496   3.333   0.332   8.613 -0.2246  1.7165 -0.3996
 9767TIP3    H253497   3.234   0.413   8.532 -2.4023  0.2911  0.7345
 9768TIP3   OH253498   4.716   5.332   9.233  0.5431  0.2498 -0.9614
 9768TIP3    H153499   4.686   5.242   9.246  0.3567  0.2990 -1.0513
 9768TIP3    H253500   4.810   5.324   9.221  0.8251  0.2334  0.9003
 9769TIP3   OH253501   4.090   1.695   7.240 -0.1002 -0.6159  0.1599
 9769TIP3    H153502   4.129   1.608   7.247  1.6632 -0.0911 -1.9403
 9769TIP3    H253503   4.149   1.743   7.181 -2.7268  0.9656 -1.3944
 9770TIP3   OH253504   1.239   3.662   8.045 -0.4206 -0.1951  0.0785
 9770TIP3    H153505   1.221   3.656   7.951  1.5319  0.8639 -0.4078
 9770TIP3    H253506   1.222   3.573   8.078 -1.5719 -0.4658 -1.1663
 9771TIP3   OH253507   0.587   4.479   6.929  0.3733  0.5237 -0.2195
 9771TIP3    H153508   0.497   4.491   6.959  0.3081 -0.9825  0.3201
 9771TIP3    H253509   0.631   4.562   6.947 -0.8201  1.1536 -0.1645
 9772TIP3   OH253510   1.949   2.394   7.395  0.1729 -0.2728 -0.8355
 9772TIP3    H153511   1.912   2.468   7.347 -0.6984 -0.0686  0.1039
 9772TIP3    H253512   2.043   2.403   7.386  0.0430  0.2987 -1.6917
 9773TIP3   OH253513   3.314   4.878   6.874 -0.5281  0.6629  0.0684
 9773TIP3    H153514   3.283   4.940   6.808 -0.1218  0.6623 -0.1208
 9773TIP3    H253515   3.271   4.796   6.852 -0.6299  0.7373 -0.0136
 9774TIP3   OH253516   3.588   5.195   8.514  0.2034 -0.3295  0.1764
 9774TIP3    H153517   3.621   5.278   8.550 -0.8158  0.3540 -0.4114
 9774TIP3    H253518   3.667   5.151   8.481  0.6268  1.0887 -0.8234
 9775TIP3   OH253519   4.049   5.464   6.488  0.4620  0.3443  0.0667
 9775TIP3    H153520   4.039   5.465   6.584  1.4249 -0.5180  0.1963
 9775TIP3    H253521   3.961   5.443   6.456  0.2825 -0.0986  0.8088
 9776TIP3   OH253522   4.706   3.251   5.705  0.0193 -0.4997 -0.1158
 9776TIP3    H153523   4.767   3.228   5.635 -0.0209 -0.5057 -0.1494
 9776TIP3    H253524   4.657   3.171   5.721 -1.8818  0.1764 -1.9971
 9777TIP3   OH253525   6.594   3.261   6.815  0.7827 -0.0206 -0.3685
 9777TIP3    H153526   6.549   3.191   6.862 -0.0409  1.0020  0.4268
 9777TIP3    H253527   6.682   3.227   6.799  0.2629 -1.3915 -0.3928
 9778TIP3   OH253528   5.738   4.695   6.108  0.2494  0.3308  0.0648
 9778TIP3    H153529   5.781   4.629   6.053 -1.3299  0.2717 -1.1568
 9778TIP3    H253530   5.711   4.646   6.186  0.4298 -0.1130 -0.1449
 9779TIP3   OH253531   3.821   5.370   8.976 -0.0705 -0.0513  0.3358
 9779TIP3    H153532   3.875   5.424   9.033  0.0004  0.5275 -0.2632
 9779TIP3    H253533   3.732   5.405   8.988 -0.1182 -0.1864  0.3817
 9780TIP3   OH253534   2.522   1.362   7.848  0.0531 -0.3502  0.4533
 9780TIP3    H153535   2.605   1.370   7.801  0.1752  2.7031  0.9807
 9780TIP3    H253536   2.459   1.413   7.796 -0.8120 -0.3572  1.4570
 9781TIP3   OH253537   5.909   4.246   5.886  0.1176  0.0106 -0.2197
 9781TIP3    H153538   5.981   4.194   5.849  1.2709  1.2086  0.2335
 9781TIP3    H253539   5.930   4.251   5.979 -1.7216 -1.3793  0.3189
 9782TIP3   OH253540   0.839   4.911   8.069  0.0794 -0.2044 -0.3609
 9782TIP3    H153541   0.829   4.864   7.986  1.0520  0.1806 -0.7066
 9782TIP3    H253542   0.755   4.898   8.113 -0.2424 -0.9205 -1.1387
 9783TIP3   OH253543   0.561   1.495   8.380 -0.0258  0.0657  0.1626
 9783TIP3    H153544   0.502   1.515   8.307  3.1421 -0.3787 -2.8285
 9783TIP3    H253545   0.585   1.581   8.415  0.5520  0.5419 -1.2939
 9784TIP3   OH253546   0.980   2.818   7.129  0.3167  0.4920  0.1437
 9784TIP3    H153547   0.939   2.905   7.130 -1.1154 -0.0796 -1.8730
 9784TIP3    H253548   0.918   2.763   7.177  0.4810  0.2946  0.1289
 9785TIP3   OH253549   0.457   2.391   8.811  0.2645 -0.2985 -0.2870
 9785TIP3    H153550   0.506   2.387   8.729 -0.0785  0.0596 -0.5134
 9785TIP3    H253551   0.522   2.375   8.879  0.6965  0.2131 -0.5820
 9786TIP3   OH253552   6.516   3.637   6.450 -0.4213 -0.6168  0.1782
 9786TIP3    H153553   6.464   3.556   6.453 -2.0095  0.1390 -2.6880
 9786TIP3    H253554   6.606   3.608   6.458 -1.0549 -2.4437  1.3268
 9787TIP3   OH253555   1.813   0.535   7.853 -0.1451  0.1978  0.2301
 9787TIP3    H153556   1.837   0.507   7.941 -2.4906  0.7368  1.1201
 9787TIP3    H253557   1.896   0.553   7.810  1.1824 -2.1232  1.6073
 9788TIP3   OH253558   1.289   5.462   7.131  0.0804  0.1924  0.1039
 9788TIP3    H153559   1.303   5.481   7.224  1.6737 -1.1992  0.1937
 9788TIP3    H253560   1.376   5.438   7.098 -0.7732 -1.1025 -1.3169
 9789TIP3   OH253561   0.948   5.017   5.505  0.4320  0.3079  0.1207
 9789TIP3    H153562   0.999   4.946   5.545 -1.2093  0.0158  1.7931
 9789TIP3    H253563   0.886   4.972   5.447 -0.5970  0.3419  1.1681
 9790TIP3   OH253564   3.331   0.842   7.374  0.4049  0.3804 -0.1998
 9790TIP3    H153565   3.339   0.904   7.447 -0.4439 -1.0782  1.1967
 9790TIP3    H253566   3.339   0.897   7.296  2.8344  1.8209  0.9311
 9791TIP3   OH253567   4.869   2.662   5.781 -0.1795  0.3524  0.6462
 9791TIP3    H153568   4.813   2.593   5.747  1.6299  0.0395 -1.9801
 9791TIP3    H253569   4.950   2.655   5.731  1.0069  2.8358  2.0021
 9792TIP3   OH253570   0.677   4.912   6.364  0.2087  0.1710  0.3272
 9792TIP3    H153571   0.600   4.969   6.375  1.3978  1.8611  0.2110
 9792TIP3    H253572   0.647   4.826   6.395 -2.1619  0.3928 -1.0669
 9793TIP3   OH253573   1.630   0.869   5.779  0.0853 -0.0655  0.7182
 9793TIP3    H153574   1.686   0.801   5.740  1.6240  1.5147  0.0257
 9793TIP3    H253575   1.681   0.950   5.770 -1.1161  0.9982  2.6743
 9794TIP3   OH253576   2.325   6.085   7.658 -0.1105  0.3769  0.4323
 9794TIP3    H153577   2.263   6.068   7.587  2.1602 -0.5480 -1.4863
 9794TIP3    H253578   2.317   6.009   7.715  0.9487 -1.0311 -1.1834
 9795TIP3   OH253579   1.532   0.366   5.713 -0.3274  0.3134 -0.2372
 9795TIP3    H153580   1.542   0.293   5.773 -0.3966  0.3772 -0.1475
 9795TIP3    H253581   1.473   0.334   5.645  1.9762 -0.7261 -1.8353
 9796TIP3   OH253582   6.004   2.377   7.267 -0.1326 -0.0429 -0.3390
 9796TIP3    H153583   5.974   2.448   7.324  0.2161  0.7490 -1.1153
 9796TIP3    H253584   5.924   2.329   7.244 -0.3425 -0.0447  0.3699
 9797TIP3   OH253585   3.728   0.948   6.379 -0.5835 -0.2879 -0.0644
 9797TIP3    H153586   3.794   1.017   6.374  1.6535 -2.3322 -0.6039
 9797TIP3    H253587   3.648   0.988   6.345  0.6831  1.9468 -0.5827
 9798TIP3   OH253588   0.618   5.042   7.429 -0.1676 -0.0178  0.3077
 9798TIP3    H153589   0.537   5.078   7.394 -2.3142 -2.7734  2.0895
 9798TIP3    H253590   0.636   5.094   7.507 -0.3042  0.4434  0.0400
 9799TIP3   OH253591   6.638   5.808   6.361 -0.3772 -0.2437  0.3537
 9799TIP3    H153592   6.682   5.879   6.407 -1.3385 -0.3361  1.4973
 9799TIP3    H253593   6.649   5.732   6.419  0.0508 -0.8623 -0.5229
 9800TIP3   OH253594   2.538   3.957   6.371 -0.5141 -0.3473  0.0134
 9800TIP3    H153595   2.532   4.003   6.287 -0.1939 -1.9475 -0.9283
 9800TIP3    H253596   2.615   3.996   6.414  0.0833 -0.3657 -0.9999
 9801TIP3   OH253597   4.304   4.643   6.386 -0.7762 -0.0312 -0.4844
 9801TIP3    H153598   4.249   4.652   6.308  0.3414  2.6995 -1.0869
 9801TIP3    H253599   4.379   4.592   6.356 -1.4409 -1.0446 -0.4975
 9802TIP3   OH253600   5.472   3.881   8.549 -0.2061 -0.0281  0.2210
 9802TIP3    H153601   5.445   3.971   8.529  0.8813  0.3575  0.4469
 9802TIP3    H253602   5.389   3.833   8.554 -0.8839  1.1669  1.1358
 9803TIP3   OH253603   3.513   0.801   7.827  1.4874  0.0459 -0.0015
 9803TIP3    H153604   3.568   0.790   7.750  0.2609 -3.7722 -0.5414
 9803TIP3    H253605   3.559   0.754   7.897  1.1276  0.8570  0.8059
 9804TIP3   OH253606   5.303   2.214   7.991  0.6228 -0.4557 -0.3774
 9804TIP3    H153607   5.292   2.203   7.896 -0.6617 -1.3810 -0.1519
 9804TIP3    H253608   5.240   2.283   8.014  0.9641 -0.2012 -0.1878
 9805TIP3   OH253609   3.883   1.920   7.794  0.6788 -0.2045 -0.3657
 9805TIP3    H153610   3.881   1.996   7.735  0.2497  0.2626  0.2321
 9805TIP3    H253611   3.969   1.925   7.835  0.6201  0.0113 -0.2655
 9806TIP3   OH253612   2.614   6.219   7.844  0.6220 -0.1576  0.7927
 9806TIP3    H153613   2.586   6.221   7.935 -1.2642  1.1494  0.2620
 9806TIP3    H253614   2.680   6.288   7.837 -0.7001  1.1726  0.8056
 9807TIP3   OH253615   0.282   5.253   7.638  0.3367 -0.2795  0.2913
 9807TIP3    H153616   0.210   5.302   7.678 -0.4838 -0.9674 -0.3124
 9807TIP3    H253617   0.341   5.321   7.605 -1.4984  0.4084 -1.8370
 9808TIP3   OH253618   2.583   4.692   6.587  0.3418 -0.0491  0.2688
 9808TIP3    H153619   2.492   4.667   6.577  0.4334 -0.0380 -0.6873
 9808TIP3    H253620   2.580   4.779   6.627 -0.0458 -0.2481  0.6856
 9809TIP3   OH253621   1.667   6.123   6.190  0.1557  0.4604 -0.6124
 9809TIP3    H153622   1.608   6.170   6.130  0.3767  1.5378 -0.0249
 9809TIP3    H253623   1.755   6.140   6.155  0.2788  1.0075 -0.0619
 9810TIP3   OH253624   3.180   2.718   5.888 -0.1141  0.4588 -0.2180
 9810TIP3    H153625   3.217   2.634   5.916  2.8929  1.8553  0.4573
 9810TIP3    H253626   3.085   2.705   5.891  0.1900 -2.1944  2.1014
 9811TIP3   OH253627   6.143   3.340   8.229  0.1478 -0.1011  0.2087
 9811TIP3    H153628   6.185   3.288   8.160  0.5480  0.1005  0.3014
 9811TIP3    H253629   6.110   3.275   8.291  0.2237 -0.2649  0.0790
 9812TIP3   OH253630   5.178   4.898   7.851 -0.1379 -0.8321  0.5706
 9812TIP3    H153631   5.132   4.948   7.783  1.9739 -0.1606 -0.4502
 9812TIP3    H253632   5.144   4.932   7.933  0.9657  2.1850 -0.0809
 9813TIP3   OH253633   5.717   5.812   6.853 -0.0861  0.9669  0.1554
 9813TIP3    H153634   5.765   5.877   6.904  1.2009 -0.0846  0.3544
 9813TIP3    H253635   5.716   5.846   6.764 -0.2106  1.6669  0.4190
 9814TIP3   OH253636   5.933   3.150   6.974  0.3116  0.1472 -0.2478
 9814TIP3    H153637   6.023   3.132   7.004 -0.1655 -0.6780  0.7611
 9814TIP3    H253638   5.909   3.072   6.924  0.4286  0.7261 -1.2479
 9815TIP3   OH253639   3.852   5.721   8.963 -0.1402 -0.4089  0.2852
 9815TIP3    H153640   3.864   5.798   8.907 -0.5318 -1.2718 -1.0347
 9815TIP3    H253641   3.758   5.704   8.961  0.0644 -1.5388 -0.3066
 9816TIP3   OH253642   3.836   5.947   8.822  0.1141 -0.1847  0.3417
 9816TIP3    H153643   3.780   5.981   8.753 -0.1339 -0.4327  0.4215
 9816TIP3    H253644   3.890   6.022   8.848  0.7191 -0.2778 -0.6209
 9817TIP3   OH253645   6.341   3.181   6.555 -0.5500  0.3277  0.4328
 9817TIP3    H153646   6.246   3.173   6.565 -0.4345  0.3251  1.5736
 9817TIP3    H253647   6.367   3.242   6.623  0.4497 -0.6962  0.9896
 9818TIP3   OH253648   4.064   2.754   8.149  0.0704 -0.3613 -0.2183
 9818TIP3    H153649   4.101   2.718   8.068  0.2730  1.3566 -0.9319
 9818TIP3    H253650   4.113   2.835   8.164 -1.1909  0.2833  0.6244
 9819TIP3   OH253651   2.811   6.127   7.649 -0.5184 -0.3599  0.6519
 9819TIP3    H153652   2.738   6.133   7.711 -0.2961 -1.0823  0.9980
 9819TIP3    H253653   2.846   6.216   7.645 -2.0692  0.2471 -0.3380
 9820TIP3   OH253654   5.493   0.200   6.476  0.7974  0.7368  0.0514
 9820TIP3    H153655   5.557   0.228   6.410 -0.8806  0.5127 -1.7691
 9820TIP3    H253656   5.409   0.212   6.433 -0.2763 -1.4343  1.4142
 9821TIP3   OH253657   4.272   6.260   6.408 -0.1174  0.4180 -0.2448
 9821TIP3    H153658   4.279   6.174   6.366  0.4355  0.1236  0.4302
 9821TIP3    H253659   4.361   6.281   6.435  0.0295  1.9035 -1.7192
 9822TIP3   OH253660   2.777   1.947   7.387 -0.6351 -0.3040 -0.0107
 9822TIP3    H153661   2.809   2.034   7.411  1.5901 -0.7656 -1.0185
 9822TIP3    H253662   2.694   1.937   7.434 -0.0395  1.6325  1.5590
 9823TIP3   OH253663   1.207   0.698   7.088 -0.1213 -0.5957  0.1661
 9823TIP3    H153664   1.242   0.778   7.127  0.3058 -0.4407 -0.5254
 9823TIP3    H253665   1.144   0.666   7.153 -0.1263  0.1713  0.5551
 9824TIP3   OH253666   1.486   2.012   7.899  0.0728  0.0784 -0.4621
 9824TIP3    H153667   1.482   1.926   7.858 -0.4957 -0.3950  0.5555
 9824TIP3    H253668   1.566   2.011   7.950  0.1148  0.1937 -0.5252
 9825TIP3   OH253669   6.521   0.161   6.042  0.3730  0.1606 -0.0870
 9825TIP3    H153670   6.432   0.141   6.073  0.0617  0.2870 -0.8800
 9825TIP3    H253671   6.578   0.118   6.105 -0.2571 -0.1456  0.2885
 9826TIP3   OH253672   1.821   2.209   7.253  0.1393 -0.0635  0.4176
 9826TIP3    H153673   1.866   2.274   7.307 -1.5743  2.3327 -0.8139
 9826TIP3    H253674   1.855   2.224   7.165 -1.6999  0.6523 -0.2323
 9827TIP3   OH253675   2.689   1.207   7.203 -0.2853 -0.0511 -0.0351
 9827TIP3    H153676   2.605   1.192   7.247  0.0124 -1.2671  0.1503
 9827TIP3    H253677   2.690   1.144   7.131  1.9589 -2.7226  2.1097
 9828TIP3   OH253678   5.827   1.892   7.734  0.0351 -0.4125 -0.8406
 9828TIP3    H153679   5.865   1.820   7.683  2.2027 -0.6021  0.8932
 9828TIP3    H253680   5.832   1.967   7.675  0.6858 -1.0052 -1.5770
 9829TIP3   OH253681   1.273   0.917   6.143 -0.0710  0.2001  0.3278
 9829TIP3    H153682   1.229   0.992   6.183  1.1726  1.3574 -0.4196
 9829TIP3    H253683   1.274   0.936   6.049 -0.6165 -1.2392 -0.0014
 9830TIP3   OH253684   5.953   5.098   5.952 -0.3992  0.1347  0.8875
 9830TIP3    H153685   5.925   5.009   5.975  0.5461  0.3371  2.9617
 9830TIP3    H253686   5.873   5.140   5.920 -0.8498 -1.4603 -0.2549
 9831TIP3   OH253687   4.099   4.671   6.201 -0.3443  0.0904 -0.0919
 9831TIP3    H153688   4.044   4.626   6.137 -0.2046  1.5152 -1.2813
 9831TIP3    H253689   4.058   4.757   6.212  0.1443  0.1985  1.0721
 9832TIP3   OH253690   1.006   4.039   7.904 -0.0542  0.5430 -0.5357
 9832TIP3    H153691   0.932   4.075   7.952 -0.8863 -1.1872 -0.4249
 9832TIP3    H253692   1.078   4.100   7.921 -1.2356  1.8365  0.0042
 9833TIP3   OH253693   0.482   2.319   6.630 -0.1215 -0.3358  0.1078
 9833TIP3    H153694   0.484   2.227   6.604 -0.4600 -0.4273  0.3954
 9833TIP3    H253695   0.399   2.328   6.677 -0.0916  0.1173  0.0760
 9834TIP3   OH253696   3.897   1.737   7.482 -0.4404  0.8533 -0.1534
 9834TIP3    H153697   3.840   1.814   7.478 -1.3690  0.2109  0.3523
 9834TIP3    H253698   3.956   1.748   7.407  0.2287  2.6370  0.5695
 9835TIP3   OH253699   5.641   3.833   8.211  0.7453 -0.1616 -0.2702
 9835TIP3    H153700   5.710   3.824   8.277  0.6127 -0.0527 -0.1135
 9835TIP3    H253701   5.684   3.813   8.128  0.6704 -1.3343 -0.0413
 9836TIP3   OH253702   6.328   6.605   5.974  0.3592 -0.1282  0.2371
 9836TIP3    H153703   6.275   6.681   5.948  0.5023 -0.6546 -1.7727
 9836TIP3    H253704   6.415   6.623   5.937  1.3053  0.1444  2.4259
 9837TIP3   OH253705   5.943   6.042   8.893  0.1858  0.8923 -0.2056
 9837TIP3    H153706   5.867   5.989   8.868 -0.8005  1.4890  1.3523
 9837TIP3    H253707   6.010   5.977   8.918 -0.3178  0.3601 -0.2140
 9838TIP3   OH253708   5.879   1.918   8.158  0.2935  0.0084  0.3555
 9838TIP3    H153709   5.916   1.866   8.086  1.7717  0.3042  0.8699
 9838TIP3    H253710   5.936   1.900   8.232 -0.1434  1.1223  0.9842
 9839TIP3   OH253711   1.432   3.666   6.557  0.0318 -0.5670 -0.6246
 9839TIP3    H153712   1.360   3.644   6.499  1.7900 -3.9636 -1.7995
 9839TIP3    H253713   1.508   3.621   6.520  2.1130  0.2999  2.1798
 9840TIP3   OH253714   1.555   3.569   6.297 -0.7216  0.3074 -0.7513
 9840TIP3    H153715   1.650   3.581   6.290 -0.5580 -1.4678 -2.0803
 9840TIP3    H253716   1.538   3.484   6.258 -2.7825  0.1815  0.2799
 9841TIP3   OH253717   5.949   2.934   5.981 -0.6879  0.0413  0.1693
 9841TIP3    H153718   6.006   2.858   5.975 -0.2713  0.3135  0.6106
 9841TIP3    H253719   5.960   2.965   6.071 -2.2740 -0.4801  0.5729
 9842TIP3   OH253720   5.433   5.332   7.515 -0.0203  0.3240  0.6340
 9842TIP3    H153721   5.387   5.273   7.574  0.4896 -1.1455 -0.3893
 9842TIP3    H253722   5.457   5.278   7.440  1.3069  1.6040  0.0769
 9843TIP3   OH253723   6.711   6.666   8.714  0.6395 -0.4251  0.4113
 9843TIP3    H153724   6.751   6.652   8.800  1.6882  0.7966  0.1611
 9843TIP3    H253725   6.619   6.685   8.733  0.5728 -1.4421  1.1554
 9844TIP3   OH253726   5.180   0.954   7.433 -0.3774 -0.1255 -0.2117
 9844TIP3    H153727   5.217   0.919   7.351  0.8012  0.0720  0.2210
 9844TIP3    H253728   5.162   1.046   7.414 -2.6739 -0.6597 -1.0762
 9845TIP3   OH253729   4.766   2.921   7.252  0.9095 -0.4871 -0.0062
 9845TIP3    H153730   4.724   2.838   7.232  0.6384 -0.1933 -0.6642
 9845TIP3    H253731   4.716   2.956   7.326  1.2397 -1.0654  0.4972
 9846TIP3   OH253732   1.570   5.909   6.337 -0.3376 -0.4063 -0.3368
 9846TIP3    H153733   1.663   5.919   6.318 -0.4429  1.3004 -0.0679
 9846TIP3    H253734   1.537   5.998   6.342 -1.5916 -0.9357  1.5717
 9847TIP3   OH253735   0.610   5.832   9.424  0.5294  0.0348  0.6175
 9847TIP3    H153736   0.536   5.772   9.416 -0.2552  0.9999  0.2818
 9847TIP3    H253737   0.570   5.915   9.450  1.2332  1.0788 -1.4234
 9848TIP3   OH253738   5.961   2.658   6.160 -0.4266 -0.0338  0.4327
 9848TIP3    H153739   5.949   2.652   6.254 -0.9622  1.1132  0.4524
 9848TIP3    H253740   5.876   2.632   6.123 -0.5829  0.6291  0.3126
 9849TIP3   OH253741   4.754   0.644   8.335  0.0802 -0.5981 -0.2097
 9849TIP3    H153742   4.687   0.711   8.346  0.9846  1.0650 -3.3695
 9849TIP3    H253743   4.835   0.686   8.362  0.6571 -0.3125 -2.1974
 9850TIP3   OH253744   6.371   1.810   7.276 -0.1682 -0.5461 -1.2621
 9850TIP3    H153745   6.394   1.741   7.213 -1.1861 -1.6804 -0.4558
 9850TIP3    H253746   6.294   1.776   7.320  0.4537  0.2605  0.5304
 9851TIP3   OH253747   5.161   2.660   6.199 -0.9100  0.0115 -0.1647
 9851TIP3    H153748   5.221   2.726   6.166 -0.6472  0.9862  2.0371
 9851TIP3    H253749   5.178   2.657   6.294 -1.3845 -2.7343 -0.0608
 9852TIP3   OH253750   1.579   2.234   7.347 -0.5499  0.1219  0.1252
 9852TIP3    H153751   1.665   2.239   7.306 -0.8357  0.6901 -0.4280
 9852TIP3    H253752   1.576   2.146   7.386  1.2644  0.9943  2.4569
 9853TIP3   OH253753   2.756   4.747   7.355 -0.3432 -0.0095 -0.6035
 9853TIP3    H153754   2.677   4.696   7.371 -0.0634 -0.0806  0.6844
 9853TIP3    H253755   2.731   4.838   7.373 -0.0061 -0.0996  0.4456
 9854TIP3   OH253756   5.949   0.670   8.483  0.4263 -0.0180  0.2530
 9854TIP3    H153757   5.915   0.625   8.406 -0.2277  0.7832  0.0660
 9854TIP3    H253758   5.884   0.738   8.502  0.5736 -0.2035  1.5068
 9855TIP3   OH253759   4.544   4.685   6.671  0.8426 -0.3875 -0.6313
 9855TIP3    H153760   4.501   4.605   6.640 -3.2926  0.7181  1.5374
 9855TIP3    H253761   4.576   4.663   6.758 -0.8611  0.4137  0.2253
 9856TIP3   OH253762   4.461   6.275   7.361  0.1705 -0.2863  0.1916
 9856TIP3    H153763   4.466   6.194   7.411 -0.3315 -0.4936 -0.0845
 9856TIP3    H253764   4.546   6.317   7.373  0.8971 -1.4466 -0.6648
 9857TIP3   OH253765   0.513   1.396   5.612  0.2228 -0.4389 -0.0481
 9857TIP3    H153766   0.608   1.383   5.614  0.5389  1.5841  0.0329
 9857TIP3    H253767   0.499   1.461   5.544 -0.8888  0.7464  1.2619
 9858TIP3   OH253768   2.803   5.583   8.202 -0.3237  0.0130 -0.2812
 9858TIP3    H153769   2.736   5.516   8.218  1.7464 -2.1018  0.1026
 9858TIP3    H253770   2.813   5.627   8.286  0.5959 -1.5049  0.4517
 9859TIP3   OH253771   0.878   5.191   9.141 -0.0862  0.0179  0.3209
 9859TIP3    H153772   0.918   5.257   9.084 -0.2878  0.4361  0.6568
 9859TIP3    H253773   0.938   5.184   9.215 -1.0415  1.2702  1.2407
 9860TIP3   OH253774   0.156   3.921   6.967 -0.1047  0.0549  0.0254
 9860TIP3    H153775   0.215   3.971   7.023 -0.4125 -0.2372  0.6299
 9860TIP3    H253776   0.206   3.843   6.942  0.0431  0.1998 -0.1296
 9861TIP3   OH253777   1.670   4.514   9.614 -0.0724  0.0922  0.5306
 9861TIP3    H153778   1.754   4.560   9.619 -0.0838  0.0823  0.8488
 9861TIP3    H253779   1.610   4.568   9.665  0.4043 -1.3364  2.7581
 9862TIP3   OH253780   2.938   0.684   7.090 -0.6383 -0.3181 -0.2608
 9862TIP3    H153781   2.887   0.640   7.022 -0.9597  1.3007 -1.1088
 9862TIP3    H253782   3.028   0.684   7.056 -0.4976 -0.9844  0.0975
 9863TIP3   OH253783   2.481   5.661   5.787  0.8062 -0.0836  0.5999
 9863TIP3    H153784   2.532   5.689   5.863  0.1905 -0.1889  1.0586
 9863TIP3    H253785   2.535   5.685   5.711  2.0453 -1.2111  1.1010
 9864TIP3   OH253786   0.449   4.810   9.552  0.2118 -0.9903  0.1316
 9864TIP3    H153787   0.465   4.716   9.542  1.8135 -0.7062 -0.3065
 9864TIP3    H253788   0.537   4.848   9.560 -0.4731  0.3035  1.9247
 9865TIP3   OH253789   0.344   6.195   5.987  0.0573  0.5231  0.0668
 9865TIP3    H153790   0.310   6.140   6.058 -0.9425  0.3923 -0.4959
 9865TIP3    H253791   0.406   6.139   5.941 -2.7762 -1.1479 -2.0606
 9866TIP3   OH253792   2.642   3.594   8.315  0.6153  0.1798  0.3721
 9866TIP3    H153793   2.650   3.498   8.311  0.7638  0.0515  2.3415
 9866TIP3    H253794   2.589   3.609   8.394 -1.1354  1.6756 -1.0199
 9867TIP3   OH253795   6.568   4.223   5.930  0.0945 -0.0546  0.6035
 9867TIP3    H153796   6.637   4.242   5.992 -0.2671  0.8973  0.7387
 9867TIP3    H253797   6.551   4.130   5.939  0.1700  0.0412  1.8081
 9868TIP3   OH253798   2.054   1.289   6.225  0.7741  0.5060 -0.7651
 9868TIP3    H153799   1.999   1.314   6.300  0.7333 -1.8303  0.0675
 9868TIP3    H253800   2.020   1.342   6.153 -0.6645  1.2362  0.3668
 9869TIP3   OH253801   4.555   5.117   7.480 -0.5238 -0.7626 -0.2061
 9869TIP3    H153802   4.472   5.078   7.508 -0.6890 -0.7187 -0.6235
 9869TIP3    H253803   4.553   5.111   7.384  0.0167 -0.8847 -0.2118
 9870TIP3   OH253804   0.967   3.445   5.680 -0.3754  0.2543  0.3671
 9870TIP3    H153805   0.902   3.432   5.749  0.2424 -0.5142  0.8259
 9870TIP3    H253806   1.036   3.381   5.700 -0.4722 -0.4205 -1.3237
 9871TIP3   OH253807   1.975   1.337   6.970  0.1985 -0.2286 -0.0008
 9871TIP3    H153808   2.060   1.322   7.010 -0.0362 -1.9367 -0.0723
 9871TIP3    H253809   1.923   1.261   6.994 -0.6704 -0.1913 -1.6176
 9872TIP3   OH253810   2.974   2.104   5.619  0.4175  0.0312  0.2024
 9872TIP3    H153811   2.973   2.136   5.529 -0.7458 -0.2627  0.0849
 9872TIP3    H253812   2.982   2.009   5.612 -0.4205 -0.0646  0.3559
 9873TIP3   OH253813   0.388   3.079   6.999  0.5307 -0.1641 -0.1293
 9873TIP3    H153814   0.336   3.158   7.012 -0.8414 -0.5830 -2.5303
 9873TIP3    H253815   0.356   3.018   7.064  0.6683  0.7944  0.8692
 9874TIP3   OH253816   1.532   0.374   6.750 -0.3739 -0.3139 -0.1904
 9874TIP3    H153817   1.466   0.386   6.818  0.8115  1.3261  0.7626
 9874TIP3    H253818   1.578   0.458   6.746  1.3381 -1.2224 -1.1391
 9875TIP3   OH253819   3.027   5.954   9.057 -0.1860 -0.3678  0.4774
 9875TIP3    H153820   3.005   5.899   9.132  0.2995  0.6765  1.4216
 9875TIP3    H253821   2.965   6.026   9.062  0.6940  0.3918  0.6658
 9876TIP3   OH253822   6.569   0.946   6.365  0.3802 -0.3478 -0.2280
 9876TIP3    H153823   6.555   0.963   6.458  0.5169 -0.8804 -0.1078
 9876TIP3    H253824   6.580   1.032   6.326 -0.4078 -0.0777  0.1327
 9877TIP3   OH253825   5.683   2.663   5.557  0.2795 -0.1686  0.4765
 9877TIP3    H153826   5.741   2.706   5.620  0.0912  0.4393  0.2366
 9877TIP3    H253827   5.631   2.734   5.520 -0.9065 -0.7535  0.9776
 9878TIP3   OH253828   3.601   2.344   8.486 -0.0903  0.1886 -0.3597
 9878TIP3    H153829   3.530   2.341   8.550  0.8949  1.5600  0.8725
 9878TIP3    H253830   3.573   2.285   8.416 -1.2762 -1.2920  1.2655
 9879TIP3   OH253831   5.226   2.021   5.992  0.3835 -0.4788  0.2778
 9879TIP3    H153832   5.206   2.031   6.085  1.0666  0.9514  0.3096
 9879TIP3    H253833   5.157   2.070   5.947 -0.4870 -1.9576 -0.0415
 9880TIP3   OH253834   4.250   6.544   5.888  0.5215 -0.0437 -0.7645
 9880TIP3    H153835   4.253   6.549   5.983 -1.5368 -0.9071 -0.5822
 9880TIP3    H253836   4.247   6.635   5.858 -0.0275  0.2312  0.0940
 9881TIP3   OH253837   2.519   0.368   7.613 -0.2092 -0.2310 -0.2084
 9881TIP3    H153838   2.519   0.355   7.708  0.4347 -0.4600 -0.2310
 9881TIP3    H253839   2.587   0.309   7.581 -0.2463  0.0324 -0.7872
 9882TIP3   OH253840   4.180   0.243   7.876  0.0087  0.0574  0.1276
 9882TIP3    H153841   4.188   0.335   7.901 -0.2200 -0.1048  0.8260
 9882TIP3    H253842   4.237   0.196   7.938  0.8831 -0.1820 -0.8405
 9883TIP3   OH253843   6.521   5.189   9.047  0.1952  0.0861 -0.3673
 9883TIP3    H153844   6.583   5.228   9.109  1.2547 -1.1206 -0.6373
 9883TIP3    H253845   6.461   5.139   9.102 -0.1922  0.7613 -0.1564
 9884TIP3   OH253846   5.047   0.412   7.839  0.5198 -0.2920 -0.0897
 9884TIP3    H153847   5.012   0.325   7.820 -0.9786  0.2977 -0.2167
 9884TIP3    H253848   4.992   0.444   7.911  1.9780  0.0095  0.9402
 9885TIP3   OH253849   2.522   6.150   6.525 -0.3023 -0.2499 -0.7961
 9885TIP3    H153850   2.591   6.159   6.591 -0.8238  2.2178 -0.4883
 9885TIP3    H253851   2.568   6.163   6.442 -0.0040 -1.1500 -0.7789
 9886TIP3   OH253852   0.583   4.822   8.173 -0.2007  0.5616 -0.5442
 9886TIP3    H153853   0.496   4.858   8.189 -1.0720 -1.2869 -0.8042
 9886TIP3    H253854   0.590   4.748   8.233  1.2323  0.7029 -0.4981
 9887TIP3   OH253855   6.680   4.812   5.830  0.0663  0.2455 -0.0754
 9887TIP3    H153856   6.663   4.846   5.918  1.8818  0.1231  0.3455
 9887TIP3    H253857   6.731   4.881   5.787 -0.0734 -0.0655 -0.7610
 9888TIP3   OH253858   4.272   5.544   8.026 -0.1359  0.3810  0.2075
 9888TIP3    H153859   4.260   5.526   8.119 -0.0195 -0.5581  0.0482
 9888TIP3    H253860   4.308   5.463   7.990  1.3429  1.2414 -0.3615
 9889TIP3   OH253861   0.762   6.174   5.904 -0.3249  0.0763 -0.1356
 9889TIP3    H153862   0.857   6.166   5.919 -0.6614 -0.4912  2.0421
 9889TIP3    H253863   0.737   6.255   5.949 -1.0600 -0.4971  0.5271
 9890TIP3   OH253864   2.142   5.194   8.787 -0.7334 -0.0177  0.5263
 9890TIP3    H153865   2.168   5.275   8.832 -0.3185  0.8668 -1.2452
 9890TIP3    H253866   2.155   5.212   8.694  1.2733 -2.7862  0.1330
 9891TIP3   OH253867   6.185   0.276   6.501 -0.2165 -0.1676 -0.1101
 9891TIP3    H153868   6.144   0.358   6.527 -0.5830 -0.3905  0.0111
 9891TIP3    H253869   6.279   0.295   6.504 -0.1860 -0.4242  2.1962
 9892TIP3   OH253870   4.223   2.151   5.887  0.0378  0.0725  0.0578
 9892TIP3    H153871   4.235   2.213   5.959 -0.0344  0.0720  0.0703
 9892TIP3    H253872   4.297   2.167   5.829 -0.2099  0.4592 -0.1521
 9893TIP3   OH253873   3.838   2.282   8.609 -0.0528 -0.5754  0.5833
 9893TIP3    H153874   3.758   2.298   8.558  0.7782 -0.1495 -0.6208
 9893TIP3    H253875   3.857   2.189   8.595  0.1513 -0.4681  0.1565
 9894TIP3   OH253876   5.961   5.954   7.780  0.2977 -0.1281 -0.0725
 9894TIP3    H153877   5.884   5.936   7.725  0.5920  0.5848 -0.7370
 9894TIP3    H253878   6.026   5.890   7.750 -0.5624 -1.9763  1.7258
 9895TIP3   OH253879   3.318   6.515   7.042 -0.2034  0.2360 -0.3453
 9895TIP3    H153880   3.389   6.516   6.979  0.8921 -0.6392  0.8256
 9895TIP3    H253881   3.262   6.442   7.014  1.3706 -1.4849  0.8036
 9896TIP3   OH253882   5.882   2.420   5.699 -0.9784  0.2446  0.1515
 9896TIP3    H153883   5.880   2.347   5.761  0.1861 -1.1025 -1.3251
 9896TIP3    H253884   5.791   2.431   5.673 -1.2265 -0.4213  0.6920
 9897TIP3   OH253885   5.126   3.808   6.287  0.2612  0.3697  0.0896
 9897TIP3    H153886   5.077   3.764   6.217 -0.4166 -0.8283  1.2777
 9897TIP3    H253887   5.200   3.749   6.304 -1.0418 -0.7846  2.1852
 9898TIP3   OH253888   3.879   5.967   7.537 -0.3178 -0.2816 -0.3538
 9898TIP3    H153889   3.788   5.944   7.554 -0.3309  0.1575  0.1822
 9898TIP3    H253890   3.930   5.896   7.576 -0.3216  0.9665  2.0866
 9899TIP3   OH253891   5.042   5.527   7.508 -0.2076 -0.1771 -0.0008
 9899TIP3    H153892   4.978   5.542   7.578  0.3450 -1.0419  0.7188
 9899TIP3    H253893   5.059   5.433   7.511  1.5691  0.1127  0.2599
 9900TIP3   OH253894   2.037   3.833   8.203  0.0393 -0.3535 -0.0511
 9900TIP3    H153895   2.026   3.871   8.290 -0.3270 -1.2998  0.3344
 9900TIP3    H253896   1.968   3.874   8.150 -0.3233 -0.4457  0.3441
 9901TIP3   OH253897   5.654   2.752   8.668  0.0854 -0.8524 -0.7479
 9901TIP3    H153898   5.677   2.671   8.713 -1.4865 -0.5682  0.6161
 9901TIP3    H253899   5.724   2.813   8.692  0.1308 -1.1800 -0.0205
 9902TIP3   OH253900   6.145   4.533   7.519  0.0731 -0.4366  0.8008
 9902TIP3    H153901   6.156   4.547   7.613  0.1255  2.0063  0.4962
 9902TIP3    H253902   6.062   4.576   7.498  0.3632 -0.4141 -0.3509
 9903TIP3   OH253903   0.258   4.579   8.463 -1.0964 -0.1638 -0.0169
 9903TIP3    H153904   0.215   4.576   8.548 -0.5758 -1.2737  0.2248
 9903TIP3    H253905   0.195   4.541   8.402 -1.4951  0.6920 -0.1555
 9904TIP3   OH253906   4.790   5.473   7.799  0.2358  0.2221  0.5044
 9904TIP3    H153907   4.721   5.424   7.844  0.7422 -1.2399 -0.2603
 9904TIP3    H253908   4.861   5.479   7.863 -0.4748  1.5726  1.2287
 9905TIP3   OH253909   3.394   5.371   7.818  0.1626 -0.3242 -0.3289
 9905TIP3    H153910   3.374   5.455   7.776  0.5763 -0.1628 -0.2053
 9905TIP3    H253911   3.313   5.321   7.809  0.6190 -0.7654 -2.4521
 9906TIP3   OH253912   5.422   4.471   5.687  0.8403  0.0901 -0.0732
 9906TIP3    H153913   5.342   4.509   5.650  1.2593  1.0371 -0.0378
 9906TIP3    H253914   5.391   4.401   5.745  0.1768 -1.9328 -2.6761
 9907TIP3   OH253915   5.903   3.548   8.251 -0.5688 -0.4694 -0.5416
 9907TIP3    H153916   5.889   3.494   8.329 -1.7868  0.4869 -0.0708
 9907TIP3    H253917   5.989   3.522   8.219  0.1853 -0.5054  1.4131
 9908TIP3   OH253918   2.252   4.135   8.308 -0.1854 -0.0300 -0.0546
 9908TIP3    H153919   2.264   4.159   8.216  0.8403 -0.9603 -0.1934
 9908TIP3    H253920   2.259   4.040   8.309 -2.9805 -0.2940  0.6308
 9909TIP3   OH253921   4.702   2.481   5.680  0.0402  0.1009 -0.7303
 9909TIP3    H153922   4.654   2.469   5.598 -0.9290  1.1189 -0.3297
 9909TIP3    H253923   4.684   2.401   5.729 -1.7399  0.6963 -0.3607
 9910TIP3   OH253924   1.484   4.556   5.800  0.6574  0.1667  0.1371
 9910TIP3    H153925   1.518   4.475   5.839 -0.9901 -0.8154 -0.3848
 9910TIP3    H253926   1.510   4.550   5.708  0.3009  0.0952  0.0404
 9911TIP3   OH253927   3.836   2.143   7.642  0.2635 -0.2679 -0.2101
 9911TIP3    H153928   3.827   2.201   7.718 -2.2915 -0.6110 -0.1880
 9911TIP3    H253929   3.852   2.203   7.569  1.2306  0.1688  0.3310
 9912TIP3   OH253930   4.844   4.859   7.948 -0.4316  0.2706  0.0274
 9912TIP3    H153931   4.768   4.848   7.891  0.6127  1.7849 -1.7691
 9912TIP3    H253932   4.919   4.850   7.889  0.7474  0.3101  1.4747
 9913TIP3   OH253933   3.715   2.209   8.105  0.0527  0.4048  0.2531
 9913TIP3    H153934   3.760   2.227   8.188 -0.0577  0.6879  0.2527
 9913TIP3    H253935   3.780   2.224   8.038 -0.3349  1.9371  0.1783
 9914TIP3   OH253936   2.153   6.202   8.493 -0.2360  0.5229  0.0927
 9914TIP3    H153937   2.170   6.188   8.587  1.9244 -1.1146 -0.4589
 9914TIP3    H253938   2.132   6.295   8.486 -0.3491  0.7015  2.1895
 9915TIP3   OH253939   5.879   2.351   6.337 -0.3429 -0.4393 -0.4628
 9915TIP3    H153940   5.808   2.298   6.300 -0.5532  0.7641 -1.8536
 9915TIP3    H253941   5.922   2.390   6.261  0.3333  0.7335  0.4850
 9916TIP3   OH253942   2.337   0.104   7.741 -0.3370  0.0303  0.6942
 9916TIP3    H153943   2.424   0.064   7.751  0.4744  1.2906 -0.7755
 9916TIP3    H253944   2.347   0.191   7.779 -1.3265 -0.2049  1.5426
 9917TIP3   OH253945   4.113   0.121   6.078  0.4824 -0.2426 -0.2568
 9917TIP3    H153946   4.019   0.105   6.086  0.3968 -0.0535 -0.8347
 9917TIP3    H253947   4.119   0.210   6.042  0.9212  0.4007  1.3270
 9918TIP3   OH253948   5.429   5.477   8.100 -0.4527 -0.0655  0.0593
 9918TIP3    H153949   5.522   5.465   8.119 -0.2746  0.0612 -0.6841
 9918TIP3    H253950   5.422   5.569   8.072 -0.4637 -0.5422 -1.6389
 9919TIP3   OH253951   1.464   2.284   7.919 -0.1863 -0.0043  0.1570
 9919TIP3    H153952   1.371   2.296   7.941 -0.6406  0.9261 -1.9781
 9919TIP3    H253953   1.476   2.189   7.918 -1.1266 -0.1345  0.4983
 9920TIP3   OH253954   5.697   5.955   8.828 -0.2052  0.3137  0.2893
 9920TIP3    H153955   5.716   5.912   8.745  1.1521 -0.9064  1.1812
 9920TIP3    H253956   5.616   5.915   8.859 -0.8028  0.8890 -0.4981
 9921TIP3   OH253957   6.318   1.730   6.206 -0.7841  0.2048  0.5264
 9921TIP3    H153958   6.268   1.773   6.275  0.1179 -0.6356  1.7323
 9921TIP3    H253959   6.284   1.640   6.204 -0.7520  0.1971 -0.0883
 9922TIP3   OH253960   2.103   5.363   7.988 -0.0992 -0.1868 -0.2069
 9922TIP3    H153961   2.190   5.325   7.999 -0.1543 -0.2802 -0.0940
 9922TIP3    H253962   2.099   5.434   8.053  1.1426  2.0567 -2.4127
 9923TIP3   OH253963   6.353   4.017   8.685  0.2576  0.2746  0.4950
 9923TIP3    H153964   6.374   4.013   8.779  0.7030 -1.1287  0.3632
 9923TIP3    H253965   6.426   3.973   8.643 -0.3729  0.1012 -0.4388
 9924TIP3   OH253966   4.292   1.625   7.822  0.1864 -0.0675 -0.6737
 9924TIP3    H153967   4.361   1.559   7.824  0.5621  0.3409  0.4221
 9924TIP3    H253968   4.217   1.583   7.864 -0.1642 -0.4095 -1.6045
 9925TIP3   OH253969   2.920   5.368   7.108 -0.1672 -0.3468  0.2558
 9925TIP3    H153970   2.845   5.326   7.149  1.2156 -2.7153  0.5877
 9925TIP3    H253971   2.940   5.313   7.032 -0.0191  1.4575 -1.0852
 9926TIP3   OH253972   3.781   5.184   7.925 -0.1073  0.7469 -0.1574
 9926TIP3    H153973   3.721   5.115   7.955  1.4756 -1.0437 -0.8759
 9926TIP3    H253974   3.735   5.226   7.853 -0.4045 -0.8240 -0.9193
 9927TIP3   OH253975   1.642   6.594   9.331 -0.4891 -0.1431 -0.5232
 9927TIP3    H153976   1.558   6.596   9.378 -0.8779 -0.6226 -1.1743
 9927TIP3    H253977   1.617   6.590   9.239  0.2692  1.3128 -0.8153
 9928TIP3   OH253978   4.216   3.803   7.014 -0.4954 -0.9045  0.1982
 9928TIP3    H153979   4.231   3.886   7.060 -1.2083 -1.5708  1.7342
 9928TIP3    H253980   4.190   3.829   6.926  1.2260  0.4341  0.0244
 9929TIP3   OH253981   5.644   2.834   7.878  0.7107  0.2225  0.3237
 9929TIP3    H153982   5.708   2.855   7.946 -2.3247  0.0903  3.5005
 9929TIP3    H253983   5.576   2.901   7.887 -0.0918 -0.1267 -2.2963
 9930TIP3   OH253984   5.959   1.353   5.789  0.2734 -0.4114  0.4600
 9930TIP3    H153985   5.993   1.365   5.700  1.0501 -0.6072  0.7242
 9930TIP3    H253986   5.879   1.301   5.777 -1.2419  1.9472 -0.3862
 9931TIP3   OH253987   0.907   5.704   6.457 -0.2515 -0.4900 -0.3904
 9931TIP3    H153988   0.999   5.721   6.475 -0.3402 -0.1842 -0.2188
 9931TIP3    H253989   0.863   5.787   6.476 -0.7797 -1.0583  1.0850
 9932TIP3   OH253990   0.929   3.583   7.080  0.4196 -0.3578 -0.0655
 9932TIP3    H153991   1.016   3.587   7.120  0.0659 -1.6895  0.8747
 9932TIP3    H253992   0.941   3.624   6.994  1.0900  3.0808  1.4939
 9933TIP3   OH253993   6.625   4.397   8.557 -0.0820  0.0817  0.5243
 9933TIP3    H153994   6.628   4.471   8.496  1.7892 -0.1216  0.3120
 9933TIP3    H253995   6.622   4.437   8.643 -0.2236  0.3973  0.3738
 9934TIP3   OH253996   0.049   2.155   6.190 -0.4309 -0.0674 -0.1422
 9934TIP3    H153997   0.135   2.165   6.150 -0.4623  1.6553  0.1455
 9934TIP3    H253998  -0.013   2.178   6.120 -0.5898  0.1235  0.0575
 9935TIP3   OH253999   6.531   2.802   6.072  0.2521  0.4669  0.1834
 9935TIP3    H154000   6.553   2.723   6.022 -0.5863 -0.9544  1.9620
 9935TIP3    H254001   6.567   2.786   6.159 -3.1132  0.3012  1.7126
 9936TIP3   OH254002   0.379   2.817   6.833 -0.5269 -0.0006  0.3984
 9936TIP3    H154003   0.416   2.751   6.892  0.6237 -0.2584 -0.5719
 9936TIP3    H254004   0.354   2.768   6.755 -2.3067  0.2885  0.7423
 9937TIP3   OH254005   6.684   1.967   7.232 -0.7784 -0.2832  0.5402
 9937TIP3    H154006   6.768   1.999   7.263 -0.5615 -0.0419 -0.2580
 9937TIP3    H254007   6.654   1.907   7.300  0.1929 -0.6236  0.6906
 9938TIP3   OH254008   3.714   0.720   6.206  0.1250 -0.3606 -0.2164
 9938TIP3    H154009   3.713   0.791   6.270 -1.3117 -1.0790  0.6172
 9938TIP3    H254010   3.768   0.753   6.134  1.7109  0.5156  1.3009
 9939TIP3   OH254011   1.376   0.655   6.876  0.2068 -0.2077 -0.1067
 9939TIP3    H154012   1.360   0.565   6.847  2.2732 -1.0513  1.1930
 9939TIP3    H254013   1.324   0.663   6.956 -0.1929 -0.1340 -0.3688
 9940TIP3   OH254014   2.418   6.469   8.343  0.0803 -0.3472  0.3608
 9940TIP3    H154015   2.336   6.467   8.392 -0.4686  0.3104 -0.4939
 9940TIP3    H254016   2.482   6.503   8.405 -0.1555 -1.4028  1.2097
 9941TIP3   OH254017   3.252   2.216   6.420 -0.1546  0.0566  0.0654
 9941TIP3    H154018   3.163   2.195   6.450  0.0187 -1.6499 -0.4914
 9941TIP3    H254019   3.249   2.201   6.325  0.3835  1.3209 -0.1677
 9942TIP3   OH254020   4.452   2.648   6.428  0.0897  0.1211  0.0643
 9942TIP3    H154021   4.373   2.693   6.397 -0.9480 -0.0881  2.1915
 9942TIP3    H254022   4.494   2.713   6.486  0.8819 -0.1662 -0.1822
 9943TIP3   OH254023   3.129   3.620   9.646 -0.0638  0.1928  0.2932
 9943TIP3    H154024   3.074   3.697   9.660  0.9889  0.9981  0.1697
 9943TIP3    H254025   3.106   3.590   9.558  1.5050  2.1286 -0.8915
 9944TIP3   OH254026   6.236   2.171   6.120  0.3069 -0.3880 -0.3371
 9944TIP3    H154027   6.306   2.115   6.154 -0.2652 -1.0638 -0.2529
 9944TIP3    H254028   6.199   2.213   6.198  1.0449  0.4933 -0.4432
 9945TIP3   OH254029   6.693   2.215   7.144  0.1870  0.0915 -0.0521
 9945TIP3    H154030   6.689   2.123   7.171  0.5363  0.6563  2.0781
 9945TIP3    H254031   6.726   2.262   7.221 -0.1715  2.0458 -1.0184
 9946TIP3   OH254032   3.247   6.752   8.541 -0.5341  0.0412  0.0757
 9946TIP3    H154033   3.227   6.663   8.569 -0.0198  0.3643  1.5470
 9946TIP3    H254034   3.268   6.744   8.448 -1.6916 -1.1704 -0.0999
 9947TIP3   OH254035   1.313   1.535   7.250 -0.0780 -0.1865  0.4351
 9947TIP3    H154036   1.231   1.502   7.213  0.2917 -1.1828  0.4702
 9947TIP3    H254037   1.343   1.466   7.309  1.5775 -0.5633 -0.7512
 9948TIP3   OH254038   0.861   1.486   8.428  0.1877  0.8370 -0.3430
 9948TIP3    H154039   0.806   1.415   8.395  0.4490 -0.6896  2.2134
 9948TIP3    H254040   0.821   1.509   8.512  0.9605  2.7423 -0.4644
 9949TIP3   OH254041   4.442   2.218   5.730  0.4093 -0.2991 -0.8669
 9949TIP3    H154042   4.444   2.306   5.692  1.2356  0.3164  0.5213
 9949TIP3    H254043   4.530   2.184   5.715  0.1786 -0.7878 -1.1423
 9950TIP3   OH254044   6.333   5.014   9.145 -0.1054 -0.1156  0.1137
 9950TIP3    H154045   6.333   5.011   9.240  0.3364 -0.6282  0.1030
 9950TIP3    H254046   6.346   4.923   9.118 -1.2183 -0.1294 -0.4460
 9951TIP3   OH254047   0.653   0.417   6.284  0.7447  0.2057  0.0004
 9951TIP3    H154048   0.696   0.375   6.209 -1.0323  0.5962 -1.2917
 9951TIP3    H254049   0.708   0.493   6.304  1.3345  0.0040 -0.8112
 9952TIP3   OH254050   2.906   5.896   6.727 -0.4154  0.0040  0.4511
 9952TIP3    H154051   2.892   5.956   6.801  0.9276 -0.9180  1.4867
 9952TIP3    H254052   2.882   5.948   6.650 -0.3130  1.5277  1.4012
 9953TIP3   OH254053   5.098   2.104   5.577  0.6459 -0.0090  0.0923
 9953TIP3    H154054   5.041   2.147   5.514  0.9454 -0.3341 -0.4086
 9953TIP3    H254055   5.154   2.047   5.524  1.3209  0.1725  0.5877
 9954TIP3   OH254056   5.263   0.768   6.242  0.5071 -0.2713  0.2347
 9954TIP3    H154057   5.226   0.712   6.310 -0.0195 -0.1576  0.0421
 9954TIP3    H254058   5.191   0.825   6.216  0.7270 -0.2663 -0.3671
 9955TIP3   OH254059   4.201   4.888   9.612 -0.1640 -0.0791 -0.0842
 9955TIP3    H154060   4.270   4.946   9.581  2.0945 -1.7039  1.6163
 9955TIP3    H254061   4.212   4.884   9.707 -1.4230 -1.8196  0.0478
 9956TIP3   OH254062   0.141   5.293   7.367  0.3681 -0.3679 -0.2359
 9956TIP3    H154063   0.083   5.236   7.417 -0.4433  0.4724 -0.1948
 9956TIP3    H254064   0.229   5.261   7.386 -0.0384 -1.2317  0.2411
 9957TIP3   OH254065   6.702   3.793   7.443  0.0237  0.1399 -0.1068
 9957TIP3    H154066   6.727   3.827   7.357  1.6113 -0.5309  0.0397
 9957TIP3    H254067   6.693   3.699   7.429  1.8017 -0.1954  0.7295
 9958TIP3   OH254068   0.362   1.227   5.770 -0.2095  0.1573  0.4718
 9958TIP3    H154069   0.279   1.197   5.734 -0.7975  1.0204  1.0645
 9958TIP3    H254070   0.400   1.281   5.701  0.0000 -0.4570  0.0952
 9959TIP3   OH254071   0.148   4.239   5.635 -0.3593  0.3961  0.0687
 9959TIP3    H154072   0.053   4.244   5.627 -0.4259  0.4496  0.8315
 9959TIP3    H254073   0.181   4.312   5.583 -0.7361  0.3894 -0.1814
 9960TIP3   OH254074   3.074   2.145   6.605  0.1738  0.2745  0.3232
 9960TIP3    H154075   3.009   2.210   6.579  0.2276  0.3360  0.3442
 9960TIP3    H254076   3.130   2.190   6.668  0.0549  0.1339  0.5348
 9961TIP3   OH254077   1.892   2.584   5.573  0.3505 -0.4435 -0.3211
 9961TIP3    H154078   1.942   2.512   5.610  0.5819 -0.5701 -0.8812
 9961TIP3    H254079   1.866   2.554   5.486 -0.9605 -0.5058  0.0629
 9962TIP3   OH254080   4.281   5.859   5.594 -0.0406 -0.2651 -0.3869
 9962TIP3    H154081   4.274   5.779   5.543 -3.7390 -1.0104  0.9438
 9962TIP3    H254082   4.330   5.834   5.672 -0.8604 -1.1734 -0.1503
 9963TIP3   OH254083   4.132   3.931   9.785 -0.1130  0.7596 -0.0230
 9963TIP3    H154084   4.059   3.987   9.811  0.1731  1.8094 -1.3548
 9963TIP3    H254085   4.129   3.931   9.689  0.2156 -1.1100 -0.0731
 9964TIP3   OH254086   2.420   0.744   6.667  0.6794 -0.0975 -0.5941
 9964TIP3    H154087   2.478   0.737   6.743  1.6904  1.4122 -1.2015
 9964TIP3    H254088   2.366   0.665   6.672  1.3527 -0.4999  1.1624
 9965TIP3   OH254089   1.431   3.006   7.815 -0.1334 -0.1364  0.0665
 9965TIP3    H154090   1.509   2.967   7.776 -0.4315  0.4673 -1.1733
 9965TIP3    H254091   1.410   2.948   7.888  1.1185 -0.6445  0.0548
 9966TIP3   OH254092   4.035   0.183   9.022  0.0868 -0.0337 -0.1454
 9966TIP3    H154093   4.079   0.128   9.087  0.9994  0.0635 -0.6567
 9966TIP3    H254094   3.967   0.229   9.071  0.0015 -0.8241  0.4958
 9967TIP3   OH254095   1.848   0.988   6.164  0.4220 -0.3282 -0.1890
 9967TIP3    H154096   1.757   0.979   6.135  0.3526 -1.2628  0.2713
 9967TIP3    H254097   1.890   1.041   6.096 -0.3340 -0.3577 -0.6895
 9968TIP3   OH254098   0.433   5.038   6.356  0.1294  0.1129 -0.6285
 9968TIP3    H154099   0.342   5.016   6.337 -0.2513  1.7960 -0.9202
 9968TIP3    H254100   0.430   5.079   6.443  0.4161  1.1582 -1.0904
 9969TIP3   OH254101   1.390   4.053   8.232 -0.0747 -0.3560  0.2824
 9969TIP3    H154102   1.383   4.129   8.174 -0.2765  0.3601  1.2236
 9969TIP3    H254103   1.302   4.041   8.267  0.2431 -0.1754  1.1731
 9970TIP3   OH254104   3.287   2.768   7.034  0.0180  0.0881 -0.3282
 9970TIP3    H154105   3.345   2.691   7.037 -0.3567 -0.1690  0.7240
 9970TIP3    H254106   3.299   2.803   6.945  1.2048 -0.4020 -0.3867
 9971TIP3   OH254107   3.376   1.265   6.998 -0.5760  0.4420  0.0566
 9971TIP3    H154108   3.455   1.318   7.002 -0.7526  0.8258 -1.1264
 9971TIP3    H254109   3.356   1.259   6.905 -0.5425 -1.7253  0.1238
 9972TIP3   OH254110   6.473   1.811   5.692 -0.3919  0.1420 -0.1398
 9972TIP3    H154111   6.451   1.740   5.631  0.4100  1.2640 -1.7932
 9972TIP3    H254112   6.389   1.852   5.712 -0.5250  0.7261 -1.7524
 9973TIP3   OH254113   3.269   3.129   6.623  0.0691 -0.0043 -0.5247
 9973TIP3    H154114   3.200   3.062   6.620 -0.0750  0.0098  1.4099
 9973TIP3    H254115   3.222   3.212   6.634  0.3017  0.3422 -1.8943
 9974TIP3   OH254116   6.047   2.291   8.101 -0.2608 -0.0597 -0.0753
 9974TIP3    H154117   5.966   2.255   8.139 -0.2952 -1.4772 -1.3753
 9974TIP3    H254118   6.072   2.227   8.035  1.0787  1.1570 -0.7937
 9975TIP3   OH254119   3.443   1.583   7.186  0.3916  0.5414  0.4315
 9975TIP3    H154120   3.394   1.598   7.106  1.8783  0.1741 -0.5859
 9975TIP3    H254121   3.504   1.512   7.165  0.3602 -0.0348  2.0969
 9976TIP3   OH254122   3.517   1.055   6.610  0.3420  0.0977  0.3486
 9976TIP3    H154123   3.473   1.089   6.532  0.0196 -0.0376  0.4711
 9976TIP3    H254124   3.473   1.099   6.683  1.0054  0.6412  0.4341
 9977TIP3   OH254125   4.454   1.393   7.826 -0.2705  0.0496  0.4636
 9977TIP3    H154126   4.394   1.337   7.775  0.4213  0.5108 -0.9037
 9977TIP3    H254127   4.539   1.350   7.817 -0.3176 -0.5273  2.2886
 9978TIP3   OH254128   1.783   1.437   7.547  0.3850 -0.2412 -0.1434
 9978TIP3    H154129   1.827   1.507   7.594  1.4032 -1.1825  0.3464
 9978TIP3    H254130   1.772   1.368   7.612  1.1004 -1.2601 -1.0674
 9979TIP3   OH254131   4.107   3.478   6.658 -0.0853  0.1850  0.3111
 9979TIP3    H154132   4.141   3.404   6.608 -2.6616 -0.4218 -0.6575
 9979TIP3    H254133   4.185   3.517   6.698  1.4173 -2.7746  0.5487
 9980TIP3   OH254134   3.175   1.288   8.314 -0.1433  0.3357  0.0964
 9980TIP3    H154135   3.211   1.283   8.403 -0.6350 -0.1091  0.2766
 9980TIP3    H254136   3.147   1.199   8.295  2.0735 -0.0980 -1.4166
 9981TIP3   OH254137   4.197   0.864   7.122 -0.0582 -0.0853 -0.4726
 9981TIP3    H154138   4.165   0.792   7.068 -2.1483 -0.4337  1.0731
 9981TIP3    H254139   4.119   0.920   7.135  0.0865 -0.4368  2.7298
 9982TIP3   OH254140   2.559   4.585   7.410  0.4284  0.0260 -0.6942
 9982TIP3    H154141   2.534   4.498   7.381 -3.4795  0.5628  0.4047
 9982TIP3    H254142   2.514   4.595   7.494  1.0767  2.9259 -0.5979
 9983TIP3   OH254143   2.617   5.727   6.718 -0.1534 -0.0071  0.4351
 9983TIP3    H154144   2.630   5.716   6.624  1.9686  0.9780  0.5406
 9983TIP3    H254145   2.532   5.688   6.736 -0.9244  0.4139 -1.9906
 9984TIP3   OH254146   3.554   5.000   6.223  0.2793 -0.0132  0.0083
 9984TIP3    H154147   3.589   5.089   6.217  1.6438 -0.3204  2.1643
 9984TIP3    H254148   3.500   5.002   6.302 -0.3073 -0.9223 -0.3608
 9985TIP3   OH254149   5.738   1.459   8.480  0.0071  0.7476  0.0283
 9985TIP3    H154150   5.785   1.537   8.450 -1.2154  0.8645 -1.7136
 9985TIP3    H254151   5.648   1.490   8.496 -0.1308 -0.0058  0.8220
 9986TIP3   OH254152   0.304   3.457   7.106  0.7003  0.0740 -0.0927
 9986TIP3    H154153   0.289   3.517   7.178 -0.6930  0.6193 -0.7945
 9986TIP3    H254154   0.400   3.449   7.100  0.8547  0.8940  1.0659
 9987TIP3   OH254155   3.791   3.336   6.491 -0.6676  0.3395 -0.5828
 9987TIP3    H154156   3.707   3.293   6.474 -0.7919  0.8772 -1.3601
 9987TIP3    H254157   3.850   3.300   6.425 -0.2781 -0.0390 -0.0363
 9988TIP3   OH254158   1.301   4.838   9.775  0.5381 -0.0739 -0.2939
 9988TIP3    H154159   1.247   4.825   9.853  0.1011  1.6852 -0.2594
 9988TIP3    H254160   1.243   4.882   9.712  1.5687  0.7535 -0.7023
 9989TIP3   OH254161   2.131   3.943   5.512  0.0410 -0.2038 -0.3333
 9989TIP3    H154162   2.096   3.921   5.425  1.2767  0.1960 -0.9576
 9989TIP3    H254163   2.204   3.883   5.524  1.0973  1.0185 -0.4309
 9990TIP3   OH254164   5.319   6.059   5.965  0.1806  0.0309  0.3868
 9990TIP3    H154165   5.352   6.126   5.905  0.5561  0.3327  0.9252
 9990TIP3    H254166   5.253   6.104   6.017 -2.4531 -0.9682 -1.8304
 9991TIP3   OH254167   5.926   2.519   8.304 -0.8276  0.1209 -0.0522
 9991TIP3    H154168   5.995   2.455   8.286 -0.0512  0.6656  0.8768
 9991TIP3    H254169   5.904   2.507   8.396  0.2142  1.9433  0.5003
 9992TIP3   OH254170   6.098   5.589   6.027  0.0598 -0.3706 -0.4913
 9992TIP3    H154171   6.161   5.629   6.087 -0.4118 -0.4168  0.0463
 9992TIP3    H254172   6.017   5.638   6.041 -0.3939 -1.1938 -0.1697
 9993TIP3   OH254173   5.441   3.155   7.729  0.0338  0.0269 -0.3221
 9993TIP3    H154174   5.471   3.127   7.815  0.4590 -0.0664 -0.4985
 9993TIP3    H254175   5.520   3.186   7.685 -0.1543 -0.0707 -0.7358
 9994TIP3   OH254176   4.541   2.833   8.033 -0.1988  0.0562 -0.0254
 9994TIP3    H154177   4.520   2.783   7.955  1.4131  0.8334 -1.0041
 9994TIP3    H254178   4.624   2.877   8.013  0.2427  0.3381  2.0828
 9995TIP3   OH254179   4.387   0.661   8.731 -0.3698 -0.1987  0.7372
 9995TIP3    H154180   4.418   0.729   8.671  1.2961  0.2057  1.9825
 9995TIP3    H254181   4.293   0.679   8.741  0.0549  2.0882  1.1990
 9996TIP3   OH254182   4.988   5.007   7.685  0.2074  0.0031  0.0350
 9996TIP3    H154183   5.003   5.065   7.610  0.6506  0.1902  0.2645
 9996TIP3    H254184   4.901   4.970   7.670 -0.5615  1.5619  0.4392
 9997TIP3   OH254185   6.342   1.511   8.264  0.4711 -0.5815 -0.3936
 9997TIP3    H154186   6.266   1.566   8.280  0.2706 -0.2668 -2.2391
 9997TIP3    H254187   6.374   1.489   8.352 -2.5535 -1.9322  0.5100
 9998TIP3   OH254188   5.739   4.748   7.698  0.3612 -0.4722  0.6620
 9998TIP3    H154189   5.797   4.710   7.631 -0.6621 -1.0351  0.0644
 9998TIP3    H254190   5.675   4.798   7.648  0.5242  0.4384  1.3363
 9999TIP3   OH254191   2.284   6.708   5.676  0.1578  1.0016 -0.2995
 9999TIP3    H154192   2.337   6.788   5.683  0.2788  0.8506  0.5412
 9999TIP3    H254193   2.195   6.737   5.695  0.1763  0.9678 -0.1619
10000TIP3   OH254194   4.410   3.886   7.687  0.0703  0.1868  0.0967
10000TIP3    H154195   4.375   3.804   7.654  0.2728  0.3563 -0.5460
10000TIP3    H254196   4.432   3.867   7.778 -1.2232 -0.0619  0.3818
10001TIP3   OH254197   1.281   5.590   6.855 -0.2098  0.3276 -0.2491
10001TIP3    H154198   1.274   5.537   6.934 -0.3919  1.0300  0.2168
10001TIP3    H254199   1.214   5.657   6.865 -1.2493 -0.4578 -1.7108
10002TIP3   OH254200   1.527   4.770   9.629 -0.0916 -0.0061  0.1881
10002TIP3    H154201   1.531   4.836   9.559 -0.3587  0.9474  1.0542
10002TIP3    H254202   1.446   4.789   9.675 -0.1129 -0.8802  0.5295
10003TIP3   OH254203   3.002   0.826   8.037 -0.2311 -0.2273 -0.2760
10003TIP3    H154204   2.993   0.901   8.095 -0.0791 -0.0846 -0.4346
10003TIP3    H254205   3.057   0.857   7.965 -2.1658  0.2752 -1.6378
10004TIP3   OH254206   5.784   3.578   5.497  0.1345  0.3865  0.1552
10004TIP3    H154207   5.739   3.497   5.521  0.4882  0.1289 -0.0458
10004TIP3    H254208   5.718   3.647   5.509 -0.0379  0.1234  0.7474
10005TIP3   OH254209   0.470   2.222   7.949  0.5847  0.6496  0.0714
10005TIP3    H154210   0.410   2.276   8.000  0.8243  0.5947  0.4216
10005TIP3    H254211   0.445   2.237   7.858  0.1656  0.7705  0.2035
10006TIP3   OH254212   0.935   1.977   7.223 -0.2899  0.3443  0.7171
10006TIP3    H154213   0.904   1.984   7.133  0.5950 -0.1373  0.3688
10006TIP3    H254214   0.994   1.902   7.223 -2.5416 -1.5896  2.3503
10007TIP3   OH254215   5.435   6.291   6.869  0.4237  0.5419 -0.8711
10007TIP3    H154216   5.403   6.208   6.905 -0.4394  0.4755 -1.7573
10007TIP3    H254217   5.437   6.350   6.945  1.0087 -0.2626 -0.2403
10008TIP3   OH254218   3.404   6.442   7.302 -0.7367  0.3338  0.0297
10008TIP3    H154219   3.434   6.516   7.356  1.3063 -0.1367 -0.3804
10008TIP3    H254220   3.368   6.483   7.224 -1.6760  0.9361  0.7435
10009TIP3   OH254221   4.156   4.761   8.793  0.0833 -0.3658  0.2534
10009TIP3    H154222   4.130   4.805   8.874  0.0732  2.1361 -1.0039
10009TIP3    H254223   4.243   4.727   8.811 -0.1872 -0.4384  1.5150
10010TIP3   OH254224   1.906   1.162   5.461 -0.3558  0.8062  0.4281
10010TIP3    H154225   1.870   1.102   5.395  0.7772 -2.7351  2.7241
10010TIP3    H254226   2.000   1.166   5.441 -0.5948  3.1058 -0.5176
10011TIP3   OH254227   4.130   1.894   7.878 -0.0644  0.1719  0.0132
10011TIP3    H154228   4.183   1.819   7.853  0.2579  0.1514  0.7467
10011TIP3    H254229   4.144   1.904   7.972 -2.2492 -0.5483  0.4863
10012TIP3   OH254230   2.008   2.830   7.630 -0.0386  0.3879 -0.1464
10012TIP3    H154231   2.017   2.744   7.670 -0.5104  0.5743  0.3676
10012TIP3    H254232   2.043   2.819   7.541  0.2300 -0.2395  0.0321
10013TIP3   OH254233   1.205   3.837   7.298 -0.7953  0.5845  0.2558
10013TIP3    H154234   1.253   3.792   7.227 -0.8334  1.3312 -0.2542
10013TIP3    H254235   1.262   3.910   7.323 -1.0693  0.6953  0.5606
10014TIP3   OH254236   1.241   1.208   7.841  0.6474 -0.8175  0.0567
10014TIP3    H154237   1.271   1.274   7.779 -0.7788  0.1316  0.3395
10014TIP3    H254238   1.313   1.199   7.904  0.4723  1.2032  0.5855
10015TIP3   OH254239   5.701   5.499   8.111 -0.8864  0.2060 -0.1802
10015TIP3    H154240   5.688   5.460   8.025 -0.3633 -0.9258  0.2278
10015TIP3    H254241   5.793   5.527   8.112 -1.3380  1.7802 -0.5787
10016TIP3   OH254242   0.045   2.868   5.876 -0.1850 -0.7374  0.5943
10016TIP3    H154243  -0.004   2.870   5.958 -0.7192 -0.1713  0.2740
10016TIP3    H254244  -0.022   2.867   5.808  0.1817  1.4381  0.1023
10017TIP3   OH254245   6.172   0.515   6.993 -0.1907  0.4877  0.1001
10017TIP3    H154246   6.170   0.463   6.913 -2.4301  0.7129 -0.0324
10017TIP3    H254247   6.265   0.517   7.018  0.1126 -2.9714 -0.2674
10018TIP3   OH254248   5.716   1.206   6.731 -0.6452 -0.1477  0.5564
10018TIP3    H154249   5.667   1.197   6.813 -1.4262 -0.3180  0.0671
10018TIP3    H254250   5.689   1.132   6.678 -0.5441  0.2612 -0.0750
10019TIP3   OH254251   5.757   6.517   9.026  0.1070 -0.1598 -0.0271
10019TIP3    H154252   5.668   6.524   8.992  0.0890  0.8176  0.1747
10019TIP3    H254253   5.753   6.448   9.092 -0.3013 -0.7037 -0.6183
10020TIP3   OH254254   3.539   4.134   7.502  0.1143 -0.4916  0.4728
10020TIP3    H154255   3.588   4.053   7.488  0.5534 -0.3496  1.1257
10020TIP3    H254256   3.460   4.106   7.549 -0.2992 -0.6817 -0.3186
10021TIP3   OH254257   3.581   4.910   7.666  0.0237  0.2195 -0.1178
10021TIP3    H154258   3.604   4.990   7.619  0.5846 -0.1213 -0.4273
10021TIP3    H254259   3.618   4.840   7.613  2.2933 -0.1031  1.7347
10022TIP3   OH254260   4.217   0.852   7.727 -0.1454 -0.2837  0.0269
10022TIP3    H154261   4.132   0.860   7.683  0.2483 -0.5969 -0.8024
10022TIP3    H254262   4.195   0.844   7.820 -1.0146 -0.2031 -0.1665
10023TIP3   OH254263   0.202   0.952   7.693 -0.7025 -0.0177 -0.3593
10023TIP3    H154264   0.169   0.943   7.782 -0.6416  2.1191 -0.0527
10023TIP3    H254265   0.146   0.895   7.640 -0.9606 -1.0498  0.9851
10024TIP3   OH254266   1.892   1.642   6.538 -0.3812  0.0650  0.0147
10024TIP3    H154267   1.902   1.568   6.597  0.3890 -1.3859 -1.8364
10024TIP3    H254268   1.847   1.606   6.461  1.3688  1.0976 -1.5879
10025TIP3   OH254269   2.762   5.647   6.007 -0.5828 -0.5236  0.3538
10025TIP3    H154270   2.737   5.573   5.952  0.1496  0.3652 -1.2581
10025TIP3    H254271   2.857   5.638   6.016 -0.2231  1.0714 -1.2677
10026TIP3   OH254272   3.127   6.552   8.763  0.3280 -0.1384 -0.0374
10026TIP3    H154273   3.145   6.458   8.757  0.6991 -0.0930  0.3002
10026TIP3    H254274   3.047   6.564   8.712  0.8498 -0.4654 -0.9607
10027TIP3   OH254275   4.619   5.252   7.749 -0.7367 -0.0006 -0.1430
10027TIP3    H154276   4.617   5.202   7.668 -1.7490  0.0397 -0.1571
10027TIP3    H254277   4.691   5.215   7.799 -0.7456 -0.6972 -0.6399
10028TIP3   OH254278   3.712   3.792   8.362 -0.5713 -0.5813  0.1692
10028TIP3    H154279   3.751   3.764   8.445  0.7139 -1.2629 -0.6480
10028TIP3    H254280   3.654   3.865   8.387  0.8636  0.1651  1.4974
10029TIP3   OH254281   3.689   4.785   6.809 -0.0489 -0.5324  0.1011
10029TIP3    H154282   3.663   4.707   6.858 -1.7536 -0.4226 -0.5270
10029TIP3    H254283   3.658   4.767   6.720 -0.8344  1.0014  0.0408
10030TIP3   OH254284   3.876   2.340   7.437 -0.5808 -0.3225 -0.2852
10030TIP3    H154285   3.950   2.400   7.425  0.1084 -1.0290  0.2916
10030TIP3    H254286   3.848   2.318   7.348  1.0493 -1.3984 -0.5879
10031TIP3   OH254287   1.806   5.842   7.164 -0.2450  0.3159  0.0678
10031TIP3    H154288   1.833   5.807   7.248 -0.2286 -0.3523 -0.2133
10031TIP3    H254289   1.739   5.781   7.132  1.5954 -0.9415 -1.6044
10032TIP3   OH254290   1.144   2.690   5.882 -0.5704 -0.1231  0.3811
10032TIP3    H154291   1.063   2.676   5.931 -0.5130  0.3481  0.6227
10032TIP3    H254292   1.116   2.700   5.791 -1.0580  2.2617  0.7250
10033TIP3   OH254293   6.181   5.237   7.561 -0.2727  0.3761  0.5366
10033TIP3    H154294   6.148   5.219   7.473  0.3309  0.9698  0.1783
10033TIP3    H254295   6.276   5.245   7.550 -0.2917  1.5363  1.0305
10034TIP3   OH254296   1.177   5.763   6.177 -0.0892  0.3739 -0.2470
10034TIP3    H154297   1.209   5.840   6.130  0.5133  0.9488  1.0543
10034TIP3    H254298   1.195   5.782   6.269  0.8372 -1.6931  0.0413
10035TIP3   OH254299   6.419   6.302   6.167 -0.0445 -0.3769  0.0180
10035TIP3    H154300   6.435   6.221   6.217  1.6616 -0.1541 -0.0954
10035TIP3    H254301   6.411   6.370   6.234 -1.2220 -0.5780  0.1021
10036TIP3   OH254302   1.373   6.526   6.748  0.6224 -0.6834 -0.0092
10036TIP3    H154303   1.398   6.463   6.681 -0.1184 -0.8788 -0.1069
10036TIP3    H254304   1.299   6.574   6.710  2.7298  2.0358 -1.0057
10037TIP3   OH254305   2.992   4.401   7.586  0.1430  0.0794 -0.0443
10037TIP3    H154306   3.012   4.416   7.678  0.5279  1.8376 -0.3696
10037TIP3    H254307   3.073   4.426   7.540 -0.5662  0.7884 -0.9480
10038TIP3   OH254308   6.132   6.698   7.739 -0.1194  0.1370  0.3248
10038TIP3    H154309   6.163   6.638   7.807  1.2464  0.5658  0.0918
10038TIP3    H254310   6.137   6.647   7.658  2.4092  0.9379 -0.1043
10039TIP3   OH254311   6.155   3.145   5.866  0.2294  0.2287  0.2840
10039TIP3    H154312   6.192   3.106   5.787 -0.3302  0.2493  0.0056
10039TIP3    H254313   6.083   3.086   5.890  0.9395 -0.2572  1.2797
10040TIP3   OH254314   5.206   2.440   7.004 -0.6244 -0.3693 -1.2397
10040TIP3    H154315   5.230   2.347   7.009 -0.0355 -0.1768 -0.1510
10040TIP3    H254316   5.180   2.462   7.094 -2.4772  0.0838 -1.8548
10041TIP3   OH254317   1.918   1.872   8.108 -0.0662  0.4708 -0.3160
10041TIP3    H154318   1.922   1.889   8.014  0.3305  0.9891 -0.2071
10041TIP3    H254319   1.897   1.957   8.147  1.2611  0.5966  0.1759
10042TIP3   OH254320   1.462   2.788   6.745  0.4922 -0.4925  0.8403
10042TIP3    H154321   1.503   2.864   6.787  0.0694  0.2304 -0.0317
10042TIP3    H254322   1.464   2.808   6.652  1.0465 -1.9003  0.5250
10043TIP3   OH254323   1.064   0.230   8.192 -0.1337  0.0773  0.2334
10043TIP3    H154324   1.135   0.251   8.253  0.8655 -0.8565 -0.5593
10043TIP3    H254325   0.988   0.217   8.247  0.2433  1.2904  1.0996
10044TIP3   OH254326   0.425   4.175   8.647  0.0980  0.2100 -0.6154
10044TIP3    H154327   0.473   4.255   8.667 -0.3104  0.3444 -0.1281
10044TIP3    H254328   0.479   4.105   8.683 -0.8694  0.4821  1.5476
10045TIP3   OH254329   2.508   6.697   6.598  0.6810 -0.0911 -0.3018
10045TIP3    H154330   2.521   6.663   6.509  1.8208  0.0348 -0.2032
10045TIP3    H254331   2.468   6.783   6.586 -0.0664 -0.4829 -0.6491
10046TIP3   OH254332   4.845   2.311   8.249 -0.0267  0.0920  0.2579
10046TIP3    H154333   4.857   2.291   8.156  1.1504 -0.0543  0.4334
10046TIP3    H254334   4.909   2.379   8.267 -0.1950  0.0555  0.9937
10047TIP3   OH254335   5.990   1.795   6.146 -0.0142 -0.1056  0.1182
10047TIP3    H154336   6.070   1.839   6.174 -0.8265  1.2945  0.3288
10047TIP3    H254337   5.957   1.751   6.224 -1.3347  2.3199  1.0147
10048TIP3   OH254338   1.036   2.200   7.081  0.3237  0.1664 -0.6916
10048TIP3    H154339   1.024   2.145   7.158 -0.4843 -0.2556 -1.1009
10048TIP3    H254340   1.120   2.172   7.044  0.8966  0.6259  0.2199
10049TIP3   OH254341   2.041   1.904   7.299  0.2791 -0.0267 -0.6510
10049TIP3    H154342   2.019   1.941   7.213  0.6733 -0.0824 -0.7782
10049TIP3    H254343   2.104   1.966   7.336 -0.2467  0.2385 -0.2028
10050TIP3   OH254344   3.449   1.627   8.371 -0.2859  0.1879  0.3142
10050TIP3    H154345   3.378   1.580   8.327 -1.0266  0.4437  1.2259
10050TIP3    H254346   3.423   1.631   8.463  0.0530  1.8409  0.3636
10051TIP3   OH254347   0.694   4.223   6.132 -0.2737  0.1650  0.1077
10051TIP3    H154348   0.631   4.256   6.068  1.1714  0.3772 -1.2828
10051TIP3    H254349   0.701   4.292   6.198 -1.1460  0.3325  0.0330
10052TIP3   OH254350   4.991   0.199   5.970 -0.1629  0.7514 -0.1658
10052TIP3    H154351   4.950   0.264   6.027 -1.4554  1.2230 -1.5926
10052TIP3    H254352   5.054   0.249   5.918  0.8203  0.3679  0.6288
10053TIP3   OH254353   3.282   1.896   7.638 -0.0624 -0.0417 -0.4627
10053TIP3    H154354   3.259   1.952   7.712  0.3860 -1.4844  0.8061
10053TIP3    H254355   3.376   1.911   7.625  0.6142 -2.1169  1.3957
10054TIP3   OH254356   5.702   4.598   6.357 -0.1831  0.5639  0.5933
10054TIP3    H154357   5.763   4.633   6.421  1.5495 -0.2164 -0.5598
10054TIP3    H254358   5.707   4.503   6.367 -2.2236  0.4638  1.3292
10055TIP3   OH254359   5.582   3.381   7.660 -0.5922 -0.2424  0.1276
10055TIP3    H154360   5.539   3.458   7.623 -0.7125 -0.0900  0.5716
10055TIP3    H254361   5.611   3.409   7.747  0.0398 -0.4731 -0.0026
10056TIP3   OH254362   3.451   4.692   7.977 -0.0050  0.0152 -0.2744
10056TIP3    H154363   3.442   4.663   8.068  0.4255 -0.4432 -0.3743
10056TIP3    H254364   3.422   4.783   7.978  1.9113  0.6650  0.7191
10057TIP3   OH254365   4.177   0.131   8.248 -0.0125  0.0603 -0.0797
10057TIP3    H154366   4.093   0.124   8.203  0.0534 -2.2157  0.0337
10057TIP3    H254367   4.242   0.130   8.177 -0.0154  3.6398 -0.3082
10058TIP3   OH254368   1.086   2.783   5.622  0.5634  0.5243 -0.0676
10058TIP3    H154369   1.121   2.866   5.654 -0.7688  0.6257  1.2379
10058TIP3    H254370   1.065   2.800   5.530 -2.0513  2.4854  0.7930
10059TIP3   OH254371   1.929   5.515   8.731 -0.3243 -0.4600 -0.3301
10059TIP3    H154372   1.909   5.421   8.729  0.2982 -0.6440  0.8791
10059TIP3    H254373   1.920   5.539   8.823 -1.1405  0.8311 -0.7403
10060TIP3   OH254374   3.097   6.283   6.272 -0.2025  0.3632  0.4912
10060TIP3    H154375   3.168   6.270   6.335 -1.3362 -3.0951  1.2920
10060TIP3    H254376   3.123   6.360   6.222  3.7479 -0.3145  1.1703
10061TIP3   OH254377   6.124   3.718   6.594  0.4200 -0.3882  0.1225
10061TIP3    H154378   6.180   3.754   6.525  1.7174  1.3967  1.9971
10061TIP3    H254379   6.177   3.724   6.673 -1.6690 -0.6460  1.6115
10062TIP3   OH254380   1.127   6.314   6.684 -0.6192 -0.4601 -0.1324
10062TIP3    H154381   1.102   6.398   6.645  0.1356  0.0872  0.5290
10062TIP3    H254382   1.223   6.311   6.676 -0.5040 -0.6018  1.1254
10063TIP3   OH254383   0.525   3.444   5.507  0.2073  0.1400 -0.1371
10063TIP3    H154384   0.593   3.481   5.563  2.8165  0.7417 -3.3687
10063TIP3    H254385   0.463   3.516   5.493 -0.1393  0.1628  1.3589
10064TIP3   OH254386   6.465   5.477   7.466  0.1320 -0.0581  0.3206
10064TIP3    H154387   6.401   5.547   7.478 -0.3350 -0.3606 -0.3185
10064TIP3    H254388   6.455   5.452   7.374  0.4241 -0.8374  0.4955
10065TIP3   OH254389   1.830   6.564   8.644 -0.1430 -0.0287  0.4765
10065TIP3    H154390   1.895   6.562   8.574 -0.0711  0.6102  0.5209
10065TIP3    H254391   1.776   6.641   8.625 -0.6154 -0.3055  0.6820
10066TIP3   OH254392   6.227   4.364   7.937 -0.3193 -0.6486  0.1643
10066TIP3    H154393   6.235   4.296   8.004 -1.1015 -0.3455  0.5877
10066TIP3    H254394   6.302   4.351   7.880  0.7929 -0.4434  1.5318
10067TIP3   OH254395   4.967   6.100   6.507 -0.4044  0.7064 -0.3438
10067TIP3    H154396   5.002   6.051   6.433 -1.1912 -2.4851  1.2271
10067TIP3    H254397   4.935   6.033   6.567 -2.2420  3.2234  1.7058
10068TIP3   OH254398   0.047   6.165   8.014  0.0822  0.1420 -0.3529
10068TIP3    H154399   0.130   6.129   8.045 -0.2145 -1.0228 -0.8645
10068TIP3    H254400  -0.020   6.124   8.070 -0.1392  1.4676  0.4056
10069TIP3   OH254401   0.689   3.286   6.095  0.5077  0.4501  0.3433
10069TIP3    H154402   0.717   3.309   6.184  2.1760 -0.8729  0.2236
10069TIP3    H254403   0.771   3.272   6.047 -0.3594 -0.6101 -0.9162
10070TIP3   OH254404   0.401   1.192   7.679 -0.0357  0.3144 -0.1098
10070TIP3    H154405   0.460   1.166   7.607 -2.1117  1.1286 -2.2304
10070TIP3    H254406   0.346   1.115   7.693  1.4072 -0.4447  1.8744
10071TIP3   OH254407   5.735   5.900   7.665 -0.2141 -0.2710 -0.2670
10071TIP3    H154408   5.647   5.928   7.690 -0.4374 -0.4817 -0.8075
10071TIP3    H254409   5.723   5.813   7.628  0.5030 -1.2219  1.6096
10072TIP3   OH254410   5.139   5.789   8.263  0.1671  0.4249  0.2132
10072TIP3    H154411   5.097   5.725   8.321  1.5119 -0.0581  0.6905
10072TIP3    H254412   5.075   5.861   8.256 -1.6539 -1.2090 -0.8557
10073TIP3   OH254413   1.914   0.725   6.112 -0.3182 -0.2064 -0.0664
10073TIP3    H154414   1.887   0.744   6.021 -3.4293 -1.4566  0.4629
10073TIP3    H254415   1.886   0.802   6.161  0.7717  0.1831 -0.0244
10074TIP3   OH254416   5.407   2.650   8.741 -0.2332 -0.3068  0.0478
10074TIP3    H154417   5.484   2.702   8.718  0.5408 -1.1146  0.7338
10074TIP3    H254418   5.374   2.690   8.822 -2.4227  1.9701 -1.8023
10075TIP3   OH254419   3.150   6.445   8.425  0.0746 -0.4548  0.8677
10075TIP3    H154420   3.071   6.494   8.450  1.5659  2.5111  0.1978
10075TIP3    H254421   3.162   6.382   8.496 -1.6637  0.5100  2.1054
10076TIP3   OH254422   1.504   0.132   8.273 -0.3636 -0.0018 -0.1552
10076TIP3    H154423   1.589   0.136   8.317 -0.7328 -1.3008  0.7413
10076TIP3    H254424   1.468   0.047   8.299 -2.4300  0.9896  0.4346
10077TIP3   OH254425   6.587   5.876   7.118 -0.2133 -0.2437  0.0061
10077TIP3    H154426   6.673   5.834   7.123 -0.9436 -1.6617  2.6316
10077TIP3    H254427   6.538   5.822   7.057  0.1493 -0.6967  0.1088
10078TIP3   OH254428   4.992   6.113   7.508 -0.2226 -0.0878  0.1449
10078TIP3    H154429   4.980   6.018   7.507  0.2748 -0.2201  2.2893
10078TIP3    H254430   4.903   6.148   7.512 -0.3677 -0.4942  0.4704
10079TIP3   OH254431   0.195   4.232   6.646 -0.3505  0.1665 -0.0397
10079TIP3    H154432   0.209   4.138   6.648 -1.9902 -0.1302 -0.9123
10079TIP3    H254433   0.100   4.243   6.638 -0.1089  1.8530 -1.3049
10080TIP3   OH254434   4.229   6.354   7.259 -0.1240 -0.0716  0.3031
10080TIP3    H154435   4.316   6.359   7.300 -0.3357 -1.3537  0.9795
10080TIP3    H254436   4.213   6.260   7.249 -1.3104  0.1574 -0.0900
10081TIP3   OH254437   0.015   4.198   6.105 -0.1276 -0.6044 -0.0303
10081TIP3    H154438   0.047   4.235   6.187 -1.3693  0.4944  0.0000
10081TIP3    H254439   0.089   4.147   6.071  0.0336 -2.0392  2.2986
10082TIP3   OH254440   3.478   5.511   8.044 -0.1881 -0.4776  0.2352
10082TIP3    H154441   3.573   5.525   8.047 -0.1456 -0.8516  1.9107
10082TIP3    H254442   3.465   5.449   7.972  0.6380  0.7762 -1.0484
10083TIP3   OH254443   3.441   1.337   7.389  0.2136 -0.6637  0.4213
10083TIP3    H154444   3.406   1.376   7.308  0.9582 -1.2639 -0.2075
10083TIP3    H254445   3.391   1.379   7.459 -0.2877  0.0467 -0.3348
10084TIP3   OH254446   0.842   2.549   5.746 -0.1486  0.2307  0.0190
10084TIP3    H154447   0.858   2.470   5.694 -2.9604 -0.1148 -0.4755
10084TIP3    H254448   0.826   2.617   5.681  0.1262  0.7003  0.4425
10085TIP3   OH254449   5.243   4.317   6.170  0.3193 -0.2764 -0.3924
10085TIP3    H154450   5.264   4.249   6.235  2.1894  0.6853  0.0891
10085TIP3    H254451   5.315   4.379   6.177 -0.5059  0.9253 -1.9798
10086TIP3   OH254452   6.479   4.474   7.438  0.3073  0.3807  0.7125
10086TIP3    H154453   6.455   4.528   7.363  0.6386  0.3666  0.5926
10086TIP3    H254454   6.421   4.397   7.431 -0.1427  0.7043  0.8697
10087TIP3   OH254455   4.178   4.581   6.832  0.1681  0.6440 -0.3748
10087TIP3    H154456   4.116   4.605   6.900  0.2283  2.2175 -0.8403
10087TIP3    H254457   4.249   4.538   6.878 -0.0631  1.1585  0.4784
10088TIP3   OH254458   5.517   4.552   6.796  0.4084  0.2118  0.4052
10088TIP3    H154459   5.576   4.571   6.870  2.4297 -0.3422 -0.9662
10088TIP3    H254460   5.458   4.626   6.793 -0.0067  0.0767  2.7974
10089TIP3   OH254461   2.375   1.148   7.754 -0.5375  0.3239  0.1016
10089TIP3    H154462   2.430   1.107   7.687 -2.2244 -0.6830 -0.7539
10089TIP3    H254463   2.433   1.210   7.798  1.3907 -1.0272 -0.3924
10090TIP3   OH254464   5.668   5.606   6.086 -0.2122  0.4862 -0.2811
10090TIP3    H154465   5.755   5.645   6.073 -1.0636  3.2237  1.5511
10090TIP3    H254466   5.687   5.521   6.127  1.6265  0.3944 -1.2017
10091TIP3   OH254467   3.958   5.998   6.486  0.2624 -0.2537  0.2993
10091TIP3    H154468   3.915   5.949   6.415 -0.2758  1.3049 -0.4888
10091TIP3    H254469   4.031   5.942   6.512  0.3703 -0.9640 -1.3625
10092TIP3   OH254470   3.864   4.343   7.110 -0.2231 -0.5229  0.3478
10092TIP3    H154471   3.874   4.269   7.170 -0.0864 -1.0382 -0.2906
10092TIP3    H254472   3.919   4.320   7.035  1.7452  1.2994  1.1094
10093TIP3   OH254473   2.529   4.759   8.172  0.0054 -0.1404  0.0987
10093TIP3    H154474   2.497   4.822   8.106  1.1017  1.0709  0.6859
10093TIP3    H254475   2.456   4.698   8.183  0.2295 -1.2105 -3.1933
10094TIP3   OH254476   1.134   6.565   6.570  0.1583 -0.0528 -0.7884
10094TIP3    H154477   1.210   6.570   6.511  0.9098 -1.1815  0.0415
10094TIP3    H254478   1.060   6.591   6.515  1.3932  3.4965 -0.9972
10095TIP3   OH254479   3.474   1.866   7.901  0.4448  0.2112  0.1080
10095TIP3    H154480   3.408   1.816   7.949  1.4640 -1.8896 -0.5500
10095TIP3    H254481   3.477   1.950   7.946 -2.2101  0.1806  0.5457
10096TIP3   OH254482   0.193   1.584   7.229 -0.3011  0.1958 -0.4954
10096TIP3    H154483   0.204   1.584   7.134  3.4016  0.2580 -0.1793
10096TIP3    H254484   0.207   1.493   7.254  0.6866  0.5080  0.1291
10097TIP3   OH254485   5.641   4.392   5.523  0.6840 -0.0198 -0.2083
10097TIP3    H154486   5.577   4.419   5.589  0.0828 -1.4832 -0.1465
10097TIP3    H254487   5.663   4.473   5.476  0.1470  0.8116  0.9353
10098TIP3   OH254488   3.501   4.020   9.098  0.2346 -0.4957  0.5331
10098TIP3    H154489   3.428   3.988   9.152 -1.1589  0.8119 -0.4531
10098TIP3    H254490   3.481   4.113   9.086  0.3240 -0.7749 -2.4196
10099TIP3   OH254491   4.899   2.106   7.657  0.4183  0.3164 -0.0911
10099TIP3    H154492   4.938   2.084   7.741  1.7573 -1.0943 -1.0168
10099TIP3    H254493   4.836   2.036   7.640  0.2035  0.5546 -0.2899
10100TIP3   OH254494   5.253   3.607   6.460  0.5998 -0.3227 -0.2541
10100TIP3    H154495   5.222   3.671   6.524  1.5546  0.7280 -0.8098
10100TIP3    H254496   5.250   3.523   6.506  1.2674  0.4054  1.1631
10101TIP3   OH254497   0.893   3.064   7.450 -0.5490  0.1664 -0.1167
10101TIP3    H154498   0.983   3.076   7.420  0.3895 -4.2848  0.1900
10101TIP3    H254499   0.883   3.127   7.522  2.4464  0.5662  0.0908
10102TIP3   OH254500   6.357   2.574  16.022 -0.0778 -0.3317  0.7206
10102TIP3    H154501   6.411   2.501  15.991 -1.0942  0.1158 -2.4472
10102TIP3    H254502   6.267   2.541  16.019 -0.4101  0.5104  1.0211
10103TIP3   OH254503   5.419   0.518   7.852 -0.0719  0.4046 -0.2394
10103TIP3    H154504   5.361   0.468   7.795 -1.3029  0.0596  1.2618
10103TIP3    H254505   5.428   0.465   7.931  0.8866  1.2625  0.2536
10104TIP3   OH254506   2.241   1.808   7.578 -0.7481  0.0299 -0.5938
10104TIP3    H154507   2.187   1.882   7.550  0.9858  1.4552 -0.3332
10104TIP3    H254508   2.227   1.803   7.673 -0.8064  0.0692 -0.6001
10105TIP3   OH254509   3.651   6.607   6.629 -0.0585 -0.3410  0.1347
10105TIP3    H154510   3.731   6.583   6.582 -0.6484 -1.1563 -0.4890
10105TIP3    H254511   3.600   6.655   6.564 -0.0527  0.2306  0.5510
10106TIP3   OH254512   0.912   5.217   7.482 -0.0725  0.2741  0.6086
10106TIP3    H154513   0.954   5.234   7.566 -0.2066  1.0176  0.5339
10106TIP3    H254514   0.947   5.133   7.454 -0.5863 -0.3518  1.7549
10107TIP3   OH254515   0.404   3.135   6.390 -0.2924 -0.2681 -0.1355
10107TIP3    H154516   0.382   3.051   6.430 -0.8105  0.0419  0.2389
10107TIP3    H254517   0.440   3.112   6.304  0.1330 -0.8998  0.2039
10108TIP3   OH254518   5.412   0.413   7.482  0.0551  0.3143 -0.0575
10108TIP3    H154519   5.356   0.398   7.558 -0.0107 -1.5644 -0.4358
10108TIP3    H254520   5.421   0.327   7.441  1.5518  0.9538 -1.1714
10109TIP3   OH254521   6.417   3.873   7.432  0.0544  0.4802 -0.4571
10109TIP3    H154522   6.375   3.862   7.517  0.4887  0.2247 -0.2781
10109TIP3    H254523   6.510   3.861   7.449  0.3257  2.0946 -0.6594
10110TIP3   OH254524   0.184   3.951   5.622  0.3767 -1.2909 -1.0707
10110TIP3    H154525   0.114   3.922   5.681 -1.0299  0.9448 -1.5622
10110TIP3    H254526   0.200   4.042   5.647  3.1590 -1.7090 -0.9927
10111TIP3   OH254527   2.810   1.692   8.556 -0.5254  0.0008  0.0264
10111TIP3    H154528   2.878   1.759   8.563 -1.5259  1.1088 -0.5118
10111TIP3    H254529   2.852   1.620   8.509  0.6422  0.1413  0.8296
10112TIP3   OH254530   4.562   4.830   7.389  0.0782 -0.2186  0.4070
10112TIP3    H154531   4.524   4.798   7.307  0.0839  0.1053  0.2746
10112TIP3    H254532   4.563   4.754   7.446 -0.5416 -0.2919  0.3311
10113TIP3   OH254533   5.505   0.807   6.432 -0.2222 -0.3520  0.0399
10113TIP3    H154534   5.442   0.735   6.443  1.8375 -2.2916 -0.1397
10113TIP3    H254535   5.521   0.811   6.338  0.0492 -0.0081  0.0986
10114TIP3   OH254536   2.298   3.777   5.676 -0.8468 -0.2616 -0.1112
10114TIP3    H154537   2.368   3.716   5.698  1.7956  2.7379  0.5584
10114TIP3    H254538   2.293   3.835   5.751 -1.1130  2.0882 -1.8459
10115TIP3   OH254539   0.793   6.726   8.112 -0.5398  0.5889  0.4499
10115TIP3    H154540   0.747   6.704   8.032 -1.2523  0.4510  0.8837
10115TIP3    H254541   0.766   6.816   8.131 -1.4752  0.1684  1.2502
10116TIP3   OH254542   2.800   1.088   6.214 -0.1748  0.3742  0.1263
10116TIP3    H154543   2.804   1.181   6.193 -0.5553  0.3814  0.0801
10116TIP3    H254544   2.713   1.061   6.187  0.7834 -0.5826 -2.1900
10117TIP3   OH254545   3.267   2.226   9.030  0.1811  0.2348 -0.2756
10117TIP3    H154546   3.187   2.269   9.001  0.0891 -0.1258 -0.5681
10117TIP3    H254547   3.294   2.172   8.955  0.8602  0.5768 -0.2944
10118TIP3   OH254548   0.289   0.576   8.023  0.1851  0.0397 -0.2362
10118TIP3    H154549   0.206   0.612   8.053 -0.9580 -2.0868 -0.6450
10118TIP3    H254550   0.347   0.582   8.098 -0.7018  0.5012  0.4234
10119TIP3   OH254551   4.024   2.726   5.686  0.4380 -0.1810  0.8921
10119TIP3    H154552   4.034   2.807   5.736 -0.5509 -0.6208  1.8339
10119TIP3    H254553   4.111   2.711   5.648  0.3864  1.8571 -0.1727
10120TIP3   OH254554   1.731   4.243   8.292  0.5873 -0.2314 -0.0774
10120TIP3    H154555   1.820   4.229   8.327  1.9382  3.3465 -1.6205
10120TIP3    H254556   1.741   4.231   8.197 -0.1467  1.7127 -0.4347
10121TIP3   OH254557   3.479   3.993   9.955  1.2423  0.1632 -0.0481
10121TIP3    H154558   3.452   4.083   9.976  0.2918 -0.2046  0.4046
10121TIP3    H254559   3.400   3.954   9.917  0.5894 -1.3930  2.6187
10122TIP3   OH254560   0.628   0.273   7.564  0.0230  0.2138  0.1829
10122TIP3    H154561   0.637   0.181   7.590  0.9482 -0.5853 -2.5859
10122TIP3    H254562   0.536   0.293   7.578  0.5289  0.3339  4.8685
10123TIP3   OH254563   1.910   4.818   7.764  0.0861 -0.3201  0.3723
10123TIP3    H154564   1.885   4.854   7.679  2.1312  2.3031  0.7656
10123TIP3    H254565   1.833   4.832   7.819 -0.2487  0.6841 -0.3152
10124TIP3   OH254566   4.546   6.518   8.569 -0.5215  0.0631  0.3376
10124TIP3    H154567   4.589   6.465   8.636 -2.4757 -3.8542 -1.1969
10124TIP3    H254568   4.614   6.533   8.503 -0.6472 -4.2552 -1.0783
10125TIP3   OH254569   2.009   2.153   8.169 -0.5317 -0.5892  0.1812
10125TIP3    H154570   2.015   2.181   8.078 -0.4569  1.6059  0.8096
10125TIP3    H254571   2.072   2.207   8.216  0.4105 -2.5941  1.3788
10126TIP3   OH254572   0.277   5.441   6.526  0.6047 -0.0124  0.4759
10126TIP3    H154573   0.237   5.435   6.613  0.0583  0.5621  0.2730
10126TIP3    H254574   0.211   5.402   6.468  0.8898 -0.2265  0.2947
10127TIP3   OH254575   5.465   5.121   6.272 -0.0679 -0.9081 -0.5522
10127TIP3    H154576   5.504   5.190   6.218  1.9944 -1.6033 -0.0654
10127TIP3    H254577   5.540   5.080   6.315 -1.2576 -3.1775 -0.4932
10128TIP3   OH254578   4.787   6.076   7.762 -0.1119 -0.1331 -0.4924
10128TIP3    H154579   4.788   6.011   7.832  0.2793 -1.7282 -1.9101
10128TIP3    H254580   4.695   6.100   7.754 -0.3222 -0.7966 -0.1962
10129TIP3   OH254581   4.096   0.500   6.530 -0.1257  0.5153 -0.4113
10129TIP3    H154582   4.146   0.423   6.506 -0.4061  0.4940 -0.9530
10129TIP3    H254583   4.145   0.540   6.602  0.3797  0.2042 -0.5792
10130TIP3   OH254584   2.147   1.179   8.297 -0.0436  0.5478 -0.4443
10130TIP3    H154585   2.069   1.196   8.244 -1.4476  1.8856  1.8329
10130TIP3    H254586   2.117   1.119   8.365  0.4696  2.1311  1.2648
10131TIP3   OH254587   4.332   2.180   6.476 -0.3819 -0.0976 -0.5188
10131TIP3    H154588   4.342   2.106   6.416 -0.3890 -1.9092  1.5909
10131TIP3    H254589   4.267   2.150   6.540 -1.7265  2.4375 -0.5549
10132TIP3   OH254590   5.272   3.244   6.371  0.2104  0.1674 -0.1067
10132TIP3    H154591   5.203   3.183   6.398 -0.5264  0.0083 -2.1729
10132TIP3    H254592   5.226   3.326   6.353  0.9376  0.8023  0.7959
10133TIP3   OH254593   4.783   5.787   6.320  0.3602  0.3358  0.4703
10133TIP3    H154594   4.715   5.853   6.332 -0.1969  0.1623 -1.3178
10133TIP3    H254595   4.761   5.717   6.381  0.0833  1.1292  1.2985
10134TIP3   OH254596   1.457   0.500   7.855  0.0951 -0.3775  0.6949
10134TIP3    H154597   1.545   0.468   7.835  0.9785  1.6085  1.1463
10134TIP3    H254598   1.455   0.504   7.951 -0.7853 -1.1127  0.7202
10135TIP3   OH254599   6.404   2.080   7.151 -0.1323 -0.2548 -0.3858
10135TIP3    H154600   6.360   2.016   7.206 -2.0863  2.6625  1.7386
10135TIP3    H254601   6.495   2.079   7.181 -0.5984 -0.5817  1.0827
10136TIP3   OH254602   5.120   3.812   6.604  1.0394 -0.6362 -0.0276
10136TIP3    H154603   5.162   3.868   6.670  2.9050 -1.4814 -0.4288
10136TIP3    H254604   5.142   3.854   6.521 -1.0924  0.2824 -0.1924
10137TIP3   OH254605   4.046   4.938   8.625  0.2383  0.0175 -0.1991
10137TIP3    H154606   4.071   4.875   8.693  0.0179 -0.5740 -0.6512
10137TIP3    H254607   4.112   4.927   8.557  1.2941  1.6356  0.5215
10138TIP3   OH254608   2.448   1.852   9.177  0.1878  0.1892  0.3466
10138TIP3    H154609   2.534   1.894   9.177  0.0264  0.5239  0.3629
10138TIP3    H254610   2.387   1.922   9.153 -0.1774  0.1585  1.1630
10139TIP3   OH254611   0.127   1.002   7.960  0.5041 -0.0633  0.7357
10139TIP3    H154612   0.075   0.973   8.034 -1.6025  1.2079 -0.1554
10139TIP3    H254613   0.217   0.984   7.986 -0.3332 -2.8525  2.1388
10140TIP3   OH254614   2.162   1.526   7.308  0.6166  0.1241 -0.2579
10140TIP3    H154615   2.166   1.588   7.236  0.3198 -0.6822 -0.9871
10140TIP3    H254616   2.069   1.509   7.321  0.4732  2.1649  2.0224
10141TIP3   OH254617   0.533   4.139   8.126  0.6529  0.4686 -0.2399
10141TIP3    H154618   0.527   4.107   8.216  0.5319  1.5795  0.1627
10141TIP3    H254619   0.448   4.119   8.088  0.8618 -0.4226 -0.2664
10142TIP3   OH254620   0.298   4.331   7.922  0.0069 -0.2844 -0.3907
10142TIP3    H154621   0.226   4.297   7.869 -0.6725 -0.3232  0.5249
10142TIP3    H254622   0.261   4.408   7.966  1.1949  1.0416 -1.6007
10143TIP3   OH254623   4.930   3.699   6.119 -0.3293  0.1521 -0.0196
10143TIP3    H154624   4.847   3.696   6.070 -1.4231 -2.3952  1.7586
10143TIP3    H254625   4.981   3.627   6.083  1.1377  1.6018 -0.9748
10144TIP3   OH254626   1.308   0.099   5.727 -0.0636 -0.0110 -0.5526
10144TIP3    H154627   1.264   0.014   5.734  0.2063 -0.0750  0.6834
10144TIP3    H254628   1.248   0.161   5.768 -1.6317  1.0185 -4.0184
10145TIP3   OH254629   3.984   1.021   7.181 -0.2812  0.3280 -0.5254
10145TIP3    H154630   3.916   0.991   7.121 -0.0743  0.7374 -0.9608
10145TIP3    H254631   3.983   1.116   7.175  0.3745  0.3355 -0.5799
10146TIP3   OH254632   4.177   3.188   8.687  0.7468  0.6463  0.1727
10146TIP3    H154633   4.225   3.253   8.738  2.1591 -0.7041  0.6850
10146TIP3    H254634   4.236   3.112   8.685 -1.5800 -1.3575  1.3363
10147TIP3   OH254635   4.898   6.703   6.485  0.0350  0.4410  0.2533
10147TIP3    H154636   4.973   6.683   6.542  0.9796  0.7016 -0.8722
10147TIP3    H254637   4.921   6.786   6.443 -2.0353  1.9112  1.7874
10148TIP3   OH254638   2.263   5.468   7.294  0.2817 -0.0912  0.3759
10148TIP3    H154639   2.310   5.514   7.363 -1.2182 -0.2187  1.5375
10148TIP3    H254640   2.299   5.503   7.212  0.1360  2.1627  1.2191
10149TIP3   OH254641   3.734   1.644   8.277  0.5114  0.2098  0.2968
10149TIP3    H154642   3.638   1.643   8.281  0.4013  0.8612 -1.4974
10149TIP3    H254643   3.760   1.687   8.358 -0.6651 -0.7424  1.2270
10150TIP3   OH254644   2.483   1.674   7.116 -0.4133  0.1027  0.0015
10150TIP3    H154645   2.404   1.697   7.067 -0.2798  1.2656  0.2932
10150TIP3    H254646   2.479   1.728   7.196  0.4499 -0.1403  0.2260
10151TIP3   OH254647   5.438   2.308   8.769  0.9394 -0.1951 -0.1100
10151TIP3    H154648   5.447   2.367   8.844  0.5279  0.1594 -0.3326
10151TIP3    H254649   5.490   2.350   8.700 -1.5831  1.4485 -1.1575
10152TIP3   OH254650   5.377   4.644   7.168  0.6406 -0.3642  0.0135
10152TIP3    H154651   5.325   4.707   7.119  0.8316 -0.4148 -0.2576
10152TIP3    H254652   5.335   4.560   7.152  2.7721 -0.9766 -3.0893
10153TIP3   OH254653   0.632   0.106   6.069 -0.0713 -0.7484  0.5628
10153TIP3    H154654   0.546   0.142   6.092 -0.6486 -2.2238  0.8303
10153TIP3    H254655   0.676   0.177   6.021 -1.1176  0.3098  1.1175
10154TIP3   OH254656   4.038   6.627   6.710  0.2843  0.1818  0.3689
10154TIP3    H154657   3.960   6.683   6.710  0.1739  0.0766  1.7822
10154TIP3    H254658   4.082   6.646   6.628 -1.7029 -0.4285 -0.9114
10155TIP3   OH254659   1.031   1.280   8.192 -0.5534 -0.0022  0.2968
10155TIP3    H154660   1.084   1.246   8.264 -0.9385 -2.0300 -0.3228
10155TIP3    H254661   0.965   1.212   8.177 -1.6172  1.2237 -0.7649
10156TIP3   OH254662   1.600   0.089   7.755  0.0988  0.5019  0.5053
10156TIP3    H154663   1.633   0.080   7.845 -1.6428  0.4205  1.1876
10156TIP3    H254664   1.605   0.182   7.736  0.3592  0.5359  0.7432
10157TIP3   OH254665   3.826   5.379   7.210  0.3165 -0.2059  0.3593
10157TIP3    H154666   3.788   5.322   7.143  0.2470 -0.2474  0.4335
10157TIP3    H254667   3.879   5.320   7.264 -0.9586 -0.4918  1.3583
10158TIP3   OH254668   5.742   2.603   7.695  0.4367 -0.1377  0.0019
10158TIP3    H154669   5.743   2.697   7.710 -0.0647 -0.2294  0.6292
10158TIP3    H254670   5.712   2.565   7.778  0.9924 -0.8738 -0.1159
10159TIP3   OH254671   4.969   0.188   6.378 -0.1153 -0.1197  0.2650
10159TIP3    H154672   4.896   0.235   6.339 -0.7019  0.0082  1.4820
10159TIP3    H254673   5.047   0.229   6.341 -0.6139 -1.1232 -2.0761
10160TIP3   OH254674   6.277   5.715   6.216 -0.0984 -0.0898 -0.1068
10160TIP3    H154675   6.293   5.636   6.267  0.8278 -0.3303 -0.7283
10160TIP3    H254676   6.356   5.725   6.163  0.4156  2.0035  0.9248
10161TIP3   OH254677   2.332   5.717   7.446 -0.6136  0.0502 -0.2769
10161TIP3    H154678   2.332   5.795   7.390  0.6842  1.8382  2.0112
10161TIP3    H254679   2.419   5.718   7.487 -1.5443 -1.0299  1.8639
10162TIP3   OH254680   4.034   3.343   8.488 -0.2544  0.6926  0.4742
10162TIP3    H154681   3.969   3.273   8.492  0.5031 -0.2416 -1.8649
10162TIP3    H254682   4.099   3.318   8.554 -0.9422  0.2097  0.9788
10163TIP3   OH254683   5.402   6.521   8.694 -0.2974  0.0299 -0.2850
10163TIP3    H154684   5.455   6.543   8.771  0.1107  0.0026 -0.5512
10163TIP3    H254685   5.467   6.499   8.626 -0.6369  0.3497 -0.7237
10164TIP3   OH254686   0.848   5.261   8.444  0.3611 -0.0704 -0.0093
10164TIP3    H154687   0.934   5.284   8.480  0.1009  0.6801  0.1577
10164TIP3    H254688   0.867   5.221   8.359  0.9869 -1.7810  0.8887
10165TIP3   OH254689   1.738   2.572   6.671  0.4223  0.1729  0.5014
10165TIP3    H154690   1.745   2.479   6.691  1.1556  0.4890  1.8121
10165TIP3    H254691   1.653   2.581   6.628 -0.6953 -0.7770  2.3830
10166TIP3   OH254692   0.995   2.691   7.396 -0.4310 -0.5993  0.0776
10166TIP3    H154693   0.900   2.681   7.390 -0.6939  0.9148  1.1059
10166TIP3    H254694   1.028   2.602   7.409 -1.8154 -1.0367  0.8160
10167TIP3   OH254695   0.177   2.388   6.693 -0.4450 -0.6613  0.2272
10167TIP3    H154696   0.195   2.294   6.698 -0.3662 -0.6940 -0.5320
10167TIP3    H254697   0.172   2.417   6.784 -1.3373 -1.5703  0.4917
10168TIP3   OH254698   1.591   3.919   7.248 -0.0375 -0.1901  0.6624
10168TIP3    H154699   1.559   3.829   7.239  1.8514 -0.9211  0.8674
10168TIP3    H254700   1.662   3.926   7.184  0.4980  0.8252  1.3461
10169TIP3   OH254701   3.295   2.710   7.749 -0.5563  0.1465 -0.4788
10169TIP3    H154702   3.359   2.695   7.819  1.8677  0.8122 -2.4132
10169TIP3    H254703   3.249   2.626   7.741  0.1297 -0.3938  0.9072
10170TIP3   OH254704   4.390   4.467   6.971  1.3577 -0.4420 -0.3099
10170TIP3    H154705   4.481   4.462   6.940  1.4195  1.4877 -0.5542
10170TIP3    H254706   4.357   4.378   6.961  2.4454 -0.6551 -2.6380
10171TIP3   OH254707   5.936   6.065   6.760  0.2413 -0.0946 -0.0245
10171TIP3    H154708   5.927   6.076   6.854  2.3083 -0.4731  0.2687
10171TIP3    H254709   5.890   6.140   6.722  0.2586  0.6137  1.3088
10172TIP3   OH254710   6.364   3.281   7.082 -0.1246  0.6590 -0.3069
10172TIP3    H154711   6.449   3.241   7.063  1.0527  2.4804  0.8036
10172TIP3    H254712   6.366   3.299   7.176 -2.5188 -0.8729  0.1195
10173TIP3   OH254713   3.638   0.534   7.015  0.1614 -0.0976  0.5040
10173TIP3    H154714   3.681   0.516   7.099 -0.1900  0.4009  0.7945
10173TIP3    H254715   3.598   0.620   7.026  0.8070  0.3436 -0.4553
10174TIP3   OH254716   4.843   4.104   5.926 -0.4264  0.0348  0.3045
10174TIP3    H154717   4.843   4.158   6.004  0.6494  0.8061 -0.2032
10174TIP3    H254718   4.751   4.087   5.908 -0.7090  0.5096  1.2839
10175TIP3   OH254719   0.742   1.574   8.650  0.3718  0.9198 -0.0575
10175TIP3    H154720   0.668   1.542   8.702  1.8457 -1.2047  0.8919
10175TIP3    H254721   0.707   1.650   8.603 -2.0744  0.6779  1.1835
10176TIP3   OH254722   0.462   0.142   6.870 -0.2047 -0.5948 -0.3298
10176TIP3    H154723   0.420   0.125   6.954  2.0376  1.0362  1.2055
10176TIP3    H254724   0.545   0.095   6.875 -0.5603 -1.5197 -2.1983
10177TIP3   OH254725   2.008   4.568   5.923 -0.2237  0.3264  0.2828
10177TIP3    H154726   2.069   4.550   5.995 -0.2958  1.8792  0.7655
10177TIP3    H254727   1.963   4.485   5.908  0.3737 -0.2304  1.4846
10178TIP3   OH254728   3.249   0.171   7.961 -0.3046 -0.3358  0.1795
10178TIP3    H154729   3.249   0.076   7.973 -1.1385 -0.2241  1.1742
10178TIP3    H254730   3.337   0.198   7.986 -0.6169 -0.6526  1.7226
10179TIP3   OH254731   5.842   4.528   5.774 -0.4740  0.5304  0.2547
10179TIP3    H154732   5.891   4.474   5.712 -1.1543  0.4446 -0.2130
10179TIP3    H254733   5.873   4.499   5.860  0.3332  0.5156 -0.0243
10180TIP3   OH254734   6.430   2.693   7.050 -0.0220 -0.4142 -0.1392
10180TIP3    H154735   6.401   2.610   7.086 -0.5125 -0.2317 -0.1007
10180TIP3    H254736   6.478   2.670   6.971  0.1054 -0.7504  0.0355
10181TIP3   OH254737   0.852   1.006   7.517  0.1331 -0.5575  0.2275
10181TIP3    H154738   0.910   1.079   7.494 -0.0471 -0.7199 -0.8287
10181TIP3    H254739   0.802   1.037   7.592 -0.8833  0.9286 -1.0038
10182TIP3   OH254740   1.407   3.180   8.449 -0.5698 -0.9431 -0.0722
10182TIP3    H154741   1.330   3.134   8.482  1.2555 -2.1512  2.9183
10182TIP3    H254742   1.418   3.254   8.509 -0.0957 -0.0366 -1.2393
10183TIP3   OH254743   5.320   3.508   7.205  0.9857 -0.6180 -0.4300
10183TIP3    H154744   5.318   3.433   7.145  2.6113 -0.1178 -1.1667
10183TIP3    H254745   5.263   3.573   7.164  0.1404 -1.1743 -0.1549
10184TIP3   OH254746   4.130   4.826   7.689 -0.6478 -0.0909 -0.6483
10184TIP3    H154747   4.064   4.893   7.705  0.3110  0.3195  2.1973
10184TIP3    H254748   4.156   4.839   7.597 -2.3124  1.7152 -0.9266
10185TIP3   OH254749   0.416   6.458   6.889  0.1018  0.4620 -0.3052
10185TIP3    H154750   0.344   6.434   6.948  0.2252  0.2856 -0.2236
10185TIP3    H254751   0.373   6.501   6.815 -0.1902 -0.5363 -0.7410
10186TIP3   OH254752   1.923   6.651   8.348 -0.3260  0.0538  0.0440
10186TIP3    H154753   1.830   6.645   8.368 -0.2983  0.6888  0.3604
10186TIP3    H254754   1.934   6.737   8.306  0.1799  0.1449  0.3506
10187TIP3   OH254755   5.372   5.480   6.834 -0.2252  0.1474  0.8777
10187TIP3    H154756   5.295   5.519   6.873 -0.4703  0.1965  0.3491
10187TIP3    H254757   5.374   5.513   6.744  0.2173 -0.1219  0.7813
10188TIP3   OH254758   6.621   6.492   6.866 -0.1662 -0.4714  0.6948
10188TIP3    H154759   6.654   6.403   6.870 -1.1440 -0.8232  1.7069
10188TIP3    H254760   6.652   6.532   6.947 -1.8819 -0.7238  1.5298
10189TIP3   OH254761   6.518   2.755   8.010  0.4448  0.7149  0.1656
10189TIP3    H154762   6.604   2.737   7.972 -0.7212 -1.8507 -1.5745
10189TIP3    H254763   6.480   2.668   8.026 -2.0862  1.7384  0.2233
10190TIP3   OH254764   1.617   3.801   9.035  0.3568 -0.0324  0.7115
10190TIP3    H154765   1.711   3.785   9.036  0.3247 -0.2194  0.7641
10190TIP3    H254766   1.578   3.721   9.069  0.2215  0.3996  1.6009
10191TIP3   OH254767   4.292   2.722   5.601 -0.0312 -0.4709  0.4667
10191TIP3    H154768   4.302   2.797   5.543 -2.9285  0.6874  1.2640
10191TIP3    H254769   4.361   2.733   5.666 -0.0363  1.1974  0.2378
10192TIP3   OH254770   2.926   6.019   8.018 -0.6666 -0.8062  0.3398
10192TIP3    H154771   2.953   5.996   7.929  1.8808  1.9021  0.2750
10192TIP3    H254772   2.987   5.970   8.075 -0.6441 -0.5998  0.4939
10193TIP3   OH254773   0.930   3.680   6.812 -0.3376 -0.2108  0.1995
10193TIP3    H154774   0.927   3.613   6.744 -0.1327  1.0951 -1.1552
10193TIP3    H254775   0.843   3.721   6.808 -0.3450 -0.1728  0.7721
10194TIP3   OH254776   4.176   3.473   7.004  0.7575  0.0661 -0.2922
10194TIP3    H154777   4.148   3.446   7.092  1.7118 -1.2803 -0.3618
10194TIP3    H254778   4.188   3.568   7.010 -3.2231  0.7312 -0.1477
10195TIP3   OH254779   4.482   6.136   7.080 -0.1590  0.3176 -0.0576
10195TIP3    H154780   4.420   6.064   7.075  0.9658 -0.7766  0.8775
10195TIP3    H254781   4.460   6.181   7.162  1.5218 -1.3457  1.3879
10196TIP3   OH254782   4.565   4.169   8.996  0.2996 -0.4241 -0.5011
10196TIP3    H154783   4.643   4.119   8.972  0.5582 -1.1732  1.6409
10196TIP3    H254784   4.582   4.258   8.964  1.6438 -0.7831 -0.8434
10197TIP3   OH254785   0.556   1.398   7.452 -0.7233  0.0487 -0.0624
10197TIP3    H154786   0.593   1.411   7.365 -1.1192  0.7667 -0.1272
10197TIP3    H254787   0.618   1.439   7.511 -0.0702 -1.0881  0.0807
10198TIP3   OH254788   0.188   5.122   7.928 -0.2622  0.0633 -0.1908
10198TIP3    H154789   0.112   5.148   7.980  0.2301  0.6212  0.2641
10198TIP3    H254790   0.205   5.032   7.955  0.7837  0.7483  1.6401
10199TIP3   OH254791   3.436   1.481   5.788  0.8500  0.6827 -0.3996
10199TIP3    H154792   3.485   1.438   5.717  1.6014  1.0914 -0.1443
10199TIP3    H254793   3.442   1.421   5.862 -2.3316 -1.1017 -1.4214
10200TIP3   OH254794   1.140   4.640   8.190 -0.2218  0.3681 -0.5333
10200TIP3    H154795   1.058   4.630   8.141  0.1518  0.3538 -1.1594
10200TIP3    H254796   1.208   4.610   8.129 -0.0154 -3.2912  1.2135
10201TIP3   OH254797   4.373   3.787   7.936  0.0314  0.2951  0.0599
10201TIP3    H154798   4.411   3.719   7.991 -0.1580  0.4409  0.3762
10201TIP3    H254799   4.281   3.762   7.926 -0.0145  0.4484  0.0918
10202TIP3   OH254800   5.688   2.627   6.112 -0.0772 -0.2588  0.7263
10202TIP3    H154801   5.609   2.641   6.061  1.9134  2.1802 -1.9807
10202TIP3    H254802   5.656   2.603   6.199 -3.8374  2.5430  0.3756
10203TIP3   OH254803   3.582   6.521   6.348  0.2714 -0.1091  0.0807
10203TIP3    H154804   3.625   6.504   6.264  0.8358  1.8641 -0.0771
10203TIP3    H254805   3.620   6.603   6.379 -0.5481 -0.3450  1.8689
10204TIP3   OH254806   5.843   0.917   8.295 -0.3186  0.1303  0.1839
10204TIP3    H154807   5.802   0.922   8.381  0.6213  2.3441  0.5760
10204TIP3    H254808   5.772   0.893   8.236 -1.5072  0.8576  1.2643
10205TIP3   OH254809   5.149   3.735   8.364  0.3304  0.1605 -0.3591
10205TIP3    H154810   5.067   3.714   8.319 -0.8719 -0.1368  1.8066
10205TIP3    H254811   5.153   3.831   8.362  0.7540  0.1276 -1.8047
10206TIP3   OH254812   5.795   3.037   8.415 -0.1117 -0.2261 -0.5405
10206TIP3    H154813   5.849   3.060   8.491  1.4142  2.2352 -2.1822
10206TIP3    H254814   5.808   2.943   8.404  2.3417 -0.0835  0.3461
10207TIP3   OH254815   2.028   1.652   6.873 -0.2035 -0.0352 -0.0978
10207TIP3    H154816   2.025   1.564   6.835 -0.1861  0.4417 -1.2451
10207TIP3    H254817   1.942   1.664   6.913 -0.6929 -0.0996 -1.0797
10208TIP3   OH254818   0.035   1.643   5.984  0.1585  0.1946 -0.2552
10208TIP3    H154819   0.116   1.681   6.016  1.6997 -2.5438 -0.5792
10208TIP3    H254820  -0.020   1.634   6.062  1.8034 -1.5920  0.7959
10209TIP3   OH254821   4.952   2.806   6.727  0.7838  0.1830  0.0556
10209TIP3    H154822   4.900   2.879   6.762  2.1161  0.9412  0.5330
10209TIP3    H254823   4.918   2.729   6.772 -1.4443  0.2934 -1.3048
10210TIP3   OH254824   2.824   4.676   5.464  0.3078 -0.3156 -0.7147
10210TIP3    H154825   2.873   4.624   5.528 -1.2978 -1.8380 -0.6449
10210TIP3    H254826   2.862   4.652   5.379  1.3341  0.4493 -0.4926
10211TIP3   OH254827   5.295   3.650   7.621  0.0887 -0.5286 -0.5255
10211TIP3    H154828   5.371   3.645   7.562 -0.3633 -2.3663 -0.9876
10211TIP3    H254829   5.233   3.587   7.586 -0.9242 -0.3675  0.9148
10212TIP3   OH254830   1.998   5.451   6.900  0.1550 -0.6805 -0.1087
10212TIP3    H154831   1.932   5.397   6.942  0.7879 -2.0495 -0.7967
10212TIP3    H254832   1.959   5.538   6.894 -0.0712 -0.4615  3.0270
10213TIP3   OH254833   5.451   2.500   7.417 -0.3420  0.0238  0.1579
10213TIP3    H154834   5.404   2.430   7.465 -1.1131  0.7064  0.4303
10213TIP3    H254835   5.491   2.552   7.486 -0.8889  0.6171  0.0350
10214TIP3   OH254836   5.957   0.901   6.522 -0.3905  0.1758 -0.5135
10214TIP3    H154837   5.998   0.945   6.597  0.9045  0.8446 -1.5658
10214TIP3    H254838   6.029   0.884   6.461 -1.4297 -0.1459 -1.7119
10215TIP3   OH254839   3.933   4.583   8.678  0.5563 -0.1618  0.4647
10215TIP3    H154840   3.990   4.554   8.606 -0.2078 -0.1383 -0.1621
10215TIP3    H254841   3.977   4.660   8.714  0.3385  0.5633 -0.7819
10216TIP3   OH254842   5.319   0.493   7.015 -0.1366  0.3438  0.0692
10216TIP3    H154843   5.293   0.401   7.011 -0.8406  0.4465  1.4245
10216TIP3    H254844   5.338   0.507   7.108  2.0806  1.0238 -0.4341
10217TIP3   OH254845   3.629   1.023   5.781 -0.2915  0.6582 -0.2498
10217TIP3    H154846   3.724   1.013   5.785 -0.5299 -1.7604  1.1327
10217TIP3    H254847   3.596   0.937   5.755 -2.0990  1.6865 -1.6290
10218TIP3   OH254848   4.771   3.632   7.966 -0.0270  0.1299  0.4162
10218TIP3    H154849   4.782   3.674   7.881  1.3242 -1.5900 -0.3167
10218TIP3    H254850   4.758   3.540   7.946 -1.8880 -0.0282  2.0137
10219TIP3   OH254851   0.059   2.377   6.407  0.1386  0.1315  0.3923
10219TIP3    H154852   0.133   2.416   6.360 -1.9506  2.4038 -1.2907
10219TIP3    H254853   0.055   2.427   6.489 -0.7203  1.5110 -0.4458
10220TIP3   OH254854   0.875   5.060   8.848  0.4312 -0.0933  0.0224
10220TIP3    H154855   0.827   5.089   8.771  1.9539  0.3752 -0.7975
10220TIP3    H254856   0.811   5.013   8.901 -0.6065 -0.5908 -1.6201
10221TIP3   OH254857   0.338   4.708   6.969 -0.1222  0.4758  0.3986
10221TIP3    H154858   0.301   4.792   6.996 -0.3869  0.4166  0.2249
10221TIP3    H254859   0.367   4.667   7.051 -0.0334  0.7163  0.4867
10222TIP3   OH254860   3.888   5.559   7.871  0.0836  0.3689  0.4631
10222TIP3    H154861   3.858   5.494   7.935 -1.4367 -0.9272 -1.4376
10222TIP3    H254862   3.849   5.530   7.788  0.1667  3.1843 -0.6606
10223TIP3   OH254863   5.733   2.146   6.222 -0.1879 -0.0150  0.4929
10223TIP3    H154864   5.637   2.151   6.220 -0.2478 -0.8209  0.6951
10223TIP3    H254865   5.754   2.087   6.149  0.0491 -0.9845  1.3285
10224TIP3   OH254866   1.294   2.868   8.337 -0.5198  0.5606  0.2597
10224TIP3    H154867   1.254   2.937   8.390  0.7907  0.2698  1.6935
10224TIP3    H254868   1.371   2.909   8.298  1.0113 -0.3604  2.1558
10225TIP3   OH254869   3.642   5.303   7.716  0.2327  0.3191  0.3335
10225TIP3    H154870   3.551   5.311   7.745  0.3930 -1.5495  1.5461
10225TIP3    H254871   3.642   5.337   7.626 -2.2622 -2.0818 -0.7100
10226TIP3   OH254872   5.299   3.164   5.900  0.2372  0.1704  0.0469
10226TIP3    H154873   5.351   3.155   5.979  0.1059  0.4549  0.1673
10226TIP3    H254874   5.304   3.078   5.858  0.0816 -0.0651  0.5040
10227TIP3   OH254875   0.650   2.843   6.931  0.1892 -0.1676 -0.3062
10227TIP3    H154876   0.678   2.757   6.900  1.5627  0.1267  0.0810
10227TIP3    H254877   0.566   2.858   6.886  0.8763 -0.8521 -1.8855
10228TIP3   OH254878   3.193   6.037   7.323 -0.5304 -0.3998  0.3187
10228TIP3    H154879   3.243   6.113   7.351 -0.8643 -0.5582  1.4261
10228TIP3    H254880   3.111   6.043   7.372  0.1515 -2.4064  1.8852
10229TIP3   OH254881   2.445   4.819   6.124  0.0790 -0.3784  0.3164
10229TIP3    H154882   2.420   4.737   6.167 -0.7347 -0.6456 -0.6203
10229TIP3    H254883   2.522   4.849   6.171  0.1335 -1.4701  0.9455
10230TIP3   OH254884   4.046   4.047   8.212  0.1660 -0.3996  0.2382
10230TIP3    H154885   4.062   4.076   8.122 -2.1335  0.1432 -0.0486
10230TIP3    H254886   3.953   4.060   8.226  0.5169 -0.1099  2.8657
10231TIP3   OH254887   4.865   0.893   6.861  0.1930 -0.4086 -0.1268
10231TIP3    H154888   4.911   0.888   6.945  2.3392 -0.3774 -1.2334
10231TIP3    H254889   4.847   0.803   6.838  3.0415 -0.7769 -1.3448
10232TIP3   OH254890   2.480   0.698   8.188 -0.8137  0.3031  0.0742
10232TIP3    H154891   2.440   0.784   8.179 -1.5461 -0.1191 -0.8840
10232TIP3    H254892   2.562   0.714   8.234 -1.1868  1.4365  0.3641
10233TIP3   OH254893   0.088   3.931   8.471  0.1739  0.0996 -0.0579
10233TIP3    H154894   0.120   4.021   8.478  1.7296 -0.3812 -0.6294
10233TIP3    H254895   0.158   3.877   8.507 -1.0816 -0.8610  1.0402
10234TIP3   OH254896   1.682   0.626   6.974  0.3410  0.2422  0.3317
10234TIP3    H154897   1.730   0.656   7.051  2.3798 -0.2601 -0.6756
10234TIP3    H254898   1.627   0.555   7.007  1.9878 -0.7089  1.1789
10235TIP3   OH254899   5.537   4.114   6.805 -0.5521 -0.5661 -0.1246
10235TIP3    H154900   5.448   4.081   6.820 -0.2853 -0.5783  1.6008
10235TIP3    H254901   5.589   4.074   6.874  0.4858  0.7141 -0.1362
10236TIP3   OH254902   0.771   6.546   8.509  0.3642  0.1767 -0.0370
10236TIP3    H154903   0.686   6.528   8.468  1.0396 -3.3743 -0.2265
10236TIP3    H254904   0.835   6.519   8.443  1.5709  0.1266  1.1209
10237TIP3   OH254905   1.925   4.303   7.875 -0.3999 -0.1120 -0.0028
10237TIP3    H154906   2.008   4.269   7.843 -0.5758 -0.7750  0.2311
10237TIP3    H254907   1.877   4.329   7.796 -0.0140  0.1770 -0.1426
10238TIP3   OH254908   3.993   0.490   7.726  0.4129  0.1183  0.8512
10238TIP3    H154909   4.076   0.457   7.692 -0.2535 -1.1217  0.3812
10238TIP3    H254910   3.930   0.471   7.658 -0.2713  1.0332  1.2168
10239TIP3   OH254911   2.785   2.480   7.859  0.5595  0.2857 -0.2720
10239TIP3    H154912   2.733   2.537   7.916 -1.1395 -1.6219  0.1958
10239TIP3    H254913   2.801   2.533   7.780 -2.9391  0.7067 -0.8432
10240TIP3   OH254914   6.376   2.342   5.976  0.3786  0.1627  0.6130
10240TIP3    H154915   6.307   2.402   6.002  0.1915 -0.6669  2.1775
10240TIP3    H254916   6.343   2.256   5.999  1.4966 -0.3468  0.3847
10241TIP3   OH254917   4.984   3.096   9.597 -0.0964  0.0675 -0.2006
10241TIP3    H154918   4.953   3.018   9.550  0.0485  0.2955 -0.6727
10241TIP3    H254919   5.070   3.071   9.629 -1.2011 -1.0349  2.2082
10242TIP3   OH254920   0.171   4.936   6.383 -0.0077 -0.5461  0.0651
10242TIP3    H154921   0.199   4.914   6.472  0.2995  2.2122  0.7468
10242TIP3    H254922   0.085   4.977   6.394  1.0716  2.0928 -0.5120
10243TIP3   OH254923   1.444   3.379   7.150 -0.0292  0.5394 -0.3151
10243TIP3    H154924   1.433   3.291   7.115  0.2117 -0.0772  1.0638
10243TIP3    H254925   1.497   3.425   7.084  0.9224 -0.7422 -0.4925
10244TIP3   OH254926   6.659   5.593   7.962 -0.5392  0.2580 -0.6805
10244TIP3    H154927   6.750   5.608   7.986 -0.2937 -0.8211 -0.9237
10244TIP3    H254928   6.654   5.501   7.938 -1.2502  0.7530 -2.6502
10245TIP3   OH254929   3.332   2.537   8.314  0.2346 -0.8120  0.4955
10245TIP3    H154930   3.332   2.561   8.407 -0.2584  1.3360 -0.0082
10245TIP3    H254931   3.422   2.552   8.285 -0.0655  0.4802  0.1889
10246TIP3   OH254932   1.187   3.298   5.791  0.2879  0.2806 -0.2651
10246TIP3    H154933   1.250   3.240   5.747  0.1083 -2.1326  2.3354
10246TIP3    H254934   1.197   3.277   5.884 -3.0380  1.1645  0.4231
10247TIP3   OH254935   5.721   3.739   8.569  0.2685 -0.1807 -0.4758
10247TIP3    H154936   5.764   3.766   8.488 -0.3280  1.6773 -0.2180
10247TIP3    H254937   5.651   3.802   8.582 -0.1392 -0.8872  1.1039
10248TIP3   OH254938   6.326   0.304   7.404 -0.0607  0.5393 -0.2266
10248TIP3    H154939   6.244   0.329   7.447  0.5954 -0.3278  1.6391
10248TIP3    H254940   6.306   0.307   7.310 -2.3219  0.0155  0.1735
10249TIP3   OH254941   1.546   5.657   6.077 -0.0934 -0.0473  0.0098
10249TIP3    H154942   1.585   5.588   6.023  0.2336  0.1340  0.0096
10249TIP3    H254943   1.619   5.717   6.095 -0.4158  0.3943 -0.1458
10250TIP3   OH254944   4.792   3.216   6.235 -0.0965  0.4753  0.0068
10250TIP3    H154945   4.873   3.173   6.263 -0.7415 -0.1807  0.9704
10250TIP3    H254946   4.804   3.234   6.142  0.0882 -2.1751 -0.5736
10251TIP3   OH254947   2.856   6.724   6.610 -0.5175 -0.0257  0.1647
10251TIP3    H154948   2.864   6.718   6.515 -0.2871  0.2848  0.1625
10251TIP3    H254949   2.882   6.814   6.631  0.8780 -0.5033  0.6556
10252TIP3   OH254950   0.518   6.353   6.208  0.3660 -0.1085 -0.2561
10252TIP3    H154951   0.589   6.387   6.154 -0.2721  1.6114 -0.0956
10252TIP3    H254952   0.457   6.313   6.146  0.1838  0.8496 -0.7305
10253TIP3   OH254953   5.992   1.477   7.389  0.0631 -0.5191  0.6287
10253TIP3    H154954   5.960   1.405   7.443  0.9945 -0.2030  1.6353
10253TIP3    H254955   6.070   1.442   7.346 -0.8525 -0.8749 -0.8090
10254TIP3   OH254956   3.513   1.673   8.899  0.3839 -0.0212  0.1178
10254TIP3    H154957   3.451   1.738   8.934 -1.4739 -0.3489 -2.3157
10254TIP3    H254958   3.493   1.593   8.948 -0.9801 -0.0432 -0.4286
10255TIP3   OH254959   3.964   1.648   6.689 -0.0634  0.1787 -0.4420
10255TIP3    H154960   4.040   1.686   6.734 -0.3517 -1.6450  1.7596
10255TIP3    H254961   4.000   1.578   6.635 -0.1959 -1.1729  1.1710
10256TIP3   OH254962   2.812   2.909   7.432 -0.1600  0.2933  0.1323
10256TIP3    H154963   2.847   2.827   7.399  1.2114  0.6643  0.6179
10256TIP3    H254964   2.877   2.940   7.495 -1.8446  0.4985  1.8762
10257TIP3   OH254965   0.548   5.112   9.763  0.2509 -0.1082 -0.0874
10257TIP3    H154966   0.462   5.080   9.735 -0.5937  1.7787  0.2039
10257TIP3    H254967   0.610   5.061   9.712 -1.0612 -0.9524 -0.9026
10258TIP3   OH254968   2.410   2.726   8.224  0.4296 -0.0903 -0.7695
10258TIP3    H154969   2.414   2.809   8.176  0.4015 -0.2892 -1.1225
10258TIP3    H254970   2.346   2.741   8.293 -0.6990 -0.2811 -1.7387
10259TIP3   OH254971   5.292   5.032   8.876  0.5242  0.0598  0.0548
10259TIP3    H154972   5.364   4.970   8.884  2.1587  1.5994 -1.7942
10259TIP3    H254973   5.261   5.022   8.786 -1.1317 -0.0474  0.5956
10260TIP3   OH254974   0.887   1.643   6.106  0.0020  0.2366  0.0620
10260TIP3    H154975   0.820   1.621   6.169  1.0355 -2.3765  0.3688
10260TIP3    H254976   0.968   1.606   6.142  0.5716 -1.7368 -2.8885
10261TIP3   OH254977   4.488   1.091   5.529 -0.5849  0.2521 -0.4956
10261TIP3    H154978   4.431   1.048   5.592  0.0481  0.9310  0.5827
10261TIP3    H254979   4.430   1.149   5.479 -0.9624  0.3488  0.0499
10262TIP3   OH254980   0.322   5.445   7.104  1.1867 -0.0702  0.6805
10262TIP3    H154981   0.338   5.398   7.021  1.9684  2.2799 -0.5802
10262TIP3    H254982   0.311   5.536   7.078 -0.5975  0.4492  3.0128
10263TIP3   OH254983   1.855   1.950   6.246  0.2203  0.2134 -0.1634
10263TIP3    H154984   1.780   1.897   6.275  0.5867  0.2451  0.8768
10263TIP3    H254985   1.931   1.906   6.284  0.4743  1.9843  1.5464
10264TIP3   OH254986   0.908   5.071   6.889  0.3884  0.7883  0.1065
10264TIP3    H154987   0.881   4.993   6.938  2.2583 -0.1627 -0.2974
10264TIP3    H254988   0.891   5.143   6.949 -1.9247  0.1703  0.2834
10265TIP3   OH254989   4.940   1.770   5.613 -0.0145 -0.2948 -0.0898
10265TIP3    H154990   4.886   1.691   5.614 -1.2179  0.4355 -1.7351
10265TIP3    H254991   4.921   1.813   5.696  0.2872 -1.4712  0.6141
10266TIP3   OH254992   2.820   4.001   5.529  0.1923 -0.7350 -0.1621
10266TIP3    H154993   2.725   3.996   5.538  0.3435 -1.7980  1.1593
10266TIP3    H254994   2.850   4.052   5.604  0.7701 -1.7266  0.3087
10267TIP3   OH254995   5.805   3.062   6.488 -0.3890  0.0692 -0.0637
10267TIP3    H154996   5.765   2.985   6.448 -0.8075 -0.3885  1.1768
10267TIP3    H254997   5.737   3.098   6.546  0.2785  0.5132  0.4712
10268TIP3   OH254998   2.138   4.022   8.648 -0.4380  0.1211  0.3852
10268TIP3    H154999   2.210   3.978   8.602  0.4232  2.2000 -0.3533
10268TIP3    H255000   2.177   4.054   8.729 -1.1199 -0.6181  1.0274
10269TIP3   OH255001   1.961   0.076   6.446 -0.1166 -0.2161  0.3354
10269TIP3    H155002   1.934   0.076   6.538  1.3066 -1.3953  0.8128
10269TIP3    H255003   1.948  -0.015   6.418 -1.0124  0.2426 -0.8053
10270TIP3   OH255004   4.466   6.122   8.023 -0.1035 -0.3402 -0.0387
10270TIP3    H155005   4.448   6.168   7.941  1.2834  0.1021 -0.1339
10270TIP3    H255006   4.380   6.107   8.063 -0.6246  2.0222 -0.1695
10271TIP3   OH255007   3.850   0.271   6.911 -0.4457 -0.4528 -0.0026
10271TIP3    H155008   3.824   0.218   6.836  0.1323  1.0683 -1.3444
10271TIP3    H255009   3.778   0.263   6.973 -2.3939  0.6291 -1.9889
10272TIP3   OH255010   3.235   2.990   5.900 -0.1881  0.0033  0.2789
10272TIP3    H155011   3.187   3.051   5.844  0.4429  1.7193  1.4949
10272TIP3    H255012   3.189   2.907   5.890 -1.3833  0.7750 -1.1044
10273TIP3   OH255013   5.513   1.010   8.059  0.6348  0.4581 -0.1306
10273TIP3    H155014   5.580   1.050   8.004 -0.0552  0.4725 -0.9908
10273TIP3    H255015   5.438   1.069   8.053 -0.0597 -0.4502 -0.6298
10274TIP3   OH255016   4.897   3.820   7.672  0.0965  0.7042 -0.6767
10274TIP3    H155017   4.963   3.887   7.653 -0.4864  2.1270  1.7895
10274TIP3    H255018   4.946   3.748   7.710  0.5818  0.2380 -2.1277
10275TIP3   OH255019   4.438   2.951   6.508 -0.4631 -0.2032  0.0915
10275TIP3    H155020   4.476   3.029   6.546 -1.7231  0.1449  0.6932
10275TIP3    H255021   4.424   2.973   6.416 -1.4856  0.5643  0.4157
10276TIP3   OH255022   1.487   6.621   7.497  0.4432  0.1989  0.0270
10276TIP3    H155023   1.468   6.539   7.544 -0.8585  0.3078 -0.2461
10276TIP3    H255024   1.429   6.618   7.421  2.6947 -0.1092 -1.7869
10277TIP3   OH255025   3.709   1.271   6.493 -0.3999 -0.2571  0.3671
10277TIP3    H155026   3.670   1.340   6.545 -1.1409 -0.4336  0.0518
10277TIP3    H255027   3.676   1.190   6.531 -0.5063 -0.4029 -0.0326
10278TIP3   OH255028   4.851   1.376   7.651 -0.6700  0.0668 -0.8526
10278TIP3    H155029   4.777   1.320   7.674  0.5301 -1.4558 -0.6260
10278TIP3    H255030   4.811   1.449   7.603 -2.1560 -1.5118 -2.1245
10279TIP3   OH255031   2.627   3.719   9.477  0.2393  0.5418 -0.4657
10279TIP3    H155032   2.721   3.712   9.496  0.2219  0.0731 -0.5440
10279TIP3    H255033   2.615   3.810   9.450  1.4068 -0.2147 -4.1996
10280TIP3   OH255034   3.497   5.805   8.257 -0.2765  0.0917 -0.1864
10280TIP3    H155035   3.420   5.757   8.228 -0.4266  0.3860 -0.2744
10280TIP3    H255036   3.476   5.897   8.243  1.1234  0.1015 -2.8876
10281TIP3   OH255037   5.851   4.317   7.607 -0.3232 -0.2396  0.2135
10281TIP3    H155038   5.923   4.254   7.601  0.0392  0.0309  1.5164
10281TIP3    H255039   5.835   4.327   7.700 -1.7546  0.0685 -0.0399
10282TIP3   OH255040   4.001   0.770   6.408  0.4899  0.0176 -0.2013
10282TIP3    H155041   4.044   0.827   6.471  0.5637  0.8244 -0.9682
10282TIP3    H255042   4.007   0.683   6.447  1.7416  0.2984  0.2692
10283TIP3   OH255043   4.406   0.708   7.861  0.0328 -0.1212  0.8750
10283TIP3    H155044   4.422   0.618   7.833 -0.5018 -0.6795  2.2605
10283TIP3    H255045   4.356   0.747   7.789 -0.0305 -1.0433  0.4095
10284TIP3   OH255046   2.016   0.419   9.324  0.1052 -0.1867 -0.3585
10284TIP3    H155047   1.950   0.486   9.342  1.2186  0.4526  1.6620
10284TIP3    H255048   2.056   0.447   9.241  1.4894  2.5298  1.0804
10285TIP3   OH255049   0.783   4.324   8.797 -0.2330 -0.5276 -0.3321
10285TIP3    H155050   0.750   4.254   8.853 -1.5430 -0.8172 -1.4226
10285TIP3    H255051   0.876   4.330   8.818 -0.8699  0.2241  2.7434
10286TIP3   OH255052   4.951   4.371   8.123  0.1572  0.2710 -0.0321
10286TIP3    H155053   4.869   4.325   8.103  0.3485 -0.4613  0.8079
10286TIP3    H255054   4.924   4.462   8.136 -0.5371  0.0357  0.2588
10287TIP3   OH255055   0.679   4.344   7.452 -0.1894 -0.5320  0.0605
10287TIP3    H155056   0.666   4.398   7.529  1.6768  1.2980 -0.8268
10287TIP3    H255057   0.597   4.350   7.403 -0.7318 -0.2334  0.9981
10288TIP3   OH255058   5.036   5.557   6.041 -0.3561  0.0501 -0.9035
10288TIP3    H155059   5.047   5.495   5.969 -0.8239 -0.0734 -0.8706
10288TIP3    H255060   4.979   5.625   6.005  0.0785  0.4118 -0.9103
10289TIP3   OH255061   5.538   4.210   6.170 -0.0736  0.3377 -0.2510
10289TIP3    H155062   5.504   4.288   6.213 -1.3588 -0.0452 -0.5366
10289TIP3    H255063   5.610   4.181   6.226 -0.5352  0.8883  0.6410
10290TIP3   OH255064   2.070   5.247   8.517  0.0953  0.0507  0.5074
10290TIP3    H155065   2.083   5.337   8.486 -1.4345  0.2248  0.2981
10290TIP3    H255066   1.980   5.246   8.551  0.0537 -1.4300  0.4154
10291TIP3   OH255067   6.126   4.605   8.190  0.1152  0.5064  0.6738
10291TIP3    H155068   6.153   4.615   8.099 -1.4341  1.4441  0.2714
10291TIP3    H255069   6.141   4.513   8.210  0.9496  0.3955 -0.3587
10292TIP3   OH255070   4.702   5.303   6.651 -0.0439 -0.2561 -0.6353
10292TIP3    H155071   4.777   5.297   6.709  0.5220  0.7533 -1.2256
10292TIP3    H255072   4.736   5.286   6.564 -0.8492 -1.5652 -0.7193
10293TIP3   OH255073   1.717   2.791   7.395  0.5296  0.3331  0.4897
10293TIP3    H155074   1.764   2.852   7.452  0.2783  1.2317 -0.2278
10293TIP3    H255075   1.782   2.762   7.332  0.5276  0.2650  0.5192
10294TIP3   OH255076   0.176   6.062   8.513 -0.2478  0.8080  0.4642
10294TIP3    H155077   0.266   6.090   8.531 -0.3341  0.9944  0.6138
10294TIP3    H255078   0.179   5.966   8.516  0.0713  0.7954 -0.1553
10295TIP3   OH255079   5.304   1.552   5.486  0.5808  0.3930  0.1718
10295TIP3    H155080   5.315   1.593   5.572 -2.5966  1.3862  0.2151
10295TIP3    H255081   5.240   1.483   5.500  0.4294  0.2107 -1.2863
10296TIP3   OH255082   3.542   6.485   6.868 -0.4582 -0.4715  0.1714
10296TIP3    H155083   3.584   6.526   6.792 -0.0907 -0.7379  0.2324
10296TIP3    H255084   3.490   6.414   6.832  0.7862 -1.4737  0.2851
10297TIP3   OH255085   5.681   0.193   7.751  0.0132  0.3222  0.7590
10297TIP3    H155086   5.771   0.162   7.750  0.8074  2.2968  2.6617
10297TIP3    H255087   5.671   0.240   7.669  1.7679  2.5571  1.7056
10298TIP3   OH255088   3.035   1.937   6.006  0.3785 -0.0815 -0.1077
10298TIP3    H155089   3.081   1.999   5.949  0.5332 -0.0985 -0.0021
10298TIP3    H255090   3.087   1.857   6.001  0.0736 -0.2644 -0.3936
10299TIP3   OH255091   3.492   2.897   6.860  0.0509  0.3318  0.4471
10299TIP3    H155092   3.569   2.924   6.909  0.4483  0.4777 -0.2389
10299TIP3    H255093   3.523   2.888   6.770 -0.8839  1.1162  0.0194
10300TIP3   OH255094   2.665   3.021   8.978  0.0213  0.0872 -0.2876
10300TIP3    H155095   2.602   2.952   8.958  1.8706 -1.6046 -0.6031
10300TIP3    H255096   2.650   3.041   9.071  0.2015 -1.6076  0.1472
10301TIP3   OH255097   2.629   4.570   6.186 -0.0308 -0.4162 -0.2359
10301TIP3    H155098   2.681   4.601   6.260 -0.4400 -0.0353 -0.0989
10301TIP3    H255099   2.543   4.549   6.225 -0.0914 -0.6999 -0.5164
10302TIP3   OH255100   3.713   3.812   6.671 -0.0286  0.1990  0.0609
10302TIP3    H155101   3.752   3.734   6.631  1.1940  1.7057 -1.8450
10302TIP3    H255102   3.627   3.782   6.702  0.1875 -1.7612 -1.0679
10303TIP3   OH255103   0.031   5.106   8.835 -0.4662  0.1519  0.0716
10303TIP3    H155104  -0.062   5.108   8.810 -0.7265  1.7697  1.0017
10303TIP3    H255105   0.030   5.096   8.930  0.2302  1.8178  0.2902
10304TIP3   OH255106   1.702   2.391   7.769 -0.6348  0.0548 -0.1050
10304TIP3    H155107   1.632   2.384   7.704 -1.7337  0.5309  0.9764
10304TIP3    H255108   1.656   2.413   7.850  0.6295 -1.0892  0.9576
10305TIP3   OH255109   1.996   2.008   7.038 -0.6417 -0.0633 -0.0485
10305TIP3    H155110   2.046   2.034   6.960 -0.5937 -0.2066 -0.0653
10305TIP3    H255111   1.907   2.039   7.019 -0.9793 -1.4282 -0.8382
10306TIP3   OH255112   5.522   3.755   5.886 -0.1066 -0.0275 -0.0437
10306TIP3    H155113   5.462   3.769   5.813  0.8857  0.7126 -0.7532
10306TIP3    H255114   5.531   3.841   5.927 -1.5448 -0.6424  1.7238
10307TIP3   OH255115   2.393   5.083   7.237 -0.4642 -0.4750  0.0041
10307TIP3    H155116   2.313   5.086   7.184  0.7729  0.9818 -1.8841
10307TIP3    H255117   2.454   5.031   7.184  0.6786  0.6755  0.1688
10308TIP3   OH255118   3.796   3.226   7.114 -0.4501 -0.3932 -0.5945
10308TIP3    H155119   3.782   3.236   7.208 -0.9503 -0.9558 -0.6041
10308TIP3    H255120   3.844   3.305   7.089  0.4655 -0.6542  0.2812
10309TIP3   OH255121   0.192   4.621   6.609  0.0547  0.0511 -0.0118
10309TIP3    H155122   0.130   4.561   6.567 -0.8311 -0.2663  1.6475
10309TIP3    H255123   0.250   4.649   6.538 -0.7427 -1.2105 -1.2228
10310TIP3   OH255124   2.987   6.713   5.888  0.4501 -0.0173 -0.0839
10310TIP3    H155125   3.074   6.752   5.892  0.2313  0.4264  0.6323
10310TIP3    H255126   2.927   6.788   5.883  0.0749 -0.2796  0.3159
10311TIP3   OH255127   5.860   3.829   6.478 -0.7818  0.0617  0.3548
10311TIP3    H155128   5.923   3.757   6.490 -0.1504  0.3675 -0.8518
10311TIP3    H255129   5.818   3.809   6.394  0.0374  1.5267 -0.4481
10312TIP3   OH255130   5.319   2.962   7.583  0.8735 -0.7744  0.0292
10312TIP3    H155131   5.340   3.044   7.628 -1.2431 -0.2114  0.1348
10312TIP3    H255132   5.340   2.893   7.646  1.8620 -0.2662  0.2703
10313TIP3   OH255133   1.896   0.791   8.878  0.2493  0.0593 -0.1532
10313TIP3    H155134   1.957   0.798   8.804 -1.4088 -0.5473 -1.6643
10313TIP3    H255135   1.856   0.878   8.884 -0.5912 -0.2551 -0.9060
10314TIP3   OH255136   4.967   4.367   8.563 -0.1349  0.4722 -0.0845
10314TIP3    H155137   4.892   4.377   8.621 -1.1944 -2.8591 -0.6377
10314TIP3    H255138   4.931   4.377   8.475  0.3632  0.2808 -0.3146
10315TIP3   OH255139   4.134   6.392   6.219 -0.1473  0.1079 -0.5157
10315TIP3    H155140   4.161   6.348   6.138  2.1737  0.5020 -0.0124
10315TIP3    H255141   4.157   6.331   6.289  0.3081  0.8407 -0.0097
10316TIP3   OH255142   1.783   1.247   6.023 -0.0028 -0.0370 -0.4159
10316TIP3    H155143   1.832   1.325   6.049  0.7521  0.5197 -3.1685
10316TIP3    H255144   1.839   1.203   5.959 -1.1288 -1.9465 -0.1680
10317TIP3   OH255145   4.737   6.343   7.381  0.1359  0.2051  0.6430
10317TIP3    H155146   4.812   6.344   7.321  0.7812  0.4490  1.4326
10317TIP3    H255147   4.776   6.341   7.468 -0.7640  0.9552  1.0867
10318TIP3   OH255148   5.180   2.913   6.635 -0.3549 -0.3819 -0.5222
10318TIP3    H155149   5.250   2.894   6.698  0.1484 -1.9980 -1.5072
10318TIP3    H255150   5.100   2.893   6.683 -0.3406  2.9072  1.1231
10319TIP3   OH255151   6.371   3.352   6.323 -0.7785 -0.6483  0.1139
10319TIP3    H155152   6.298   3.409   6.348  0.1164 -0.0095  1.4322
10319TIP3    H255153   6.388   3.299   6.401 -1.1946 -2.3198 -0.8961
10320TIP3   OH255154   3.960   0.536   6.869 -0.4084 -0.0885 -0.5950
10320TIP3    H155155   3.884   0.525   6.812 -0.1460 -0.1900 -0.9309
10320TIP3    H255156   3.986   0.447   6.892  0.2588 -0.0951 -1.3541
10321TIP3   OH255157   2.817   4.347   8.699 -0.0422 -0.4385 -0.7590
10321TIP3    H155158   2.876   4.275   8.674  0.6785  0.6140 -2.2164
10321TIP3    H255159   2.790   4.325   8.789  2.2105 -1.1859 -0.1933
10322TIP3   OH255160   3.311   0.820   6.259 -0.1544 -0.0392 -0.0308
10322TIP3    H155161   3.374   0.843   6.191  0.6406  0.3879  0.8349
10322TIP3    H255162   3.363   0.775   6.326 -0.9670 -0.6703  0.1954
10323TIP3   OH255163   4.614   2.674   6.888 -0.1618  0.4443 -0.1097
10323TIP3    H155164   4.545   2.708   6.945 -0.4928 -0.2556 -0.0835
10323TIP3    H255165   4.568   2.652   6.807  0.2280  1.0119 -0.4898
10324TIP3   OH255166   4.415   0.440   6.394 -0.3239 -0.3939 -0.2721
10324TIP3    H155167   4.434   0.347   6.396 -0.9764 -0.6303 -2.2919
10324TIP3    H255168   4.325   0.445   6.362 -0.9212  0.9047  1.4422
10325TIP3   OH255169   1.631   4.011   5.914  0.0504 -0.6534  0.1313
10325TIP3    H155170   1.605   4.102   5.899  0.3104 -0.4299  1.0075
10325TIP3    H255171   1.635   4.002   6.009 -1.5258 -2.0341  0.1042
10326TIP3   OH255172   4.122   5.024   6.945 -0.7956  0.1069  0.1153
10326TIP3    H155173   4.059   4.952   6.944  0.2861 -0.8661 -0.4032
10326TIP3    H255174   4.140   5.041   6.853  0.3072 -0.1918  0.2638
10327TIP3   OH255175   0.238   0.939   6.640  0.1510 -0.0523  0.3937
10327TIP3    H155176   0.231   0.844   6.642  2.9380 -0.3426  2.7558
10327TIP3    H255177   0.260   0.960   6.549  1.4949 -1.8907  0.2577
10328TIP3   OH255178   6.628   6.566   7.411 -0.0444 -0.4348  0.0819
10328TIP3    H155179   6.570   6.505   7.458 -1.0674 -0.1786 -0.7935
10328TIP3    H255180   6.613   6.650   7.454  0.6622 -0.6079  0.6842
10329TIP3   OH255181   1.460   1.959   6.104  0.0785  0.0873  0.0953
10329TIP3    H155182   1.519   1.943   6.177  1.5843  1.4231 -0.7506
10329TIP3    H255183   1.515   1.945   6.026 -0.5758  1.7441 -0.7143
10330TIP3   OH255184   5.158   6.359   8.009 -0.3207  0.2170 -0.3197
10330TIP3    H155185   5.200   6.290   7.959 -1.2204  0.4144 -1.3959
10330TIP3    H255186   5.227   6.392   8.067  0.8624  0.1956 -1.6533
10331TIP3   OH255187   4.106   3.081   5.548  0.4703 -0.6168  0.4013
10331TIP3    H155188   4.193   3.095   5.511  1.1717 -1.6938  1.5643
10331TIP3    H255189   4.122   3.044   5.635 -1.1387  0.7697  1.3487
10332TIP3   OH255190   2.278   4.882   7.722  0.3359 -0.0833  0.5237
10332TIP3    H155191   2.232   4.938   7.659  1.0631 -1.5604 -1.4180
10332TIP3    H255192   2.216   4.813   7.743  0.7504 -0.6503 -0.0890
10333TIP3   OH255193   5.521   0.801   6.136 -0.1443 -0.2513 -0.4283
10333TIP3    H155194   5.428   0.810   6.156  0.0629  0.4431  0.2377
10333TIP3    H255195   5.523   0.749   6.055 -1.1593  1.0356 -1.3115
10334TIP3   OH255196   2.685   5.665   5.594 -0.1843  0.1641 -0.0752
10334TIP3    H155197   2.769   5.636   5.629  0.0636 -0.8691 -1.4619
10334TIP3    H255198   2.677   5.621   5.510 -1.0531  2.0770 -1.0579
10335TIP3   OH255199   6.437   5.773   7.668  0.6437 -0.6583 -0.1782
10335TIP3    H155200   6.444   5.867   7.652  0.8713 -0.6472 -0.0105
10335TIP3    H255201   6.435   5.765   7.764 -1.9362 -0.6229 -0.1512
10336TIP3   OH255202   0.275   2.313   5.733 -0.4448 -0.8667  0.2793
10336TIP3    H155203   0.354   2.367   5.736 -0.4251 -0.9185  2.0042
10336TIP3    H255204   0.215   2.357   5.794 -2.0147 -0.4605 -1.4660
10337TIP3   OH255205   2.137   6.609   8.778 -0.2441  0.4879 -0.1311
10337TIP3    H155206   2.227   6.618   8.746  0.2258 -0.0676  0.9851
10337TIP3    H255207   2.126   6.515   8.792 -0.5574  0.6772  0.9454
10338TIP3   OH255208   4.404   6.222   5.695  0.2852  0.0446  0.5256
10338TIP3    H155209   4.330   6.251   5.641  2.1345  1.9753 -1.1683
10338TIP3    H255210   4.375   6.139   5.733 -2.2062  0.0224 -1.1725
10339TIP3   OH255211   3.436   5.467   8.492 -0.1529  0.9149 -0.0506
10339TIP3    H155212   3.526   5.495   8.479  0.2288 -0.2605 -0.0638
10339TIP3    H255213   3.426   5.460   8.587 -0.1513  0.8136 -0.0576
10340TIP3   OH255214   5.600   6.370   9.464 -0.0544 -0.6702 -0.0141
10340TIP3    H155215   5.505   6.368   9.455 -0.0377 -2.6190 -0.2901
10340TIP3    H255216   5.617   6.435   9.532 -1.6018 -0.5632  0.3005
10341TIP3   OH255217   1.426   1.552   7.890 -0.1826  0.4003 -0.1837
10341TIP3    H155218   1.368   1.515   7.823 -1.0042  0.8934  0.2361
10341TIP3    H255219   1.412   1.496   7.966 -1.4439  1.5278  0.4600
10342TIP3   OH255220   1.175   4.103   7.060 -0.2793  0.5086  0.3532
10342TIP3    H155221   1.238   4.144   7.000 -0.6179  1.4019  0.5774
10342TIP3    H255222   1.181   4.155   7.140  0.3293 -0.8205  1.1841
10343TIP3   OH255223   0.429   4.588   7.198 -0.8925 -0.7355  0.3524
10343TIP3    H155224   0.443   4.493   7.203 -0.5455 -0.7581 -0.8166
10343TIP3    H255225   0.494   4.624   7.258 -0.1062 -1.1725 -0.2214
10344TIP3   OH255226   0.310   2.393   8.113  0.3281  0.0101  0.8703
10344TIP3    H155227   0.364   2.467   8.140  2.2645 -1.1454  0.3096
10344TIP3    H255228   0.226   2.408   8.158  0.8869  2.1320  1.3351
10345TIP3   OH255229   5.353   5.761   7.698 -0.1718 -0.2455 -0.2032
10345TIP3    H155230   5.267   5.786   7.731 -1.1060 -1.6924 -1.4415
10345TIP3    H255231   5.365   5.671   7.728 -0.3414 -1.0293 -2.3269
10346TIP3   OH255232   2.414   4.180   6.677 -0.0162 -0.3183  0.0975
10346TIP3    H155233   2.379   4.194   6.766 -0.6021  0.0305 -0.1780
10346TIP3    H255234   2.447   4.090   6.678 -0.9046 -0.6559  0.3909
10347TIP3   OH255235   5.561   5.517   7.683  0.0545 -0.0518  0.0853
10347TIP3    H155236   5.605   5.583   7.630  1.6056 -1.6902 -0.7641
10347TIP3    H255237   5.511   5.465   7.620 -0.3951 -0.2802  0.6164
10348TIP3   OH255238   3.760   4.178   8.469  0.2453  0.0331 -0.1722
10348TIP3    H155239   3.687   4.231   8.502  0.6739  0.9963 -0.7353
10348TIP3    H255240   3.778   4.116   8.540 -0.1778  0.7316  0.5627
10349TIP3   OH255241   6.736   0.551   8.006 -0.0807 -0.4439 -0.5596
10349TIP3    H155242   6.778   0.515   7.928 -0.7356 -1.6985 -0.3590
10349TIP3    H255243   6.645   0.521   8.001 -0.6222  1.0357 -0.2604
10350TIP3   OH255244   1.451   3.466   7.426 -0.2071 -0.2417 -0.2098
10350TIP3    H155245   1.378   3.411   7.455  1.1283 -2.3021 -0.5504
10350TIP3    H255246   1.458   3.449   7.333  1.4200 -1.0274  0.0196
10351TIP3   OH255247   4.518   3.114   7.117 -0.4290 -0.2893 -0.3778
10351TIP3    H155248   4.458   3.175   7.074  1.0567  1.3620 -0.2471
10351TIP3    H255249   4.603   3.133   7.078  0.7068  0.1895  2.1227
10352TIP3   OH255250   4.708   4.709   6.380  0.5050 -0.0499  0.2067
10352TIP3    H155251   4.664   4.715   6.294  2.8937  1.7264 -1.0058
10352TIP3    H255252   4.640   4.677   6.439 -0.6698 -3.7377 -2.7438
10353TIP3   OH255253   4.157   5.088   6.249 -0.6019  0.1314  0.4778
10353TIP3    H155254   4.104   5.018   6.286 -1.0155  0.5342  0.6601
10353TIP3    H255255   4.095   5.159   6.232 -0.0950  0.6681  0.8437
10354TIP3   OH255256   4.681   6.317   6.069  0.4757  0.3529 -0.8432
10354TIP3    H155257   4.624   6.336   5.994  2.2344  0.2235 -2.2973
10354TIP3    H255258   4.768   6.341   6.039  1.2555  0.2491  1.1923
10355TIP3   OH255259   5.542   6.434   7.654 -0.6151  0.0592 -0.4715
10355TIP3    H155260   5.449   6.425   7.634 -0.4294 -1.2493 -0.8349
10355TIP3    H255261   5.544   6.482   7.737 -1.6420 -0.7325  0.0280
10356TIP3   OH255262   4.769   5.056   5.819  0.5966  0.6014  0.1595
10356TIP3    H155263   4.761   4.963   5.840  0.3572  0.2633 -1.2937
10356TIP3    H255264   4.852   5.083   5.858  0.7824 -0.2845  0.3851
10357TIP3   OH255265   3.317   5.765   8.512  0.0516 -0.4749 -0.5727
10357TIP3    H155266   3.314   5.673   8.485 -2.2340 -0.9155  0.9466
10357TIP3    H255267   3.235   5.803   8.480  1.5066  1.4534 -2.3006
10358TIP3   OH255268   2.422   6.481   7.327 -0.6426  0.2192  0.3742
10358TIP3    H155269   2.421   6.429   7.407 -2.0912  1.4023  1.1666
10358TIP3    H255270   2.426   6.571   7.357 -1.5018  0.7007 -0.8616
10359TIP3   OH255271   2.357   1.006   6.613 -0.1130 -0.6881  0.0065
10359TIP3    H155272   2.371   0.911   6.620 -0.0717 -0.7324 -0.6408
10359TIP3    H255273   2.409   1.033   6.538  0.6396  0.0126  0.7576
10360TIP3   OH255274   5.642   4.731   7.965 -0.5309  0.7097  0.0688
10360TIP3    H155275   5.690   4.726   7.883 -0.2198  1.2704  0.2122
10360TIP3    H255276   5.675   4.810   8.008  1.6199 -1.1850  2.1944
10361TIP3   OH255277   0.582   6.337   7.056 -0.0235 -0.0165  0.0549
10361TIP3    H155278   0.521   6.271   7.091 -0.8447  1.9019  2.5359
10361TIP3    H255279   0.533   6.378   6.985 -0.0170 -1.1497 -0.6308
10362TIP3   OH255280   4.713   0.613   7.524  0.1962  0.2650 -0.3937
10362TIP3    H155281   4.766   0.672   7.577  0.1705  0.1830 -0.2760
10362TIP3    H255282   4.641   0.667   7.493  0.8101  0.5970 -1.2669
10363TIP3   OH255283   2.742   3.556   7.043  0.5164 -0.1655 -0.2963
10363TIP3    H155284   2.702   3.582   7.127 -3.9473 -2.7072 -1.2833
10363TIP3    H255285   2.801   3.484   7.066 -0.2460 -0.4767  0.7668
10364TIP3   OH255286   2.593   1.655   7.977  0.1951 -0.9182 -0.2457
10364TIP3    H155287   2.623   1.642   8.067  1.6174 -1.0980 -0.7221
10364TIP3    H255288   2.598   1.569   7.936  0.0432 -0.7431 -0.6424
10365TIP3   OH255289   1.050   1.951   7.647 -0.3291 -0.5938 -0.1724
10365TIP3    H155290   1.014   1.941   7.735  2.4448 -1.4601  0.9577
10365TIP3    H255291   1.134   1.996   7.660 -1.3782  2.5297 -2.7964
10366TIP3   OH255292   1.441   6.587   5.691 -0.5353  0.0520 -0.5459
10366TIP3    H155293   1.491   6.558   5.615 -1.0490 -0.4476 -0.7003
10366TIP3    H255294   1.500   6.576   5.765  0.0330  0.7061 -0.8853
10367TIP3   OH255295   2.412   6.353   7.575  0.6028 -0.5298  0.2270
10367TIP3    H155296   2.499   6.358   7.616  0.7783 -0.9080 -0.0935
10367TIP3    H255297   2.376   6.270   7.605  0.9977 -1.1278 -0.8766
10368TIP3   OH255298   5.187   5.357   6.426  0.7245 -0.1377 -0.2397
10368TIP3    H155299   5.116   5.415   6.455  0.5623 -0.5475  0.1970
10368TIP3    H255300   5.143   5.275   6.404  1.1473 -0.6807  0.8534
10369TIP3   OH255301   4.733   3.423   8.929  0.4223 -0.7492  0.5191
10369TIP3    H155302   4.799   3.492   8.933 -0.5059  0.2543 -0.6470
10369TIP3    H255303   4.654   3.462   8.966 -0.1557 -1.1250 -0.2774
10370TIP3   OH255304   1.673   2.888   8.548  0.4049  0.2317  0.1744
10370TIP3    H155305   1.654   2.925   8.634 -0.7544  0.8662 -0.3168
10370TIP3    H255306   1.697   2.797   8.565 -2.8928 -0.6154  0.9982
10371TIP3   OH255307   4.070   0.398   5.631 -0.3708 -0.0798 -0.0991
10371TIP3    H155308   4.125   0.325   5.604 -1.4891 -0.7386 -0.6703
10371TIP3    H255309   4.124   0.476   5.618  1.3005 -0.8483  1.7058
10372TIP3   OH255310   3.526   2.131   8.312 -0.3634  0.0613 -0.5675
10372TIP3    H155311   3.565   2.177   8.238  0.5282  0.8884  0.3926
10372TIP3    H255312   3.549   2.039   8.299 -2.0754 -0.1741 -2.4561
10373TIP3   OH255313   2.038   4.467   7.464 -0.1638 -0.0145 -0.3287
10373TIP3    H155314   2.072   4.459   7.376  2.2066 -1.7640  0.6612
10373TIP3    H255315   2.043   4.561   7.483 -1.8820  0.5735 -2.4002
10374TIP3   OH255316   2.455   4.293   6.391 -0.1204  0.2016  0.2885
10374TIP3    H155317   2.435   4.260   6.479  0.4259  2.2903  1.2490
10374TIP3    H255318   2.527   4.355   6.404 -0.9386  1.5901 -1.4257
10375TIP3   OH255319   6.104   5.568   6.776  0.3252  0.2772  0.0102
10375TIP3    H155320   6.064   5.650   6.747  0.0172 -0.1652 -0.8598
10375TIP3    H255321   6.132   5.525   6.695 -0.8066 -1.1377  0.3399
10376TIP3   OH255322   2.495   4.242   7.724  0.5993 -0.0957 -0.4519
10376TIP3    H155323   2.557   4.279   7.660  0.6821 -1.0254 -0.9336
10376TIP3    H255324   2.414   4.290   7.710  0.8091  0.1502 -0.8226
10377TIP3   OH255325   0.933   0.585   7.521  0.2250 -0.2200 -0.1063
10377TIP3    H155326   0.998   0.631   7.469 -0.8894  0.9661 -0.4796
10377TIP3    H255327   0.976   0.570   7.605  1.1940 -0.0437 -0.5579
10378TIP3   OH255328   1.334   2.295   6.796 -0.1276  0.0953 -0.0210
10378TIP3    H155329   1.349   2.354   6.722  0.8023  0.3164  0.3265
10378TIP3    H255330   1.367   2.344   6.872 -0.3174 -0.4556  0.4192
10379TIP3   OH255331   6.275   5.108   6.996 -0.3369  0.1705 -0.4086
10379TIP3    H155332   6.345   5.105   6.931  0.7810  0.2234  0.7465
10379TIP3    H255333   6.245   5.199   6.995 -2.1680 -0.3811 -2.6740
10380TIP3   OH255334   4.417   4.420   8.773  0.2253 -0.6066  0.2173
10380TIP3    H155335   4.497   4.410   8.722 -0.2876  0.8201 -0.9154
10380TIP3    H255336   4.433   4.497   8.828 -0.1902 -0.6103  0.3450
10381TIP3   OH255337   3.440   2.358   6.886  0.0549 -0.3323 -0.0939
10381TIP3    H155338   3.383   2.307   6.943 -0.3859 -0.0970 -0.3114
10381TIP3    H255339   3.525   2.357   6.929 -0.6686  1.3360  1.5097
10382TIP3   OH255340   1.294   3.386   6.334 -0.2343  0.1015  0.0056
10382TIP3    H155341   1.316   3.333   6.257  2.8284  0.7106  0.3182
10382TIP3    H255342   1.316   3.475   6.309  0.3048  0.3889  1.3968
10383TIP3   OH255343   5.191   6.416   6.739  0.4814 -0.8524  0.2242
10383TIP3    H155344   5.272   6.396   6.786 -0.0787 -0.7787  1.2578
10383TIP3    H255345   5.172   6.507   6.763  1.3754 -0.0157 -1.9733
10384TIP3   OH255346   4.350   3.004   8.587 -0.1295  0.1455  0.2142
10384TIP3    H155347   4.265   2.962   8.571 -0.3323  0.6572 -0.0964
10384TIP3    H255348   4.414   2.939   8.559 -0.4001 -0.4965  1.0567
10385TIP3   OH255349   6.554   1.409   5.924  0.3377  0.3607 -0.0274
10385TIP3    H155350   6.624   1.428   5.862  0.9590  1.2942  0.9275
10385TIP3    H255351   6.568   1.471   5.996 -1.7053  0.8697  0.0007
10386TIP3   OH255352   4.664   2.120   5.595 -0.2231  0.1347 -0.0562
10386TIP3    H155353   4.760   2.125   5.599 -0.2791  0.4485  1.0870
10386TIP3    H255354   4.644   2.031   5.625 -0.1701 -1.2206 -3.4611
10387TIP3   OH255355   1.788   4.929   7.522 -0.6379  0.1546  0.4057
10387TIP3    H155356   1.834   4.875   7.458 -1.2607  0.7914 -0.5978
10387TIP3    H255357   1.695   4.913   7.505 -0.8407 -0.7242  2.0734
10388TIP3   OH255358   5.042   6.475   9.158  0.3329  0.5355 -0.4017
10388TIP3    H155359   5.016   6.406   9.097 -1.8777  0.1802  0.8545
10388TIP3    H255360   4.993   6.552   9.129  0.2996  0.7213  0.1455
10389TIP3   OH255361   4.532   4.174   6.017 -0.3946  0.7808 -0.2303
10389TIP3    H155362   4.538   4.108   5.948  1.0271  2.1707 -1.5086
10389TIP3    H255363   4.552   4.126   6.097  2.7709 -0.0585 -1.3473
10390TIP3   OH255364   2.544   2.092   6.055 -0.2744 -0.6130 -0.0415
10390TIP3    H155365   2.489   2.142   5.994 -0.7654  0.8700  1.5468
10390TIP3    H255366   2.484   2.029   6.094 -1.0520  1.1937  1.9041
10391TIP3   OH255367   3.005   6.497   8.152  0.1113  0.0425 -0.2160
10391TIP3    H155368   2.959   6.475   8.232  0.1149 -1.1691 -0.5377
10391TIP3    H255369   2.981   6.428   8.090  0.0427  0.9921 -1.2923
10392TIP3   OH255370   0.486   1.353   5.987 -0.2684  0.3037 -0.3286
10392TIP3    H155371   0.433   1.335   5.909  0.2274 -0.9190 -0.3992
10392TIP3    H255372   0.569   1.309   5.971  0.2205  0.9060  0.4556
10393TIP3   OH255373   5.335   3.258   5.618 -0.4363 -0.0425  0.2644
10393TIP3    H155374   5.349   3.245   5.712  1.6947 -1.2897 -0.1477
10393TIP3    H255375   5.420   3.236   5.578 -1.4113  0.0078 -1.9900
10394TIP3   OH255376   5.630   1.432   6.368 -0.2505  0.2903 -0.2834
10394TIP3    H155377   5.612   1.420   6.461  1.4090 -0.3806 -0.0057
10394TIP3    H255378   5.600   1.520   6.348  1.1132  1.2004  1.3883
10395TIP3   OH255379   2.895   5.639   9.451 -0.3026  0.4081  0.3931
10395TIP3    H155380   2.802   5.623   9.467 -0.1496 -1.2508 -0.2618
10395TIP3    H255381   2.937   5.554   9.464  1.2604  1.2865  1.4796
10396TIP3   OH255382   3.752   0.732   6.557 -0.0638  0.7885 -0.3507
10396TIP3    H155383   3.767   0.799   6.490 -1.6422 -1.0281 -2.7075
10396TIP3    H255384   3.776   0.650   6.514 -2.2719 -0.5846  0.8609
10397TIP3   OH255385   2.757   1.622   6.215  0.1693  0.7701  0.1623
10397TIP3    H155386   2.713   1.596   6.134  0.9770  1.1859 -0.4206
10397TIP3    H255387   2.793   1.540   6.250 -2.0215  0.2008  1.2858
10398TIP3   OH255388   0.281   4.961   9.680  0.3556 -0.2485  0.5006
10398TIP3    H155389   0.324   4.891   9.632  0.0468 -0.1685  0.0979
10398TIP3    H255390   0.211   4.990   9.622  0.8200  0.7639  0.4156
10399TIP3   OH255391   2.672   0.473   6.070  0.1622  0.1804  0.4586
10399TIP3    H155392   2.635   0.390   6.041  2.4642 -0.3294 -1.2833
10399TIP3    H255393   2.737   0.448   6.136  2.8728  0.2060 -2.0452
10400TIP3   OH255394   3.775   4.676   7.844  0.0660  0.1142  0.5365
10400TIP3    H155395   3.790   4.683   7.938 -2.0955  1.6662  0.8579
10400TIP3    H255396   3.862   4.664   7.806  1.0385 -0.0376  2.6761
10401TIP3   OH255397   6.246   0.104   7.952 -0.2069  0.2751 -0.5505
10401TIP3    H155398   6.173   0.077   8.009  1.0682 -1.9645  0.1338
10401TIP3    H255399   6.226   0.063   7.868 -0.6701  1.2882 -0.9607
10402TIP3   OH255400   1.370   4.426   7.826 -0.6986  0.4434 -0.4515
10402TIP3    H155401   1.330   4.458   7.745  0.9925  2.0543 -0.7248
10402TIP3    H255402   1.430   4.358   7.798 -1.1112  0.0486 -0.3825
10403TIP3   OH255403   1.545   1.890   7.543 -0.3016 -0.0663  0.3180
10403TIP3    H155404   1.609   1.923   7.479  0.3794 -1.8482  0.0155
10403TIP3    H255405   1.471   1.861   7.490  0.0753 -1.1271  0.3450
10404TIP3   OH255406   1.634   1.312   7.745 -0.5287 -0.3872  0.3732
10404TIP3    H155407   1.554   1.314   7.692 -0.9470  2.7111  0.9625
10404TIP3    H255408   1.607   1.272   7.828 -1.4906  0.5071  0.5182
10405TIP3   OH255409   4.011   3.235   5.876  0.9186  0.2621  0.3522
10405TIP3    H155410   3.938   3.219   5.816  0.5111  0.9011  0.6678
10405TIP3    H255411   3.989   3.318   5.919  1.6036  0.2236  0.7906
10406TIP3   OH255412   5.204   1.842   6.527 -0.3076 -0.4245 -0.2512
10406TIP3    H155413   5.196   1.751   6.496 -0.2095 -1.2848  2.0928
10406TIP3    H255414   5.191   1.837   6.621 -0.6437  2.0799 -0.0903
10407TIP3   OH255415   6.004   0.041   6.250  0.9596 -0.0154  0.1102
10407TIP3    H155416   5.927  -0.013   6.268  1.4210 -0.3745  1.1400
10407TIP3    H255417   6.072  -0.022   6.227  0.5112  0.4124 -2.6231
10408TIP3   OH255418   1.144   2.512   5.638  0.0082 -0.3982 -0.5057
10408TIP3    H155419   1.149   2.451   5.564  1.6256  0.4039 -1.1165
10408TIP3    H255420   1.090   2.585   5.605  1.3649  0.3207 -1.2162
10409TIP3   OH255421   3.696   5.651   5.976  0.0107  0.0321 -0.5865
10409TIP3    H155422   3.611   5.624   6.011  0.2816  1.7226  1.5894
10409TIP3    H255423   3.676   5.722   5.915 -0.2341 -0.6853 -1.3537
10410TIP3   OH255424   4.460   4.071   6.245 -0.2297 -1.0484 -0.0123
10410TIP3    H155425   4.397   4.001   6.230 -0.9836 -0.4939  0.4512
10410TIP3    H255426   4.406   4.151   6.250  0.5595 -0.4961 -0.1085
10411TIP3   OH255427   3.352   1.703   7.402  0.6007  0.2769 -0.4248
10411TIP3    H155428   3.442   1.727   7.422  0.7001  0.0472 -0.5867
10411TIP3    H255429   3.356   1.667   7.313  0.3233  0.4173 -0.4960
10412TIP3   OH255430   2.410   1.570   7.405  0.1626  0.7028 -0.2593
10412TIP3    H155431   2.321   1.576   7.370 -0.4231  1.8451  1.3037
10412TIP3    H255432   2.455   1.646   7.368 -0.5012  1.9993  1.4731
10413TIP3   OH255433   3.419   4.681   8.992  0.6805 -0.2626  0.0642
10413TIP3    H155434   3.450   4.766   8.962 -2.0214  1.3032  1.3907
10413TIP3    H255435   3.344   4.662   8.936 -0.2013 -0.6093  1.3306
10414TIP3   OH255436   0.167   0.302   8.179  0.3620 -1.1041  0.9311
10414TIP3    H155437   0.262   0.291   8.175  0.1681 -4.2430  2.1101
10414TIP3    H255438   0.150   0.333   8.268  0.3275  2.2111 -0.0756
10415TIP3   OH255439   4.511   5.734   7.911 -0.0850 -0.3350 -0.5996
10415TIP3    H155440   4.537   5.722   8.002  2.4149  1.3944 -0.9863
10415TIP3    H255441   4.418   5.757   7.915 -0.0366 -0.3506  1.4958
10416TIP3   OH255442   4.198   3.531   5.681 -0.2727 -0.0975  0.4797
10416TIP3    H155443   4.288   3.500   5.677 -0.7585 -1.5055 -0.2271
10416TIP3    H255444   4.194   3.600   5.615  0.1450 -0.4418  0.0847
10417TIP3   OH255445   3.999   1.059   8.572  0.6787  0.1228 -0.2793
10417TIP3    H155446   3.996   1.144   8.615 -0.0651  0.1347 -0.3416
10417TIP3    H255447   4.047   1.003   8.633  0.6066  0.4206  0.0564
10418TIP3   OH255448   3.162   2.341   6.778 -0.2403  0.4772  0.6236
10418TIP3    H155449   3.252   2.371   6.769  0.2143 -0.2667  2.3641
10418TIP3    H255450   3.128   2.388   6.854 -0.5432 -0.9937  1.4214
10419TIP3   OH255451   2.579   4.353   8.503  0.5791  0.4748  0.0265
10419TIP3    H155452   2.570   4.258   8.494  2.1646  0.2785  0.1278
10419TIP3    H255453   2.549   4.372   8.592 -0.1390  0.1359 -0.1370
10420TIP3   OH255454   5.924   4.897   7.887  0.8652 -0.2085 -0.0661
10420TIP3    H155455   5.968   4.972   7.848 -0.9511  1.1715  0.3691
10420TIP3    H255456   5.889   4.848   7.813  0.6763  0.2793 -0.3000
10421TIP3   OH255457   6.569   1.645   6.151 -0.6429 -0.7345 -0.7603
10421TIP3    H155458   6.580   1.575   6.215 -0.9356 -1.0945 -1.1028
10421TIP3    H255459   6.497   1.698   6.185 -0.5488 -0.7088 -0.6008
10422TIP3   OH255460   4.682   2.262   6.126  0.1921  1.1634 -0.6720
10422TIP3    H155461   4.735   2.233   6.201 -0.7335  0.1520 -0.3683
10422TIP3    H255462   4.604   2.302   6.166 -1.2224 -1.0723 -0.9981
10423TIP3   OH255463   0.534   5.825   7.845 -0.5006  0.3593  0.0320
10423TIP3    H155464   0.551   5.762   7.775  0.9109  0.5326  0.1823
10423TIP3    H255465   0.460   5.788   7.894 -0.3181 -0.6807 -0.4498
10424TIP3   OH255466   0.313   2.802   6.247 -0.1275  0.0886 -0.2880
10424TIP3    H155467   0.352   2.889   6.260 -0.6598  0.5088 -1.3829
10424TIP3    H255468   0.381   2.751   6.203 -1.1224  1.1775 -3.2986
10425TIP3   OH255469   5.996   1.584   7.104  0.3445 -0.0434 -0.4606
10425TIP3    H155470   6.054   1.521   7.147  2.1092  2.9953  2.0088
10425TIP3    H255471   6.055   1.640   7.053 -0.9524  0.7409 -1.1463
10426TIP3   OH255472   2.820   1.349   6.048 -0.0121 -0.2034 -0.5725
10426TIP3    H155473   2.865   1.277   6.003 -0.0703 -1.1728  0.8306
10426TIP3    H255474   2.758   1.383   5.984  1.1528 -0.3184 -1.8077
10427TIP3   OH255475   0.459   0.242   6.340  0.3582  0.0390  0.0225
10427TIP3    H155476   0.412   0.315   6.380 -0.1210  0.1217 -0.6742
10427TIP3    H255477   0.547   0.276   6.324  0.2117  0.3752 -0.0671
10428TIP3   OH255478   1.479   2.169   7.076  0.1467 -0.1530 -0.2246
10428TIP3    H155479   1.487   2.256   7.037  1.7869 -0.6773 -1.1631
10428TIP3    H255480   1.492   2.184   7.169  0.4511  0.6112 -0.3762
10429TIP3   OH255481   3.896   5.986   7.233  0.3345 -0.2988 -0.3716
10429TIP3    H155482   3.836   5.984   7.308  2.7104 -2.2977  1.6566
10429TIP3    H255483   3.879   5.903   7.187  0.9597 -0.5089 -0.2370
10430TIP3   OH255484   3.402   6.070   8.210 -1.1478 -0.1861 -0.1357
10430TIP3    H155485   3.414   6.053   8.116  0.0741 -0.0299 -0.0175
10430TIP3    H255486   3.335   6.139   8.212 -0.9743  0.0234 -0.9076
10431TIP3   OH255487   4.510   1.470   8.356 -1.2054  0.3082  0.2664
10431TIP3    H155488   4.527   1.516   8.273 -0.5803  0.0391  0.2365
10431TIP3    H255489   4.490   1.539   8.418  1.8940  0.9043  0.7784
10432TIP3   OH255490   2.636   2.443   7.558  0.0209 -0.4417  0.2224
10432TIP3    H155491   2.657   2.532   7.586  0.7535 -0.7900  0.8147
10432TIP3    H255492   2.721   2.404   7.537 -0.2190 -1.2269  0.6660
10433TIP3   OH255493   5.239   5.600   5.810  0.0363  0.3488  0.2194
10433TIP3    H155494   5.330   5.621   5.788  0.0721  0.0828  0.1071
10433TIP3    H255495   5.203   5.682   5.842 -0.8133  1.5213 -3.3165
10434TIP3   OH255496   5.651   6.650   8.471  0.2637  0.3015  0.0237
10434TIP3    H155497   5.742   6.665   8.495 -0.0509 -0.5574  1.9397
10434TIP3    H255498   5.601   6.707   8.529 -0.4411  0.1864 -0.4583
10435TIP3   OH255499   0.432   1.543   8.125  0.3959 -0.5317  0.0070
10435TIP3    H155500   0.344   1.538   8.163  0.9030  0.7427  1.4504
10435TIP3    H255501   0.426   1.492   8.044 -1.4251 -1.2027  0.5184
10436TIP3   OH255502   0.599   2.465   5.544  0.5905 -0.7404  0.1548
10436TIP3    H155503   0.595   2.511   5.628  0.9278 -3.2955  1.6789
10436TIP3    H255504   0.508   2.438   5.528  0.8439 -2.1003  0.8580
10437TIP3   OH255505   5.075   6.092   6.107 -0.2373 -0.1921 -0.1812
10437TIP3    H155506   5.040   6.179   6.085 -0.5682 -0.9891 -3.2564
10437TIP3    H255507   5.005   6.050   6.156 -1.6529  0.0390 -1.8806
10438TIP3   OH255508   1.736   0.111   8.016 -0.5325  0.2612 -0.1756
10438TIP3    H155509   1.827   0.140   8.010 -0.1094 -0.8153  0.6076
10438TIP3    H255510   1.689   0.187   8.050  0.4368  0.2453  1.3171
10439TIP3   OH255511   2.248   5.867   7.237 -0.3629 -0.1412 -0.1498
10439TIP3    H155512   2.198   5.827   7.166  0.1658 -0.4632 -0.3557
10439TIP3    H255513   2.313   5.921   7.192  1.0633 -1.6405 -0.0009
   6.75530   6.75530  30.00000
